 Entering Gaussian System, Link 0=/home/pcmt/gaussian/g16.C.01/g16/g16
 AtFile(1): /home/shaaban/basis.gaussian/Pa-def-TZVP
 AtFile(1): /home/shaaban/basis.gaussian/Pa-ECP60MWB
 Initial command:
 /home/pcmt/gaussian/g16.C.01/g16/l1.exe "/state/partition2/shaaban/972866.phlam-s-sakura/Gau-148599.inp" -scrdir="/state/partition2/shaaban/972866.phlam-s-sakura/"
 Entering Link 1 = /home/pcmt/gaussian/g16.C.01/g16/l1.exe PID=    148600.
  
 Copyright (c) 1988-2019, Gaussian, Inc.  All Rights Reserved.
  
 This is part of the Gaussian(R) 16 program.  It is based on
 the Gaussian(R) 09 system (copyright 2009, Gaussian, Inc.),
 the Gaussian(R) 03 system (copyright 2003, Gaussian, Inc.),
 the Gaussian(R) 98 system (copyright 1998, Gaussian, Inc.),
 the Gaussian(R) 94 system (copyright 1995, Gaussian, Inc.),
 the Gaussian 92(TM) system (copyright 1992, Gaussian, Inc.),
 the Gaussian 90(TM) system (copyright 1990, Gaussian, Inc.),
 the Gaussian 88(TM) system (copyright 1988, Gaussian, Inc.),
 the Gaussian 86(TM) system (copyright 1986, Carnegie Mellon
 University), and the Gaussian 82(TM) system (copyright 1983,
 Carnegie Mellon University). Gaussian is a federally registered
 trademark of Gaussian, Inc.
  
 This software contains proprietary and confidential information,
 including trade secrets, belonging to Gaussian, Inc.
  
 This software is provided under written license and may be
 used, copied, transmitted, or stored only in accord with that
 written license.
  
 The following legend is applicable only to US Government
 contracts under FAR:
  
                    RESTRICTED RIGHTS LEGEND
  
 Use, reproduction and disclosure by the US Government is
 subject to restrictions as set forth in subparagraphs (a)
 and (c) of the Commercial Computer Software - Restricted
 Rights clause in FAR 52.227-19.
  
 Gaussian, Inc.
 340 Quinnipiac St., Bldg. 40, Wallingford CT 06492
  
  
 ---------------------------------------------------------------
 Warning -- This program may not be used in any manner that
 competes with the business of Gaussian, Inc. or will provide
 assistance to any competitor of Gaussian, Inc.  The licensee
 of this program is prohibited from giving any competitor of
 Gaussian, Inc. access to this program.  By using this program,
 the user acknowledges that Gaussian, Inc. is engaged in the
 business of creating and licensing software in the field of
 computational chemistry and represents and warrants to the
 licensee that it is not a competitor of Gaussian, Inc. and that
 it will not use this program in any manner prohibited above.
 ---------------------------------------------------------------
  

 Cite this work as:
 Gaussian 16, Revision C.01,
 M. J. Frisch, G. W. Trucks, H. B. Schlegel, G. E. Scuseria, 
 M. A. Robb, J. R. Cheeseman, G. Scalmani, V. Barone, 
 G. A. Petersson, H. Nakatsuji, X. Li, M. Caricato, A. V. Marenich, 
 J. Bloino, B. G. Janesko, R. Gomperts, B. Mennucci, H. P. Hratchian, 
 J. V. Ortiz, A. F. Izmaylov, J. L. Sonnenberg, D. Williams-Young, 
 F. Ding, F. Lipparini, F. Egidi, J. Goings, B. Peng, A. Petrone, 
 T. Henderson, D. Ranasinghe, V. G. Zakrzewski, J. Gao, N. Rega, 
 G. Zheng, W. Liang, M. Hada, M. Ehara, K. Toyota, R. Fukuda, 
 J. Hasegawa, M. Ishida, T. Nakajima, Y. Honda, O. Kitao, H. Nakai, 
 T. Vreven, K. Throssell, J. A. Montgomery, Jr., J. E. Peralta, 
 F. Ogliaro, M. J. Bearpark, J. J. Heyd, E. N. Brothers, K. N. Kudin, 
 V. N. Staroverov, T. A. Keith, R. Kobayashi, J. Normand, 
 K. Raghavachari, A. P. Rendell, J. C. Burant, S. S. Iyengar, 
 J. Tomasi, M. Cossi, J. M. Millam, M. Klene, C. Adamo, R. Cammi, 
 J. W. Ochterski, R. L. Martin, K. Morokuma, O. Farkas, 
 J. B. Foresman, and D. J. Fox, Gaussian, Inc., Wallingford CT, 2019.
 
 ******************************************
 Gaussian 16:  ES64L-G16RevC.01  3-Jul-2019
                 4-Jul-2023 
 ******************************************
 %mem=16Gb
 %NProc=8
 Will use up to    8 processors via shared memory.
 %chk=pao_oh2_cl_h2o-bp86-cosmors-deftzvp-klamt.chk
 ----------------------------------------------------------------------
 #p BP86/GEN Pseudo=Read GFInput GFPrint IOP(6/7=3) Symm=(Loose) Int=(U
 ltraFine) Guess=(Harris) SCRF=(COSMORS) Scf=(NoVarAcc,MaxCycle=100,con
 ver=8)
 ----------------------------------------------------------------------
 1/38=1,172=1/1;
 2/12=2,17=4,18=3,40=1/2;
 3/5=7,11=2,16=1,17=8,24=110,25=1,30=1,70=12101,74=404,75=-5/1,2,3;
 4/11=8/1;
 5/5=2,6=8,7=100,38=1/2;
 6/7=3,8=2,9=2,10=2,28=1/1;
 99/5=1,9=1/99;
 Leave Link    1 at Tue Jul  4 10:45:30 2023, MaxMem=  2147483648 cpu:               0.7 elap:               0.1
 (Enter /home/pcmt/gaussian/g16.C.01/g16/l101.exe)
 --------------------------------------------------------------------
 pao_oh2_cl_h2o-bp86-cosmors-deftzvp-klamt.com SGP in PCM calculation
 --------------------------------------------------------------------
 Symbolic Z-matrix:
 Charge =  0 Multiplicity = 1
 Pa                   -0.16805   0.07135   0.81068 
 O                     1.10687   1.51546  -0.11304 
 O                    -1.75086   0.80616  -0.35251 
 Cl                   -0.87892   1.57243   2.9768 
 H                    -1.83991   1.55157  -0.9622 
 O                     0.0359   -1.63181  -1.00531 
 H                    -0.45402  -1.64013  -1.83816 
 H                     0.72095  -2.31026  -1.06748 
 H                     2.0618    1.60776  -0.0127 
 O                     1.17778  -0.86175   1.68567 
 
 ITRead=  0  0  0  0  0  0  0  0  0  0
 MicOpt= -1 -1 -1 -1 -1 -1 -1 -1 -1 -1
 NAtoms=     10 NQM=       10 NQMF=       0 NMMI=      0 NMMIF=      0
                NMic=       0 NMicF=      0.
                    Isotopes and Nuclear Properties:
 (Nuclear quadrupole moments (NQMom) in fm**2, nuclear magnetic moments (NMagM)
  in nuclear magnetons)

  Atom         1           2           3           4           5           6           7           8           9          10
 IAtWgt=         231          16          16          35           1          16           1           1           1          16
 AtmWgt= 231.0359000  15.9949146  15.9949146  34.9688527   1.0078250  15.9949146   1.0078250   1.0078250   1.0078250  15.9949146
 NucSpn=           3           0           0           3           1           0           1           1           1           0
 AtZEff=  -0.0000000  -0.0000000  -0.0000000  -0.0000000  -0.0000000  -0.0000000  -0.0000000  -0.0000000  -0.0000000  -0.0000000
 NQMom= -172.0000000   0.0000000   0.0000000  -8.1650000   0.0000000   0.0000000   0.0000000   0.0000000   0.0000000   0.0000000
 NMagM=    2.0100000   0.0000000   0.0000000   0.8218740   2.7928460   0.0000000   2.7928460   2.7928460   2.7928460   0.0000000
 AtZNuc=  91.0000000   8.0000000   8.0000000  17.0000000   1.0000000   8.0000000   1.0000000   1.0000000   1.0000000   8.0000000
 Leave Link  101 at Tue Jul  4 10:45:30 2023, MaxMem=  2147483648 cpu:               0.7 elap:               0.1
 (Enter /home/pcmt/gaussian/g16.C.01/g16/l202.exe)
                          Input orientation:                          
 ---------------------------------------------------------------------
 Center     Atomic      Atomic             Coordinates (Angstroms)
 Number     Number       Type             X           Y           Z
 ---------------------------------------------------------------------
      1         91           0       -0.168053    0.071350    0.810682
      2          8           0        1.106866    1.515464   -0.113036
      3          8           0       -1.750861    0.806161   -0.352506
      4         17           0       -0.878917    1.572426    2.976798
      5          1           0       -1.839905    1.551565   -0.962198
      6          8           0        0.035900   -1.631812   -1.005308
      7          1           0       -0.454016   -1.640131   -1.838161
      8          1           0        0.720954   -2.310264   -1.067482
      9          1           0        2.061800    1.607759   -0.012698
     10          8           0        1.177781   -0.861750    1.685669
 ---------------------------------------------------------------------
                    Distance matrix (angstroms):
                    1          2          3          4          5
     1  Pa   0.000000
     2  O    2.136385   0.000000
     3  O    2.097197   2.954160   0.000000
     4  Cl   2.729581   3.673371   3.525864   0.000000
     5  H    2.851181   3.066894   0.967099   4.054581   0.000000
     6  O    2.498035   3.442160   3.092309   5.192418   3.695185
     7  H    3.166593   3.920483   3.142184   5.803869   3.588165
     8  H    3.160683   3.961829   4.041431   5.830186   4.634955
     9  H    2.830328   0.964617   3.910808   4.193585   4.015970
    10  O    1.856757   2.981865   3.938659   3.438348   4.684199
                    6          7          8          9         10
     6  O    0.000000
     7  H    0.966298   0.000000
     8  H    0.966158   1.556785   0.000000
     9  H    3.947704   4.495602   4.273329   0.000000
    10  O    3.022953   3.960558   3.144316   3.124807   0.000000
 Stoichiometry    ClH4O4Pa
 Framework group  C1[X(ClH4O4Pa)]
 Deg. of freedom    24
 Full point group                 C1      NOp   1
 Largest Abelian subgroup         C1      NOp   1
 Largest concise Abelian subgroup C1      NOp   1
                         Standard orientation:                         
 ---------------------------------------------------------------------
 Center     Atomic      Atomic             Coordinates (Angstroms)
 Number     Number       Type             X           Y           Z
 ---------------------------------------------------------------------
      1         91           0        0.114662   -0.051717   -0.080636
      2          8           0        0.276747    0.189012    2.035945
      3          8           0        0.283190    2.029672   -0.274679
      4         17           0       -2.610069    0.015056   -0.228935
      5          1           0        0.317253    2.757769    0.360927
      6          8           0        2.574086   -0.033114   -0.517750
      7          1           0        3.135925    0.749990   -0.587143
      8          1           0        3.156021   -0.804096   -0.497750
      9          1           0        0.341929   -0.503652    2.704119
     10          8           0        0.239198   -1.904282   -0.087314
 ---------------------------------------------------------------------
 Rotational constants (GHZ):           2.3247093           1.1131092           1.0007546
 Leave Link  202 at Tue Jul  4 10:45:30 2023, MaxMem=  2147483648 cpu:               0.1 elap:               0.0
 (Enter /home/pcmt/gaussian/g16.C.01/g16/l301.exe)
 General basis read from cards:  (5D, 7F)
 Centers:       1
 S 3 1.00
     Exponent=  1.2047376000D+04 Coefficients=  3.4500000000D-04
     Exponent=  1.8116841000D+03 Coefficients=  2.7420000000D-03
     Exponent=  3.4770104000D+02 Coefficients=  1.0053000000D-02
 S 1 1.00
     Exponent=  9.8678010000D+01 Coefficients=  1.0000000000D+00
 S 3 1.00
     Exponent=  5.7507376000D+01 Coefficients=  5.1528000000D-02
     Exponent=  3.3502601000D+01 Coefficients= -2.3692400000D-01
     Exponent=  1.9554451000D+01 Coefficients=  7.1904800000D-01
 S 1 1.00
     Exponent=  9.7164210000D+00 Coefficients=  1.0000000000D+00
 S 1 1.00
     Exponent=  2.6920960000D+00 Coefficients=  1.0000000000D+00
 S 1 1.00
     Exponent=  1.4538470000D+00 Coefficients=  1.0000000000D+00
 S 1 1.00
     Exponent=  5.7435200000D-01 Coefficients=  1.0000000000D+00
 S 1 1.00
     Exponent=  2.6346800000D-01 Coefficients=  1.0000000000D+00
 S 1 1.00
     Exponent=  5.6557000000D-02 Coefficients=  1.0000000000D+00
 S 1 1.00
     Exponent=  2.3169000000D-02 Coefficients=  1.0000000000D+00
 P 5 1.00
     Exponent=  2.9033676000D+03 Coefficients=  3.5000000000D-05
     Exponent=  6.4486356000D+02 Coefficients=  2.0500000000D-04
     Exponent=  2.2025896000D+02 Coefficients=  1.2510000000D-03
     Exponent=  8.0276401000D+01 Coefficients=  2.4570000000D-03
     Exponent=  2.4080211000D+01 Coefficients=  1.1190000000D-02
 P 1 1.00
     Exponent=  1.4077580000D+01 Coefficients=  1.0000000000D+00
 P 1 1.00
     Exponent=  8.2658460000D+00 Coefficients=  1.0000000000D+00
 P 1 1.00
     Exponent=  3.5948000000D+00 Coefficients=  1.0000000000D+00
 P 1 1.00
     Exponent=  1.7531110000D+00 Coefficients=  1.0000000000D+00
 P 1 1.00
     Exponent=  6.5776700000D-01 Coefficients=  1.0000000000D+00
 P 1 1.00
     Exponent=  2.8463900000D-01 Coefficients=  1.0000000000D+00
 P 1 1.00
     Exponent=  1.0054300000D-01 Coefficients=  1.0000000000D+00
 P 1 1.00
     Exponent=  3.0190000000D-02 Coefficients=  1.0000000000D+00
 D 6 1.00
     Exponent=  4.4814991000D+02 Coefficients=  2.6000000000D-05
     Exponent=  1.5446145000D+02 Coefficients=  2.2800000000D-04
     Exponent=  6.0925377000D+01 Coefficients=  9.0400000000D-04
     Exponent=  1.7032091000D+01 Coefficients=  2.5647000000D-02
     Exponent=  1.0018877000D+01 Coefficients= -1.0575100000D-01
     Exponent=  3.4091930000D+00 Coefficients=  4.4743200000D-01
 D 1 1.00
     Exponent=  1.6702130000D+00 Coefficients=  1.0000000000D+00
 D 1 1.00
     Exponent=  7.4109500000D-01 Coefficients=  1.0000000000D+00
 D 1 1.00
     Exponent=  2.6139300000D-01 Coefficients=  1.0000000000D+00
 D 1 1.00
     Exponent=  8.2811000000D-02 Coefficients=  1.0000000000D+00
 F 5 1.00
     Exponent=  8.7991327000D+01 Coefficients=  2.2600000000D-04
     Exponent=  2.8340195000D+01 Coefficients=  2.3230000000D-03
     Exponent=  1.2440994000D+01 Coefficients=  4.5850000000D-03
     Exponent=  3.9572960000D+00 Coefficients=  1.5696100000D-01
     Exponent=  1.8759440000D+00 Coefficients=  3.4497700000D-01
 F 1 1.00
     Exponent=  8.2758900000D-01 Coefficients=  1.0000000000D+00
 F 1 1.00
     Exponent=  3.3274800000D-01 Coefficients=  1.0000000000D+00
 F 1 1.00
     Exponent=  1.1468500000D-01 Coefficients=  1.0000000000D+00
 G 1 1.00
     Exponent=  3.5000000000D-01 Coefficients=  1.0000000000D+00
 ****
 Centers:       2      3      6     10
 Def2TZVP
 ****
 Centers:       5      7      8      9
 Def2TZVP
 ****
 Centers:       4
 Def2TZVP
 ****
 ======================================================================================================
                                       Pseudopotential Parameters
 ======================================================================================================
  Center     Atomic      Valence      Angular      Power
  Number     Number     Electrons     Momentum     of R      Exponent        Coefficient   SO-Coeffient
 ======================================================================================================
    1         91           31
                                      H and up 
                                                     2        1.0000000        0.00000000    0.00000000
                                      S - H
                                                     2       15.2691737      475.47573283    0.00000000
                                      P - H
                                                     2        9.9577370      207.66485962    0.00000000
                                      D - H
                                                     2        8.9431413      156.67411988    0.00000000
                                      F - H
                                                     2        7.0104666       67.98223685    0.00000000
                                      G - H
                                                     2       12.2010560      -57.63059989    0.00000000
    2          8
                                   No pseudopotential on this center.
    3          8
                                   No pseudopotential on this center.
    4         17
                                   No pseudopotential on this center.
    5          1
                                   No pseudopotential on this center.
    6          8
                                   No pseudopotential on this center.
    7          1
                                   No pseudopotential on this center.
    8          1
                                   No pseudopotential on this center.
    9          1
                                   No pseudopotential on this center.
   10          8
                                   No pseudopotential on this center.
 ======================================================================================================
 Ernie: Thresh=  0.10000D-02 Tol=  0.10000D-05 Strict=F.
 AO basis set in the form of general basis input (Overlap normalization):
      1 0
 S   3 1.00       0.000000000000
      0.1204737600D+05  0.2857094961D-01
      0.1811684100D+04  0.2270769386D+00
      0.3477010400D+03  0.8325326273D+00
 S   3 1.00       0.000000000000
      0.5750737600D+02  0.9569327984D-01
      0.3350260100D+02 -0.4399944619D+00
      0.1955445100D+02  0.1335352847D+01
 S   1 1.00       0.000000000000
      0.9867801000D+02  0.1000000000D+01
 S   1 1.00       0.000000000000
      0.9716421000D+01  0.1000000000D+01
 S   1 1.00       0.000000000000
      0.2692096000D+01  0.1000000000D+01
 S   1 1.00       0.000000000000
      0.1453847000D+01  0.1000000000D+01
 S   1 1.00       0.000000000000
      0.5743520000D+00  0.1000000000D+01
 S   1 1.00       0.000000000000
      0.2634680000D+00  0.1000000000D+01
 S   1 1.00       0.000000000000
      0.5655700000D-01  0.1000000000D+01
 S   1 1.00       0.000000000000
      0.2316900000D-01  0.1000000000D+01
 P   5 1.00       0.000000000000
      0.2903367600D+04  0.2594222647D-02
      0.6448635600D+03  0.1519473264D-01
      0.2202589600D+03  0.9272492945D-01
      0.8027640100D+02  0.1821144298D+00
      0.2408021100D+02  0.8294100404D+00
 P   1 1.00       0.000000000000
      0.1407758000D+02  0.1000000000D+01
 P   1 1.00       0.000000000000
      0.8265846000D+01  0.1000000000D+01
 P   1 1.00       0.000000000000
      0.3594800000D+01  0.1000000000D+01
 P   1 1.00       0.000000000000
      0.1753111000D+01  0.1000000000D+01
 P   1 1.00       0.000000000000
      0.6577670000D+00  0.1000000000D+01
 P   1 1.00       0.000000000000
      0.2846390000D+00  0.1000000000D+01
 P   1 1.00       0.000000000000
      0.1005430000D+00  0.1000000000D+01
 P   1 1.00       0.000000000000
      0.3019000000D-01  0.1000000000D+01
 D   6 1.00       0.000000000000
      0.4481499100D+03  0.6556927566D-04
      0.1544614500D+03  0.5749921096D-03
      0.6092537700D+02  0.2279793277D-02
      0.1703209100D+02  0.6467904664D-01
      0.1001887700D+02 -0.2666929411D+00
      0.3409193000D+01  0.1128376621D+01
 D   1 1.00       0.000000000000
      0.1670213000D+01  0.1000000000D+01
 D   1 1.00       0.000000000000
      0.7410950000D+00  0.1000000000D+01
 D   1 1.00       0.000000000000
      0.2613930000D+00  0.1000000000D+01
 D   1 1.00       0.000000000000
      0.8281100000D-01  0.1000000000D+01
 F   5 1.00       0.000000000000
      0.8799132700D+02  0.4766318191D-03
      0.2834019500D+02  0.4899184583D-02
      0.1244099400D+02  0.9669720755D-02
      0.3957296000D+01  0.3310292343D+00
      0.1875944000D+01  0.7275531640D+00
 F   1 1.00       0.000000000000
      0.8275890000D+00  0.1000000000D+01
 F   1 1.00       0.000000000000
      0.3327480000D+00  0.1000000000D+01
 F   1 1.00       0.000000000000
      0.1146850000D+00  0.1000000000D+01
 G   1 1.00       0.000000000000
      0.3500000000D+00  0.1000000000D+01
 ****
      2 0
 S   6 1.00       0.000000000000
      0.2703238263D+05  0.5722733521D-03
      0.4052387139D+04  0.4435323349D-02
      0.9223272271D+03  0.2302010771D-01
      0.2612407099D+03  0.9282249067D-01
      0.8535464135D+02  0.2937850001D+00
      0.3103503524D+02  0.6740160450D+00
 S   2 1.00       0.000000000000
      0.1226086073D+02  0.6383993703D+00
      0.4998707601D+01  0.3953458713D+00
 S   1 1.00       0.000000000000
      0.1170310816D+01  0.1000000000D+01
 S   1 1.00       0.000000000000
      0.4647474099D+00  0.1000000000D+01
 S   1 1.00       0.000000000000
      0.1850453636D+00  0.1000000000D+01
 P   4 1.00       0.000000000000
      0.6327495480D+02  0.1201833222D-01
      0.1462704938D+02  0.8300542179D-01
      0.4450122346D+01  0.3199174393D+00
      0.1527579965D+01  0.7071554292D+00
 P   1 1.00       0.000000000000
      0.5293511794D+00  0.1000000000D+01
 P   1 1.00       0.000000000000
      0.1747842127D+00  0.1000000000D+01
 D   1 1.00       0.000000000000
      0.2314000000D+01  0.1000000000D+01
 D   1 1.00       0.000000000000
      0.6450000000D+00  0.1000000000D+01
 F   1 1.00       0.000000000000
      0.1428000000D+01  0.1000000000D+01
 ****
      3 0
 S   6 1.00       0.000000000000
      0.2703238263D+05  0.5722733521D-03
      0.4052387139D+04  0.4435323349D-02
      0.9223272271D+03  0.2302010771D-01
      0.2612407099D+03  0.9282249067D-01
      0.8535464135D+02  0.2937850001D+00
      0.3103503524D+02  0.6740160450D+00
 S   2 1.00       0.000000000000
      0.1226086073D+02  0.6383993703D+00
      0.4998707601D+01  0.3953458713D+00
 S   1 1.00       0.000000000000
      0.1170310816D+01  0.1000000000D+01
 S   1 1.00       0.000000000000
      0.4647474099D+00  0.1000000000D+01
 S   1 1.00       0.000000000000
      0.1850453636D+00  0.1000000000D+01
 P   4 1.00       0.000000000000
      0.6327495480D+02  0.1201833222D-01
      0.1462704938D+02  0.8300542179D-01
      0.4450122346D+01  0.3199174393D+00
      0.1527579965D+01  0.7071554292D+00
 P   1 1.00       0.000000000000
      0.5293511794D+00  0.1000000000D+01
 P   1 1.00       0.000000000000
      0.1747842127D+00  0.1000000000D+01
 D   1 1.00       0.000000000000
      0.2314000000D+01  0.1000000000D+01
 D   1 1.00       0.000000000000
      0.6450000000D+00  0.1000000000D+01
 F   1 1.00       0.000000000000
      0.1428000000D+01  0.1000000000D+01
 ****
      4 0
 S   7 1.00       0.000000000000
      0.6950799094D+05  0.5145738965D-03
      0.1042615688D+05  0.3978134481D-02
      0.2373233406D+04  0.2045617867D-01
      0.6715642007D+03  0.8014810289D-01
      0.2184199979D+03  0.2345477032D+00
      0.7757224971D+02  0.4454336858D+00
      0.2888881528D+02  0.3546684250D+00
 S   3 1.00       0.000000000000
      0.1271052718D+03  0.1129368805D+00
      0.3933958296D+02  0.4837351421D+00
      0.7674067999D+01 -0.1229229739D+01
 S   2 1.00       0.000000000000
      0.3874562763D+01  0.6729682164D+00
      0.1838583257D+01  0.3495605141D+00
 S   1 1.00       0.000000000000
      0.5022905754D+00  0.1000000000D+01
 S   1 1.00       0.000000000000
      0.1796272342D+00  0.1000000000D+01
 P   5 1.00       0.000000000000
      0.6665042328D+03  0.3350250820D-02
      0.1576424169D+03  0.2676397041D-01
      0.5026252098D+02  0.1236268236D+00
      0.1853607811D+02  0.3584578792D+00
      0.7294053278D+01  0.6167729635D+00
 P   1 1.00       0.000000000000
      0.2943324899D+01  0.1000000000D+01
 P   1 1.00       0.000000000000
      0.1040497082D+01  0.1000000000D+01
 P   1 1.00       0.000000000000
      0.3845641508D+00  0.1000000000D+01
 P   1 1.00       0.000000000000
      0.1306964273D+00  0.1000000000D+01
 D   2 1.00       0.000000000000
      0.4610000000D+01  0.1826583505D+00
      0.1011000000D+01  0.9132917523D+00
 D   1 1.00       0.000000000000
      0.3390000000D+00  0.1000000000D+01
 F   1 1.00       0.000000000000
      0.7060000000D+00  0.1000000000D+01
 ****
      5 0
 S   3 1.00       0.000000000000
      0.3406134100D+02  0.2543930721D-01
      0.5123574600D+01  0.1900859489D+00
      0.1164662600D+01  0.8524411301D+00
 S   1 1.00       0.000000000000
      0.3272304100D+00  0.1000000000D+01
 S   1 1.00       0.000000000000
      0.1030724100D+00  0.1000000000D+01
 P   1 1.00       0.000000000000
      0.8000000000D+00  0.1000000000D+01
 ****
      6 0
 S   6 1.00       0.000000000000
      0.2703238263D+05  0.5722733521D-03
      0.4052387139D+04  0.4435323349D-02
      0.9223272271D+03  0.2302010771D-01
      0.2612407099D+03  0.9282249067D-01
      0.8535464135D+02  0.2937850001D+00
      0.3103503524D+02  0.6740160450D+00
 S   2 1.00       0.000000000000
      0.1226086073D+02  0.6383993703D+00
      0.4998707601D+01  0.3953458713D+00
 S   1 1.00       0.000000000000
      0.1170310816D+01  0.1000000000D+01
 S   1 1.00       0.000000000000
      0.4647474099D+00  0.1000000000D+01
 S   1 1.00       0.000000000000
      0.1850453636D+00  0.1000000000D+01
 P   4 1.00       0.000000000000
      0.6327495480D+02  0.1201833222D-01
      0.1462704938D+02  0.8300542179D-01
      0.4450122346D+01  0.3199174393D+00
      0.1527579965D+01  0.7071554292D+00
 P   1 1.00       0.000000000000
      0.5293511794D+00  0.1000000000D+01
 P   1 1.00       0.000000000000
      0.1747842127D+00  0.1000000000D+01
 D   1 1.00       0.000000000000
      0.2314000000D+01  0.1000000000D+01
 D   1 1.00       0.000000000000
      0.6450000000D+00  0.1000000000D+01
 F   1 1.00       0.000000000000
      0.1428000000D+01  0.1000000000D+01
 ****
      7 0
 S   3 1.00       0.000000000000
      0.3406134100D+02  0.2543930721D-01
      0.5123574600D+01  0.1900859489D+00
      0.1164662600D+01  0.8524411301D+00
 S   1 1.00       0.000000000000
      0.3272304100D+00  0.1000000000D+01
 S   1 1.00       0.000000000000
      0.1030724100D+00  0.1000000000D+01
 P   1 1.00       0.000000000000
      0.8000000000D+00  0.1000000000D+01
 ****
      8 0
 S   3 1.00       0.000000000000
      0.3406134100D+02  0.2543930721D-01
      0.5123574600D+01  0.1900859489D+00
      0.1164662600D+01  0.8524411301D+00
 S   1 1.00       0.000000000000
      0.3272304100D+00  0.1000000000D+01
 S   1 1.00       0.000000000000
      0.1030724100D+00  0.1000000000D+01
 P   1 1.00       0.000000000000
      0.8000000000D+00  0.1000000000D+01
 ****
      9 0
 S   3 1.00       0.000000000000
      0.3406134100D+02  0.2543930721D-01
      0.5123574600D+01  0.1900859489D+00
      0.1164662600D+01  0.8524411301D+00
 S   1 1.00       0.000000000000
      0.3272304100D+00  0.1000000000D+01
 S   1 1.00       0.000000000000
      0.1030724100D+00  0.1000000000D+01
 P   1 1.00       0.000000000000
      0.8000000000D+00  0.1000000000D+01
 ****
     10 0
 S   6 1.00       0.000000000000
      0.2703238263D+05  0.5722733521D-03
      0.4052387139D+04  0.4435323349D-02
      0.9223272271D+03  0.2302010771D-01
      0.2612407099D+03  0.9282249067D-01
      0.8535464135D+02  0.2937850001D+00
      0.3103503524D+02  0.6740160450D+00
 S   2 1.00       0.000000000000
      0.1226086073D+02  0.6383993703D+00
      0.4998707601D+01  0.3953458713D+00
 S   1 1.00       0.000000000000
      0.1170310816D+01  0.1000000000D+01
 S   1 1.00       0.000000000000
      0.4647474099D+00  0.1000000000D+01
 S   1 1.00       0.000000000000
      0.1850453636D+00  0.1000000000D+01
 P   4 1.00       0.000000000000
      0.6327495480D+02  0.1201833222D-01
      0.1462704938D+02  0.8300542179D-01
      0.4450122346D+01  0.3199174393D+00
      0.1527579965D+01  0.7071554292D+00
 P   1 1.00       0.000000000000
      0.5293511794D+00  0.1000000000D+01
 P   1 1.00       0.000000000000
      0.1747842127D+00  0.1000000000D+01
 D   1 1.00       0.000000000000
      0.2314000000D+01  0.1000000000D+01
 D   1 1.00       0.000000000000
      0.6450000000D+00  0.1000000000D+01
 F   1 1.00       0.000000000000
      0.1428000000D+01  0.1000000000D+01
 ****

 AO basis set (Overlap normalization):
 Atom Pa1      Shell     1 S   3     bf    1 -     1          0.216680584408         -0.097731349308         -0.152380044071
      0.1204737600D+05  0.2857094961D-01
      0.1811684100D+04  0.2270769386D+00
      0.3477010400D+03  0.8325326273D+00
 Atom Pa1      Shell     2 S   3     bf    2 -     2          0.216680584408         -0.097731349308         -0.152380044071
      0.5750737600D+02  0.9569327984D-01
      0.3350260100D+02 -0.4399944619D+00
      0.1955445100D+02  0.1335352847D+01
 Atom Pa1      Shell     3 S   1     bf    3 -     3          0.216680584408         -0.097731349308         -0.152380044071
      0.9867801000D+02  0.1000000000D+01
 Atom Pa1      Shell     4 S   1     bf    4 -     4          0.216680584408         -0.097731349308         -0.152380044071
      0.9716421000D+01  0.1000000000D+01
 Atom Pa1      Shell     5 S   1     bf    5 -     5          0.216680584408         -0.097731349308         -0.152380044071
      0.2692096000D+01  0.1000000000D+01
 Atom Pa1      Shell     6 S   1     bf    6 -     6          0.216680584408         -0.097731349308         -0.152380044071
      0.1453847000D+01  0.1000000000D+01
 Atom Pa1      Shell     7 S   1     bf    7 -     7          0.216680584408         -0.097731349308         -0.152380044071
      0.5743520000D+00  0.1000000000D+01
 Atom Pa1      Shell     8 S   1     bf    8 -     8          0.216680584408         -0.097731349308         -0.152380044071
      0.2634680000D+00  0.1000000000D+01
 Atom Pa1      Shell     9 S   1     bf    9 -     9          0.216680584408         -0.097731349308         -0.152380044071
      0.5655700000D-01  0.1000000000D+01
 Atom Pa1      Shell    10 S   1     bf   10 -    10          0.216680584408         -0.097731349308         -0.152380044071
      0.2316900000D-01  0.1000000000D+01
 Atom Pa1      Shell    11 P   5     bf   11 -    13          0.216680584408         -0.097731349308         -0.152380044071
      0.2903367600D+04  0.2594222647D-02
      0.6448635600D+03  0.1519473264D-01
      0.2202589600D+03  0.9272492945D-01
      0.8027640100D+02  0.1821144298D+00
      0.2408021100D+02  0.8294100404D+00
 Atom Pa1      Shell    12 P   1     bf   14 -    16          0.216680584408         -0.097731349308         -0.152380044071
      0.1407758000D+02  0.1000000000D+01
 Atom Pa1      Shell    13 P   1     bf   17 -    19          0.216680584408         -0.097731349308         -0.152380044071
      0.8265846000D+01  0.1000000000D+01
 Atom Pa1      Shell    14 P   1     bf   20 -    22          0.216680584408         -0.097731349308         -0.152380044071
      0.3594800000D+01  0.1000000000D+01
 Atom Pa1      Shell    15 P   1     bf   23 -    25          0.216680584408         -0.097731349308         -0.152380044071
      0.1753111000D+01  0.1000000000D+01
 Atom Pa1      Shell    16 P   1     bf   26 -    28          0.216680584408         -0.097731349308         -0.152380044071
      0.6577670000D+00  0.1000000000D+01
 Atom Pa1      Shell    17 P   1     bf   29 -    31          0.216680584408         -0.097731349308         -0.152380044071
      0.2846390000D+00  0.1000000000D+01
 Atom Pa1      Shell    18 P   1     bf   32 -    34          0.216680584408         -0.097731349308         -0.152380044071
      0.1005430000D+00  0.1000000000D+01
 Atom Pa1      Shell    19 P   1     bf   35 -    37          0.216680584408         -0.097731349308         -0.152380044071
      0.3019000000D-01  0.1000000000D+01
 Atom Pa1      Shell    20 D   6     bf   38 -    42          0.216680584408         -0.097731349308         -0.152380044071
      0.4481499100D+03  0.6556927566D-04
      0.1544614500D+03  0.5749921096D-03
      0.6092537700D+02  0.2279793277D-02
      0.1703209100D+02  0.6467904664D-01
      0.1001887700D+02 -0.2666929411D+00
      0.3409193000D+01  0.1128376621D+01
 Atom Pa1      Shell    21 D   1     bf   43 -    47          0.216680584408         -0.097731349308         -0.152380044071
      0.1670213000D+01  0.1000000000D+01
 Atom Pa1      Shell    22 D   1     bf   48 -    52          0.216680584408         -0.097731349308         -0.152380044071
      0.7410950000D+00  0.1000000000D+01
 Atom Pa1      Shell    23 D   1     bf   53 -    57          0.216680584408         -0.097731349308         -0.152380044071
      0.2613930000D+00  0.1000000000D+01
 Atom Pa1      Shell    24 D   1     bf   58 -    62          0.216680584408         -0.097731349308         -0.152380044071
      0.8281100000D-01  0.1000000000D+01
 Atom Pa1      Shell    25 F   5     bf   63 -    69          0.216680584408         -0.097731349308         -0.152380044071
      0.8799132700D+02  0.4766318191D-03
      0.2834019500D+02  0.4899184583D-02
      0.1244099400D+02  0.9669720755D-02
      0.3957296000D+01  0.3310292343D+00
      0.1875944000D+01  0.7275531640D+00
 Atom Pa1      Shell    26 F   1     bf   70 -    76          0.216680584408         -0.097731349308         -0.152380044071
      0.8275890000D+00  0.1000000000D+01
 Atom Pa1      Shell    27 F   1     bf   77 -    83          0.216680584408         -0.097731349308         -0.152380044071
      0.3327480000D+00  0.1000000000D+01
 Atom Pa1      Shell    28 F   1     bf   84 -    90          0.216680584408         -0.097731349308         -0.152380044071
      0.1146850000D+00  0.1000000000D+01
 Atom Pa1      Shell    29 G   1     bf   91 -    99          0.216680584408         -0.097731349308         -0.152380044071
      0.3500000000D+00  0.1000000000D+01
 Atom O2       Shell    30 S   6     bf  100 -   100          0.522976863910          0.357180035677          3.847379186269
      0.2703238263D+05  0.5722733521D-03
      0.4052387139D+04  0.4435323349D-02
      0.9223272271D+03  0.2302010771D-01
      0.2612407099D+03  0.9282249067D-01
      0.8535464135D+02  0.2937850001D+00
      0.3103503524D+02  0.6740160450D+00
 Atom O2       Shell    31 S   2     bf  101 -   101          0.522976863910          0.357180035677          3.847379186269
      0.1226086073D+02  0.6383993703D+00
      0.4998707601D+01  0.3953458713D+00
 Atom O2       Shell    32 S   1     bf  102 -   102          0.522976863910          0.357180035677          3.847379186269
      0.1170310816D+01  0.1000000000D+01
 Atom O2       Shell    33 S   1     bf  103 -   103          0.522976863910          0.357180035677          3.847379186269
      0.4647474099D+00  0.1000000000D+01
 Atom O2       Shell    34 S   1     bf  104 -   104          0.522976863910          0.357180035677          3.847379186269
      0.1850453636D+00  0.1000000000D+01
 Atom O2       Shell    35 P   4     bf  105 -   107          0.522976863910          0.357180035677          3.847379186269
      0.6327495480D+02  0.1201833222D-01
      0.1462704938D+02  0.8300542179D-01
      0.4450122346D+01  0.3199174393D+00
      0.1527579965D+01  0.7071554292D+00
 Atom O2       Shell    36 P   1     bf  108 -   110          0.522976863910          0.357180035677          3.847379186269
      0.5293511794D+00  0.1000000000D+01
 Atom O2       Shell    37 P   1     bf  111 -   113          0.522976863910          0.357180035677          3.847379186269
      0.1747842127D+00  0.1000000000D+01
 Atom O2       Shell    38 D   1     bf  114 -   118          0.522976863910          0.357180035677          3.847379186269
      0.2314000000D+01  0.1000000000D+01
 Atom O2       Shell    39 D   1     bf  119 -   123          0.522976863910          0.357180035677          3.847379186269
      0.6450000000D+00  0.1000000000D+01
 Atom O2       Shell    40 F   1     bf  124 -   130          0.522976863910          0.357180035677          3.847379186269
      0.1428000000D+01  0.1000000000D+01
 Atom O3       Shell    41 S   6     bf  131 -   131          0.535150853964          3.835524418196         -0.519068481699
      0.2703238263D+05  0.5722733521D-03
      0.4052387139D+04  0.4435323349D-02
      0.9223272271D+03  0.2302010771D-01
      0.2612407099D+03  0.9282249067D-01
      0.8535464135D+02  0.2937850001D+00
      0.3103503524D+02  0.6740160450D+00
 Atom O3       Shell    42 S   2     bf  132 -   132          0.535150853964          3.835524418196         -0.519068481699
      0.1226086073D+02  0.6383993703D+00
      0.4998707601D+01  0.3953458713D+00
 Atom O3       Shell    43 S   1     bf  133 -   133          0.535150853964          3.835524418196         -0.519068481699
      0.1170310816D+01  0.1000000000D+01
 Atom O3       Shell    44 S   1     bf  134 -   134          0.535150853964          3.835524418196         -0.519068481699
      0.4647474099D+00  0.1000000000D+01
 Atom O3       Shell    45 S   1     bf  135 -   135          0.535150853964          3.835524418196         -0.519068481699
      0.1850453636D+00  0.1000000000D+01
 Atom O3       Shell    46 P   4     bf  136 -   138          0.535150853964          3.835524418196         -0.519068481699
      0.6327495480D+02  0.1201833222D-01
      0.1462704938D+02  0.8300542179D-01
      0.4450122346D+01  0.3199174393D+00
      0.1527579965D+01  0.7071554292D+00
 Atom O3       Shell    47 P   1     bf  139 -   141          0.535150853964          3.835524418196         -0.519068481699
      0.5293511794D+00  0.1000000000D+01
 Atom O3       Shell    48 P   1     bf  142 -   144          0.535150853964          3.835524418196         -0.519068481699
      0.1747842127D+00  0.1000000000D+01
 Atom O3       Shell    49 D   1     bf  145 -   149          0.535150853964          3.835524418196         -0.519068481699
      0.2314000000D+01  0.1000000000D+01
 Atom O3       Shell    50 D   1     bf  150 -   154          0.535150853964          3.835524418196         -0.519068481699
      0.6450000000D+00  0.1000000000D+01
 Atom O3       Shell    51 F   1     bf  155 -   161          0.535150853964          3.835524418196         -0.519068481699
      0.1428000000D+01  0.1000000000D+01
 Atom Cl4      Shell    52 S   7     bf  162 -   162         -4.932316025497          0.028451625944         -0.432623742673
      0.6950799094D+05  0.5145738965D-03
      0.1042615688D+05  0.3978134481D-02
      0.2373233406D+04  0.2045617867D-01
      0.6715642007D+03  0.8014810289D-01
      0.2184199979D+03  0.2345477032D+00
      0.7757224971D+02  0.4454336858D+00
      0.2888881528D+02  0.3546684250D+00
 Atom Cl4      Shell    53 S   3     bf  163 -   163         -4.932316025497          0.028451625944         -0.432623742673
      0.1271052718D+03  0.1129368805D+00
      0.3933958296D+02  0.4837351421D+00
      0.7674067999D+01 -0.1229229739D+01
 Atom Cl4      Shell    54 S   2     bf  164 -   164         -4.932316025497          0.028451625944         -0.432623742673
      0.3874562763D+01  0.6729682164D+00
      0.1838583257D+01  0.3495605141D+00
 Atom Cl4      Shell    55 S   1     bf  165 -   165         -4.932316025497          0.028451625944         -0.432623742673
      0.5022905754D+00  0.1000000000D+01
 Atom Cl4      Shell    56 S   1     bf  166 -   166         -4.932316025497          0.028451625944         -0.432623742673
      0.1796272342D+00  0.1000000000D+01
 Atom Cl4      Shell    57 P   5     bf  167 -   169         -4.932316025497          0.028451625944         -0.432623742673
      0.6665042328D+03  0.3350250820D-02
      0.1576424169D+03  0.2676397041D-01
      0.5026252098D+02  0.1236268236D+00
      0.1853607811D+02  0.3584578792D+00
      0.7294053278D+01  0.6167729635D+00
 Atom Cl4      Shell    58 P   1     bf  170 -   172         -4.932316025497          0.028451625944         -0.432623742673
      0.2943324899D+01  0.1000000000D+01
 Atom Cl4      Shell    59 P   1     bf  173 -   175         -4.932316025497          0.028451625944         -0.432623742673
      0.1040497082D+01  0.1000000000D+01
 Atom Cl4      Shell    60 P   1     bf  176 -   178         -4.932316025497          0.028451625944         -0.432623742673
      0.3845641508D+00  0.1000000000D+01
 Atom Cl4      Shell    61 P   1     bf  179 -   181         -4.932316025497          0.028451625944         -0.432623742673
      0.1306964273D+00  0.1000000000D+01
 Atom Cl4      Shell    62 D   2     bf  182 -   186         -4.932316025497          0.028451625944         -0.432623742673
      0.4610000000D+01  0.1826583505D+00
      0.1011000000D+01  0.9132917523D+00
 Atom Cl4      Shell    63 D   1     bf  187 -   191         -4.932316025497          0.028451625944         -0.432623742673
      0.3390000000D+00  0.1000000000D+01
 Atom Cl4      Shell    64 F   1     bf  192 -   198         -4.932316025497          0.028451625944         -0.432623742673
      0.7060000000D+00  0.1000000000D+01
 Atom H5       Shell    65 S   3     bf  199 -   199          0.599521513364          5.211427239902          0.682053641329
      0.3406134100D+02  0.2543930721D-01
      0.5123574600D+01  0.1900859489D+00
      0.1164662600D+01  0.8524411301D+00
 Atom H5       Shell    66 S   1     bf  200 -   200          0.599521513364          5.211427239902          0.682053641329
      0.3272304100D+00  0.1000000000D+01
 Atom H5       Shell    67 S   1     bf  201 -   201          0.599521513364          5.211427239902          0.682053641329
      0.1030724100D+00  0.1000000000D+01
 Atom H5       Shell    68 P   1     bf  202 -   204          0.599521513364          5.211427239902          0.682053641329
      0.8000000000D+00  0.1000000000D+01
 Atom O6       Shell    69 S   6     bf  205 -   205          4.864317896183         -0.062576741651         -0.978405747245
      0.2703238263D+05  0.5722733521D-03
      0.4052387139D+04  0.4435323349D-02
      0.9223272271D+03  0.2302010771D-01
      0.2612407099D+03  0.9282249067D-01
      0.8535464135D+02  0.2937850001D+00
      0.3103503524D+02  0.6740160450D+00
 Atom O6       Shell    70 S   2     bf  206 -   206          4.864317896183         -0.062576741651         -0.978405747245
      0.1226086073D+02  0.6383993703D+00
      0.4998707601D+01  0.3953458713D+00
 Atom O6       Shell    71 S   1     bf  207 -   207          4.864317896183         -0.062576741651         -0.978405747245
      0.1170310816D+01  0.1000000000D+01
 Atom O6       Shell    72 S   1     bf  208 -   208          4.864317896183         -0.062576741651         -0.978405747245
      0.4647474099D+00  0.1000000000D+01
 Atom O6       Shell    73 S   1     bf  209 -   209          4.864317896183         -0.062576741651         -0.978405747245
      0.1850453636D+00  0.1000000000D+01
 Atom O6       Shell    74 P   4     bf  210 -   212          4.864317896183         -0.062576741651         -0.978405747245
      0.6327495480D+02  0.1201833222D-01
      0.1462704938D+02  0.8300542179D-01
      0.4450122346D+01  0.3199174393D+00
      0.1527579965D+01  0.7071554292D+00
 Atom O6       Shell    75 P   1     bf  213 -   215          4.864317896183         -0.062576741651         -0.978405747245
      0.5293511794D+00  0.1000000000D+01
 Atom O6       Shell    76 P   1     bf  216 -   218          4.864317896183         -0.062576741651         -0.978405747245
      0.1747842127D+00  0.1000000000D+01
 Atom O6       Shell    77 D   1     bf  219 -   223          4.864317896183         -0.062576741651         -0.978405747245
      0.2314000000D+01  0.1000000000D+01
 Atom O6       Shell    78 D   1     bf  224 -   228          4.864317896183         -0.062576741651         -0.978405747245
      0.6450000000D+00  0.1000000000D+01
 Atom O6       Shell    79 F   1     bf  229 -   235          4.864317896183         -0.062576741651         -0.978405747245
      0.1428000000D+01  0.1000000000D+01
 Atom H7       Shell    80 S   3     bf  236 -   236          5.926040260291          1.417275813941         -1.109538698058
      0.3406134100D+02  0.2543930721D-01
      0.5123574600D+01  0.1900859489D+00
      0.1164662600D+01  0.8524411301D+00
 Atom H7       Shell    81 S   1     bf  237 -   237          5.926040260291          1.417275813941         -1.109538698058
      0.3272304100D+00  0.1000000000D+01
 Atom H7       Shell    82 S   1     bf  238 -   238          5.926040260291          1.417275813941         -1.109538698058
      0.1030724100D+00  0.1000000000D+01
 Atom H7       Shell    83 P   1     bf  239 -   241          5.926040260291          1.417275813941         -1.109538698058
      0.8000000000D+00  0.1000000000D+01
 Atom H8       Shell    84 S   3     bf  242 -   242          5.964015429087         -1.519521610875         -0.940610328514
      0.3406134100D+02  0.2543930721D-01
      0.5123574600D+01  0.1900859489D+00
      0.1164662600D+01  0.8524411301D+00
 Atom H8       Shell    85 S   1     bf  243 -   243          5.964015429087         -1.519521610875         -0.940610328514
      0.3272304100D+00  0.1000000000D+01
 Atom H8       Shell    86 S   1     bf  244 -   244          5.964015429087         -1.519521610875         -0.940610328514
      0.1030724100D+00  0.1000000000D+01
 Atom H8       Shell    87 P   1     bf  245 -   247          5.964015429087         -1.519521610875         -0.940610328514
      0.8000000000D+00  0.1000000000D+01
 Atom H9       Shell    88 S   3     bf  248 -   248          0.646151775419         -0.951763590420          5.110043790167
      0.3406134100D+02  0.2543930721D-01
      0.5123574600D+01  0.1900859489D+00
      0.1164662600D+01  0.8524411301D+00
 Atom H9       Shell    89 S   1     bf  249 -   249          0.646151775419         -0.951763590420          5.110043790167
      0.3272304100D+00  0.1000000000D+01
 Atom H9       Shell    90 S   1     bf  250 -   250          0.646151775419         -0.951763590420          5.110043790167
      0.1030724100D+00  0.1000000000D+01
 Atom H9       Shell    91 P   1     bf  251 -   253          0.646151775419         -0.951763590420          5.110043790167
      0.8000000000D+00  0.1000000000D+01
 Atom O10      Shell    92 S   6     bf  254 -   254          0.452018170210         -3.598570550545         -0.165000053453
      0.2703238263D+05  0.5722733521D-03
      0.4052387139D+04  0.4435323349D-02
      0.9223272271D+03  0.2302010771D-01
      0.2612407099D+03  0.9282249067D-01
      0.8535464135D+02  0.2937850001D+00
      0.3103503524D+02  0.6740160450D+00
 Atom O10      Shell    93 S   2     bf  255 -   255          0.452018170210         -3.598570550545         -0.165000053453
      0.1226086073D+02  0.6383993703D+00
      0.4998707601D+01  0.3953458713D+00
 Atom O10      Shell    94 S   1     bf  256 -   256          0.452018170210         -3.598570550545         -0.165000053453
      0.1170310816D+01  0.1000000000D+01
 Atom O10      Shell    95 S   1     bf  257 -   257          0.452018170210         -3.598570550545         -0.165000053453
      0.4647474099D+00  0.1000000000D+01
 Atom O10      Shell    96 S   1     bf  258 -   258          0.452018170210         -3.598570550545         -0.165000053453
      0.1850453636D+00  0.1000000000D+01
 Atom O10      Shell    97 P   4     bf  259 -   261          0.452018170210         -3.598570550545         -0.165000053453
      0.6327495480D+02  0.1201833222D-01
      0.1462704938D+02  0.8300542179D-01
      0.4450122346D+01  0.3199174393D+00
      0.1527579965D+01  0.7071554292D+00
 Atom O10      Shell    98 P   1     bf  262 -   264          0.452018170210         -3.598570550545         -0.165000053453
      0.5293511794D+00  0.1000000000D+01
 Atom O10      Shell    99 P   1     bf  265 -   267          0.452018170210         -3.598570550545         -0.165000053453
      0.1747842127D+00  0.1000000000D+01
 Atom O10      Shell   100 D   1     bf  268 -   272          0.452018170210         -3.598570550545         -0.165000053453
      0.2314000000D+01  0.1000000000D+01
 Atom O10      Shell   101 D   1     bf  273 -   277          0.452018170210         -3.598570550545         -0.165000053453
      0.6450000000D+00  0.1000000000D+01
 Atom O10      Shell   102 F   1     bf  278 -   284          0.452018170210         -3.598570550545         -0.165000053453
      0.1428000000D+01  0.1000000000D+01
 Effective core potential in the form of general ECP input:
      1 0
 Pa1-ECP   5 60
 H component
  1
  2        1.0000000        0.00000000    0.00000000
 S-H projection
  1
  2       15.2691737      475.47573283    0.00000000
 P-H projection
  1
  2        9.9577370      207.66485962    0.00000000
 D-H projection
  1
  2        8.9431413      156.67411988    0.00000000
 F-H projection
  1
  2        7.0104666       67.98223685    0.00000000
 G-H projection
  1
  2       12.2010560      -57.63059989    0.00000000
 
 There are   332 symmetry adapted cartesian basis functions of A   symmetry.
 There are   284 symmetry adapted basis functions of A   symmetry.
   284 basis functions,   513 primitive gaussians,   332 cartesian basis functions
    42 alpha electrons       42 beta electrons
       nuclear repulsion energy       549.3784618691 Hartrees.
 IExCor=  404 DFT=T Ex=B Corr=P86 ExCW=0 ScaHFX=  0.000000
 ScaDFX=  1.000000  1.000000  1.000000  1.000000 ScalE2=  1.000000  1.000000
 IRadAn=      5 IRanWt=     -1 IRanGd=            0 ICorTp=0 IEmpDi=  4
 NAtoms=   10 NActive=   10 NUniq=   10 SFac= 1.00D+00 NAtFMM=   60 NAOKFM=F Big=F
 Integral buffers will be    131072 words long.
 Raffenetti 2 integral format.
 Two-electron integral symmetry is turned on.
 Warning! Using old PCM defaults because the COSMOthermo output has been requested.
 These settings can be overridden by following keywords.
 ------------------------------------------------------------------------------
 Polarizable Continuum Model (PCM)
 =================================
 Model                : C-PCM.
 Atomic radii         : Klamt.
 XCosmo               : -1.000 (infinite dielectric limit)
 Polarization charges : Electronic and nuclear charges.
 Charge compensation  : Type 3 (Electronic density weighted correction).
 Solution method      : On-the-fly selection.
 Cavity type          : VdW (van der Waals Surface) (Alpha=1.000).
 Cavity algorithm     : GePol (No added spheres)
                        Default sphere list used, NSphG=   10.
                        Tesserae with average area of 0.200 Ang**2.
                        Smoothing algorithm: None.
                        Polarization charges: point-like.
                        Self-potential: constant (ISelfS= 1).
                        Self-field    : global E.n sum rule (ISelfD= 3).
 Solvent              : Water, Eps=  78.355300 Eps(inf)=   1.777849
 ------------------------------------------------------------------------------
 Spheres list:
 ISph  on   Nord     Re0    Alpha      Xe            Ye            Ze
    1  Pa      1    2.0000  1.170      0.114662     -0.051717     -0.080636
    2   O      2    1.7200  1.000      0.276747      0.189012      2.035945
    3   O      3    1.7200  1.000      0.283190      2.029672     -0.274679
    4  Cl      4    2.0500  1.000     -2.610069      0.015056     -0.228935
    5   H      5    1.3000  1.000      0.317253      2.757769      0.360927
    6   O      6    1.7200  1.000      2.574086     -0.033114     -0.517750
    7   H      7    1.3000  1.000      3.135925      0.749990     -0.587143
    8   H      8    1.3000  1.000      3.156021     -0.804096     -0.497750
    9   H      9    1.3000  1.000      0.341929     -0.503652      2.704119
   10   O     10    1.7200  1.000      0.239198     -1.904282     -0.087314
 ------------------------------------------------------------------------------
 GePol: Number of generator spheres                  =      10
 GePol: Total number of spheres                      =      10
 GePol: Number of exposed spheres                    =      10 (100.00%)
 GePol: Number of tesserae                           =    1036
 GePol: Average area of tesserae                     =       0.16 Ang**2
 GePol: Minimum area of tessera                      =   0.12D-02 Ang**2
 GePol: Maximum area of tessera                      =    0.35817 Ang**2
 GePol: Number of small tesserae                     =       4
 GePol: Fraction of small tesserae (<1% of avg)      =       0.39%
 GePol: Total count of vertices                      =    3419
 GePol: Maximum number of vertices in a tessera      =       6
 GePol: Cavity surface area                          =    165.923 Ang**2
 GePol: Cavity volume                                =    137.469 Ang**3
 DisRep: Neglecting contributions from atom    1 of solute.
 Leave Link  301 at Tue Jul  4 10:45:30 2023, MaxMem=  2147483648 cpu:               1.0 elap:               0.2
 (Enter /home/pcmt/gaussian/g16.C.01/g16/l302.exe)
 NPDir=0 NMtPBC=     1 NCelOv=     1 NCel=       1 NClECP=     1 NCelD=      1
         NCelK=      1 NCelE2=     1 NClLst=     1 CellRange=     0.0.
 One-electron integrals computed using PRISM.
 One-electron integral symmetry used in STVInt
   1 Symmetry operations used in ECPInt.
 ECPInt:  NShTT=    5253 NPrTT=   15930 LenC2=    5008 LenP2D=   11548.
 LDataN:  DoStor=T MaxTD1= 9 Len=  602
 NBasis=   284 RedAO= T EigKep=  6.33D-04  NBF=   284
 NBsUse=   284 1.00D-06 EigRej= -1.00D+00 NBFU=   284
 Precomputing XC quadrature grid using
 IXCGrd= 4 IRadAn=           5 IRanWt=          -1 IRanGd=           0 AccXCQ= 0.00D+00.
 Defaulting to unpruned grid for atomic number  91.
 Generated NRdTot=       0 NPtTot=           0 NUsed=           0 NTot=          32
 NSgBfM=   327   327   327   327   327 MxSgAt=    10 MxSgA2=    10.
 Leave Link  302 at Tue Jul  4 10:45:31 2023, MaxMem=  2147483648 cpu:               6.3 elap:               0.9
 (Enter /home/pcmt/gaussian/g16.C.01/g16/l303.exe)
 DipDrv:  MaxL=1.
 Leave Link  303 at Tue Jul  4 10:45:31 2023, MaxMem=  2147483648 cpu:               0.4 elap:               0.1
 (Enter /home/pcmt/gaussian/g16.C.01/g16/l401.exe)
 ExpMin= 2.32D-02 ExpMax= 6.95D+04 ExpMxC= 1.20D+04 IAcc=3 IRadAn=         5 AccDes= 0.00D+00
 Harris functional with IExCor=  404 and IRadAn=       5 diagonalized for initial guess.
 HarFok:  IExCor=  404 AccDes= 0.00D+00 IRadAn=         5 IDoV= 1 UseB2=F ITyADJ=14
 ICtDFT=  3500011 ScaDFX=  1.000000  1.000000  1.000000  1.000000
 Defaulting to unpruned grid for atomic number  91.
 FoFCou: FMM=F IPFlag=           0 FMFlag=      100000 FMFlg1=           0
         NFxFlg=           0 DoJE=T BraDBF=F KetDBF=T FulRan=T
         wScrn=  0.000000 ICntrl=       500 IOpCl=  0 I1Cent=   200000004 NGrid=           0
         NMat0=    1 NMatS0=      1 NMatT0=    0 NMatD0=    1 NMtDS0=    0 NMtDT0=    0
 Petite list used in FoFCou.
 Harris En= -1206.97897322441    
 JPrj=0 DoOrth=F DoCkMO=F.
 Leave Link  401 at Tue Jul  4 10:45:33 2023, MaxMem=  2147483648 cpu:              15.1 elap:               1.9
 (Enter /home/pcmt/gaussian/g16.C.01/g16/l502.exe)
 Keep J ints in memory in canonical form, NReq=837395215.
 FoFCou: FMM=F IPFlag=           0 FMFlag=           0 FMFlg1=           0
         NFxFlg=           0 DoJE=F BraDBF=F KetDBF=F FulRan=T
         wScrn=  0.000000 ICntrl=       600 IOpCl=  0 I1Cent=           0 NGrid=           0
         NMat0=    1 NMatS0=  40470 NMatT0=    0 NMatD0=    1 NMtDS0=    0 NMtDT0=    0
 Symmetry not used in FoFCou.
 Two-electron integral symmetry not used.
 Closed shell SCF:
 Using DIIS extrapolation, IDIIS=  1040.
 NGot=  2147483648 LenX=  1328326775 LenY=  1328216110
 Requested convergence on RMS density matrix=1.00D-08 within 100 cycles.
 Requested convergence on MAX density matrix=1.00D-06.
 Requested convergence on             energy=1.00D-06.
 No special actions if energy rises.

 Cycle   1  Pass 1  IDiag  1:
 Defaulting to unpruned grid for atomic number  91.
 Defaulting to unpruned grid for atomic number  91.
 Defaulting to unpruned grid for atomic number  91.
 Defaulting to unpruned grid for atomic number  91.
 Defaulting to unpruned grid for atomic number  91.
 Defaulting to unpruned grid for atomic number  91.
 Defaulting to unpruned grid for atomic number  91.
 Defaulting to unpruned grid for atomic number  91.
 Inv3:  Mode=1 IEnd=     3219888.
 Iteration    1 A*A^-1 deviation from unit magnitude is 5.44D-15 for    732.
 Iteration    1 A*A^-1 deviation from orthogonality  is 1.72D-15 for   1035   1015.
 Iteration    1 A^-1*A deviation from unit magnitude is 5.44D-15 for    732.
 Iteration    1 A^-1*A deviation from orthogonality  is 2.21D-15 for   1035   1015.
 E= -1204.67792683403    
 DIIS: error= 4.82D-02 at cycle   1 NSaved=   1.
 NSaved= 1 IEnMin= 1 EnMin= -1204.67792683403     IErMin= 1 ErrMin= 4.82D-02
 ErrMax= 4.82D-02  0.00D+00 EMaxC= 1.00D-01 BMatC= 1.45D+00 BMatP= 1.45D+00
 IDIUse=3 WtCom= 5.18D-01 WtEn= 4.82D-01
 Coeff-Com:  0.100D+01
 Coeff-En:   0.100D+01
 Coeff:      0.100D+01
 Gap=     0.196 Goal=   None    Shift=    0.000
 GapD=    0.196 DampG=1.000 DampE=0.250 DampFc=0.2500 IDamp=-1.
 Damping current iteration by 2.50D-01
 RMSDP=1.30D-02 MaxDP=1.18D+00              OVMax= 9.98D-01

 Cycle   2  Pass 1  IDiag  1:
 E= -1202.79285741675     Delta-E=        1.885069417282 Rises=F Damp=T
 DIIS: error= 3.82D-02 at cycle   2 NSaved=   2.
 NSaved= 2 IEnMin= 1 EnMin= -1204.67792683403     IErMin= 2 ErrMin= 3.82D-02
 ErrMax= 3.82D-02  0.00D+00 EMaxC= 1.00D-01 BMatC= 1.22D+00 BMatP= 1.45D+00
 IDIUse=3 WtCom= 6.18D-01 WtEn= 3.82D-01
 Coeff-Com:  0.474D+00 0.526D+00
 Coeff-En:   0.731D+00 0.269D+00
 Coeff:      0.572D+00 0.428D+00
 Gap=    -0.038 Goal=   None    Shift=    0.000
 RMSDP=3.89D-03 MaxDP=1.39D-01 DE= 1.89D+00 OVMax= 9.43D-01

 Cycle   3  Pass 1  IDiag  1:
 E= -1205.04104881968     Delta-E=       -2.248191402931 Rises=F Damp=F
 DIIS: error= 5.03D-02 at cycle   3 NSaved=   3.
 NSaved= 3 IEnMin= 3 EnMin= -1205.04104881968     IErMin= 2 ErrMin= 3.82D-02
 ErrMax= 5.03D-02  0.00D+00 EMaxC= 1.00D-01 BMatC= 7.62D-01 BMatP= 1.22D+00
 IDIUse=3 WtCom= 4.97D-01 WtEn= 5.03D-01
 EnCoef did     2 forward-backward iterations
 Coeff-Com:  0.307D+00 0.353D+00 0.340D+00
 Coeff-En:   0.363D+00 0.920D-01 0.545D+00
 Coeff:      0.335D+00 0.222D+00 0.443D+00
 Gap=     0.252 Goal=   None    Shift=    0.000
 RMSDP=3.96D-03 MaxDP=2.72D-01 DE=-2.25D+00 OVMax= 2.40D-01

 Cycle   4  Pass 1  IDiag  1:
 E= -1205.58413103334     Delta-E=       -0.543082213660 Rises=F Damp=F
 DIIS: error= 1.28D-02 at cycle   4 NSaved=   4.
 NSaved= 4 IEnMin= 4 EnMin= -1205.58413103334     IErMin= 4 ErrMin= 1.28D-02
 ErrMax= 1.28D-02  0.00D+00 EMaxC= 1.00D-01 BMatC= 1.01D-01 BMatP= 7.62D-01
 IDIUse=3 WtCom= 8.72D-01 WtEn= 1.28D-01
 Coeff-Com:  0.119D+00 0.568D-01 0.238D+00 0.586D+00
 Coeff-En:   0.000D+00 0.000D+00 0.105D+00 0.895D+00
 Coeff:      0.104D+00 0.496D-01 0.222D+00 0.625D+00
 Gap=     0.185 Goal=   None    Shift=    0.000
 RMSDP=1.37D-03 MaxDP=9.78D-02 DE=-5.43D-01 OVMax= 1.12D-01

 Cycle   5  Pass 1  IDiag  1:
 E= -1205.61966707168     Delta-E=       -0.035536038342 Rises=F Damp=F
 DIIS: error= 9.18D-03 at cycle   5 NSaved=   5.
 NSaved= 5 IEnMin= 5 EnMin= -1205.61966707168     IErMin= 5 ErrMin= 9.18D-03
 ErrMax= 9.18D-03  0.00D+00 EMaxC= 1.00D-01 BMatC= 5.69D-02 BMatP= 1.01D-01
 IDIUse=3 WtCom= 9.08D-01 WtEn= 9.18D-02
 Coeff-Com:  0.128D-01 0.225D-02 0.111D+00 0.473D+00 0.401D+00
 Coeff-En:   0.000D+00 0.000D+00 0.000D+00 0.386D+00 0.614D+00
 Coeff:      0.116D-01 0.204D-02 0.100D+00 0.465D+00 0.421D+00
 Gap=     0.141 Goal=   None    Shift=    0.000
 RMSDP=6.41D-04 MaxDP=4.11D-02 DE=-3.55D-02 OVMax= 5.60D-02

 Cycle   6  Pass 1  IDiag  1:
 E= -1205.66164720642     Delta-E=       -0.041980134733 Rises=F Damp=F
 DIIS: error= 3.41D-03 at cycle   6 NSaved=   6.
 NSaved= 6 IEnMin= 6 EnMin= -1205.66164720642     IErMin= 6 ErrMin= 3.41D-03
 ErrMax= 3.41D-03  0.00D+00 EMaxC= 1.00D-01 BMatC= 4.91D-03 BMatP= 5.69D-02
 IDIUse=3 WtCom= 9.66D-01 WtEn= 3.41D-02
 Coeff-Com:  0.823D-03-0.284D-02 0.799D-02 0.121D+00 0.251D+00 0.621D+00
 Coeff-En:   0.000D+00 0.000D+00 0.000D+00 0.000D+00 0.697D-01 0.930D+00
 Coeff:      0.795D-03-0.274D-02 0.772D-02 0.117D+00 0.245D+00 0.632D+00
 Gap=     0.132 Goal=   None    Shift=    0.000
 RMSDP=2.29D-04 MaxDP=1.06D-02 DE=-4.20D-02 OVMax= 1.63D-02

 Cycle   7  Pass 1  IDiag  1:
 E= -1205.66517547222     Delta-E=       -0.003528265802 Rises=F Damp=F
 DIIS: error= 1.86D-03 at cycle   7 NSaved=   7.
 NSaved= 7 IEnMin= 7 EnMin= -1205.66517547222     IErMin= 7 ErrMin= 1.86D-03
 ErrMax= 1.86D-03  0.00D+00 EMaxC= 1.00D-01 BMatC= 1.49D-03 BMatP= 4.91D-03
 IDIUse=3 WtCom= 9.81D-01 WtEn= 1.86D-02
 Coeff-Com:  0.230D-02-0.504D-02-0.159D-01-0.251D-01 0.769D-01 0.446D+00
 Coeff-Com:  0.521D+00
 Coeff-En:   0.000D+00 0.000D+00 0.000D+00 0.000D+00 0.000D+00 0.355D-01
 Coeff-En:   0.965D+00
 Coeff:      0.226D-02-0.494D-02-0.156D-01-0.246D-01 0.755D-01 0.439D+00
 Coeff:      0.529D+00
 Gap=     0.133 Goal=   None    Shift=    0.000
 RMSDP=1.66D-04 MaxDP=9.48D-03 DE=-3.53D-03 OVMax= 1.27D-02

 Cycle   8  Pass 1  IDiag  1:
 E= -1205.66687802770     Delta-E=       -0.001702555484 Rises=F Damp=F
 DIIS: error= 1.37D-03 at cycle   8 NSaved=   8.
 NSaved= 8 IEnMin= 8 EnMin= -1205.66687802770     IErMin= 8 ErrMin= 1.37D-03
 ErrMax= 1.37D-03  0.00D+00 EMaxC= 1.00D-01 BMatC= 1.02D-03 BMatP= 1.49D-03
 IDIUse=3 WtCom= 9.86D-01 WtEn= 1.37D-02
 Coeff-Com:  0.820D-02-0.446D-02-0.127D-01-0.531D-01 0.150D-01 0.261D+00
 Coeff-Com:  0.347D+00 0.439D+00
 Coeff-En:   0.000D+00 0.000D+00 0.000D+00 0.000D+00 0.000D+00 0.000D+00
 Coeff-En:   0.000D+00 0.100D+01
 Coeff:      0.808D-02-0.440D-02-0.125D-01-0.523D-01 0.148D-01 0.257D+00
 Coeff:      0.342D+00 0.447D+00
 Gap=     0.132 Goal=   None    Shift=    0.000
 RMSDP=1.20D-04 MaxDP=7.62D-03 DE=-1.70D-03 OVMax= 1.04D-02

 Cycle   9  Pass 1  IDiag  1:
 E= -1205.66764391937     Delta-E=       -0.000765891670 Rises=F Damp=F
 DIIS: error= 1.49D-03 at cycle   9 NSaved=   9.
 NSaved= 9 IEnMin= 9 EnMin= -1205.66764391937     IErMin= 8 ErrMin= 1.37D-03
 ErrMax= 1.49D-03  0.00D+00 EMaxC= 1.00D-01 BMatC= 1.31D-03 BMatP= 1.02D-03
 IDIUse=3 WtCom= 9.86D-01 WtEn= 1.37D-02
 Coeff-Com:  0.130D-01-0.366D-02-0.105D-01-0.658D-01-0.253D-02 0.222D+00
 Coeff-Com:  0.264D+00 0.677D-03 0.582D+00
 Coeff-En:   0.000D+00 0.000D+00 0.000D+00 0.000D+00 0.000D+00 0.000D+00
 Coeff-En:   0.000D+00 0.000D+00 0.100D+01
 Coeff:      0.128D-01-0.361D-02-0.104D-01-0.649D-01-0.249D-02 0.219D+00
 Coeff:      0.260D+00 0.668D-03 0.588D+00
 Gap=     0.131 Goal=   None    Shift=    0.000
 RMSDP=7.57D-05 MaxDP=4.62D-03 DE=-7.66D-04 OVMax= 7.56D-03

 Cycle  10  Pass 1  IDiag  1:
 E= -1205.66803175651     Delta-E=       -0.000387837136 Rises=F Damp=F
 DIIS: error= 1.72D-03 at cycle  10 NSaved=  10.
 NSaved=10 IEnMin=10 EnMin= -1205.66803175651     IErMin= 8 ErrMin= 1.37D-03
 ErrMax= 1.72D-03  0.00D+00 EMaxC= 1.00D-01 BMatC= 1.30D-03 BMatP= 1.02D-03
 IDIUse=3 WtCom= 9.86D-01 WtEn= 1.37D-02
 Coeff-Com:  0.984D-02-0.490D-02-0.101D-01-0.179D-01 0.935D-01 0.510D+00
 Coeff-Com:  0.460D+00-0.148D+01-0.277D+00 0.172D+01
 Coeff-En:   0.000D+00 0.000D+00 0.000D+00 0.000D+00 0.000D+00 0.000D+00
 Coeff-En:   0.000D+00 0.000D+00 0.000D+00 0.100D+01
 Coeff:      0.971D-02-0.484D-02-0.999D-02-0.177D-01 0.922D-01 0.503D+00
 Coeff:      0.454D+00-0.146D+01-0.273D+00 0.171D+01
 Gap=     0.138 Goal=   None    Shift=    0.000
 RMSDP=2.07D-04 MaxDP=1.76D-02 DE=-3.88D-04 OVMax= 1.45D-02

 Cycle  11  Pass 1  IDiag  1:
 E= -1205.66734422038     Delta-E=        0.000687536123 Rises=F Damp=F
 DIIS: error= 6.58D-04 at cycle  11 NSaved=  11.
 NSaved=11 IEnMin=10 EnMin= -1205.66803175651     IErMin=11 ErrMin= 6.58D-04
 ErrMax= 6.58D-04  0.00D+00 EMaxC= 1.00D-01 BMatC= 3.95D-04 BMatP= 1.02D-03
 IDIUse=3 WtCom= 9.93D-01 WtEn= 6.58D-03
 Rare condition: small coef for last iteration:  0.000D+00
 Coeff-Com:  0.645D-02-0.395D-02-0.116D-02-0.831D-02 0.261D-01 0.102D+00
 Coeff-Com: -0.162D-01-0.145D+01-0.146D+00 0.180D+01 0.693D+00
 Coeff-En:   0.000D+00 0.000D+00 0.000D+00 0.000D+00 0.000D+00 0.000D+00
 Coeff-En:   0.000D+00 0.000D+00 0.893D+00 0.000D+00 0.107D+00
 Coeff:      0.645D-02-0.395D-02-0.116D-02-0.831D-02 0.261D-01 0.102D+00
 Coeff:     -0.162D-01-0.145D+01-0.146D+00 0.180D+01 0.693D+00
 Gap=     0.136 Goal=   None    Shift=    0.000
 RMSDP=3.42D-04 MaxDP=2.03D-02 DE= 6.88D-04 OVMax= 3.43D-02

 Cycle  12  Pass 1  IDiag  1:
 E= -1205.66850055723     Delta-E=       -0.001156336849 Rises=F Damp=F
 DIIS: error= 6.03D-04 at cycle  12 NSaved=  12.
 NSaved=12 IEnMin=12 EnMin= -1205.66850055723     IErMin=12 ErrMin= 6.03D-04
 ErrMax= 6.03D-04  0.00D+00 EMaxC= 1.00D-01 BMatC= 2.90D-04 BMatP= 3.95D-04
 IDIUse=3 WtCom= 9.94D-01 WtEn= 6.03D-03
 Coeff-Com:  0.110D-02-0.740D-03-0.189D-02-0.544D-02 0.176D-01 0.489D-01
 Coeff-Com:  0.529D-01-0.494D-01-0.316D+00 0.325D+00 0.400D+00 0.528D+00
 Coeff-En:   0.000D+00 0.000D+00 0.000D+00 0.000D+00 0.000D+00 0.000D+00
 Coeff-En:   0.000D+00 0.000D+00 0.000D+00 0.103D+00 0.000D+00 0.897D+00
 Coeff:      0.109D-02-0.735D-03-0.188D-02-0.541D-02 0.175D-01 0.486D-01
 Coeff:      0.526D-01-0.491D-01-0.314D+00 0.323D+00 0.397D+00 0.531D+00
 Gap=     0.147 Goal=   None    Shift=    0.000
 RMSDP=1.87D-04 MaxDP=1.08D-02 DE=-1.16D-03 OVMax= 1.82D-02

 Cycle  13  Pass 1  IDiag  1:
 E= -1205.66849781543     Delta-E=        0.000002741804 Rises=F Damp=F
 DIIS: error= 3.99D-04 at cycle  13 NSaved=  13.
 NSaved=13 IEnMin=12 EnMin= -1205.66850055723     IErMin=13 ErrMin= 3.99D-04
 ErrMax= 3.99D-04  0.00D+00 EMaxC= 1.00D-01 BMatC= 1.18D-04 BMatP= 2.90D-04
 IDIUse=3 WtCom= 9.96D-01 WtEn= 3.99D-03
 Coeff-Com:  0.107D-02-0.421D-03-0.825D-04-0.592D-02-0.950D-03-0.225D-01
 Coeff-Com: -0.258D-01-0.801D-01-0.549D-01 0.178D+00 0.194D+00 0.421D+00
 Coeff-Com:  0.396D+00
 Coeff-En:   0.000D+00 0.000D+00 0.000D+00 0.000D+00 0.000D+00 0.000D+00
 Coeff-En:   0.000D+00 0.000D+00 0.000D+00 0.000D+00 0.000D+00 0.502D+00
 Coeff-En:   0.498D+00
 Coeff:      0.107D-02-0.419D-03-0.822D-04-0.590D-02-0.946D-03-0.224D-01
 Coeff:     -0.257D-01-0.798D-01-0.547D-01 0.177D+00 0.193D+00 0.422D+00
 Coeff:      0.397D+00
 Gap=     0.132 Goal=   None    Shift=    0.000
 RMSDP=1.20D-04 MaxDP=6.97D-03 DE= 2.74D-06 OVMax= 1.17D-02

 Cycle  14  Pass 1  IDiag  1:
 E= -1205.66878257395     Delta-E=       -0.000284758522 Rises=F Damp=F
 DIIS: error= 2.26D-04 at cycle  14 NSaved=  14.
 NSaved=14 IEnMin=14 EnMin= -1205.66878257395     IErMin=14 ErrMin= 2.26D-04
 ErrMax= 2.26D-04  0.00D+00 EMaxC= 1.00D-01 BMatC= 3.95D-05 BMatP= 1.18D-04
 IDIUse=3 WtCom= 9.98D-01 WtEn= 2.26D-03
 Coeff-Com: -0.184D-03-0.191D-03 0.362D-03 0.131D-04-0.220D-02-0.209D-01
 Coeff-Com: -0.126D-01 0.334D-01-0.135D-01-0.698D-01-0.509D-02 0.174D+00
 Coeff-Com:  0.417D+00 0.500D+00
 Coeff-En:   0.000D+00 0.000D+00 0.000D+00 0.000D+00 0.000D+00 0.000D+00
 Coeff-En:   0.000D+00 0.000D+00 0.000D+00 0.000D+00 0.000D+00 0.000D+00
 Coeff-En:   0.000D+00 0.100D+01
 Coeff:     -0.183D-03-0.191D-03 0.361D-03 0.130D-04-0.219D-02-0.209D-01
 Coeff:     -0.126D-01 0.333D-01-0.135D-01-0.696D-01-0.508D-02 0.174D+00
 Coeff:      0.416D+00 0.501D+00
 Gap=     0.129 Goal=   None    Shift=    0.000
 RMSDP=7.09D-06 MaxDP=8.13D-04 DE=-2.85D-04 OVMax= 4.34D-04

 Cycle  15  Pass 1  IDiag  1:
 E= -1205.66879411504     Delta-E=       -0.000011541085 Rises=F Damp=F
 DIIS: error= 1.38D-04 at cycle  15 NSaved=  15.
 NSaved=15 IEnMin=15 EnMin= -1205.66879411504     IErMin=15 ErrMin= 1.38D-04
 ErrMax= 1.38D-04  0.00D+00 EMaxC= 1.00D-01 BMatC= 1.23D-05 BMatP= 3.95D-05
 IDIUse=3 WtCom= 9.99D-01 WtEn= 1.38D-03
 Coeff-Com: -0.131D-03-0.358D-04 0.167D-03 0.191D-03-0.164D-02-0.956D-02
 Coeff-Com: -0.373D-02 0.368D-01-0.150D-01-0.691D-01-0.134D-01 0.255D-01
 Coeff-Com:  0.236D+00 0.133D+00 0.681D+00
 Coeff-En:   0.000D+00 0.000D+00 0.000D+00 0.000D+00 0.000D+00 0.000D+00
 Coeff-En:   0.000D+00 0.000D+00 0.000D+00 0.000D+00 0.000D+00 0.000D+00
 Coeff-En:   0.000D+00 0.000D+00 0.100D+01
 Coeff:     -0.131D-03-0.357D-04 0.167D-03 0.190D-03-0.164D-02-0.955D-02
 Coeff:     -0.372D-02 0.368D-01-0.150D-01-0.690D-01-0.134D-01 0.254D-01
 Coeff:      0.236D+00 0.132D+00 0.682D+00
 Gap=     0.130 Goal=   None    Shift=    0.000
 RMSDP=1.05D-05 MaxDP=7.37D-04 DE=-1.15D-05 OVMax= 9.73D-04

 Cycle  16  Pass 1  IDiag  1:
 E= -1205.66880171704     Delta-E=       -0.000007602004 Rises=F Damp=F
 DIIS: error= 4.56D-05 at cycle  16 NSaved=  16.
 NSaved=16 IEnMin=16 EnMin= -1205.66880171704     IErMin=16 ErrMin= 4.56D-05
 ErrMax= 4.56D-05  0.00D+00 EMaxC= 1.00D-01 BMatC= 1.14D-06 BMatP= 1.23D-05
 IDIUse=1 WtCom= 1.00D+00 WtEn= 0.00D+00
 Coeff-Com: -0.717D-04 0.153D-04 0.610D-04 0.227D-03-0.525D-03-0.205D-02
 Coeff-Com: -0.715D-03 0.112D-01-0.133D-01-0.236D-01-0.224D-02-0.214D-01
 Coeff-Com:  0.782D-01-0.390D-01 0.364D+00 0.649D+00
 Coeff:     -0.717D-04 0.153D-04 0.610D-04 0.227D-03-0.525D-03-0.205D-02
 Coeff:     -0.715D-03 0.112D-01-0.133D-01-0.236D-01-0.224D-02-0.214D-01
 Coeff:      0.782D-01-0.390D-01 0.364D+00 0.649D+00
 Gap=     0.130 Goal=   None    Shift=    0.000
 RMSDP=3.68D-06 MaxDP=3.39D-04 DE=-7.60D-06 OVMax= 2.95D-04

 Cycle  17  Pass 1  IDiag  1:
 E= -1205.66880221484     Delta-E=       -0.000000497802 Rises=F Damp=F
 DIIS: error= 4.81D-06 at cycle  17 NSaved=  17.
 NSaved=17 IEnMin=17 EnMin= -1205.66880221484     IErMin=17 ErrMin= 4.81D-06
 ErrMax= 4.81D-06  0.00D+00 EMaxC= 1.00D-01 BMatC= 7.83D-09 BMatP= 1.14D-06
 IDIUse=1 WtCom= 1.00D+00 WtEn= 0.00D+00
 Coeff-Com: -0.201D-04 0.150D-04-0.158D-04 0.708D-04 0.278D-03 0.110D-02
 Coeff-Com:  0.311D-03-0.576D-02-0.579D-02 0.100D-01 0.468D-02-0.134D-02
 Coeff-Com: -0.685D-02-0.131D-01-0.225D-01 0.628D-01 0.976D+00
 Coeff:     -0.201D-04 0.150D-04-0.158D-04 0.708D-04 0.278D-03 0.110D-02
 Coeff:      0.311D-03-0.576D-02-0.579D-02 0.100D-01 0.468D-02-0.134D-02
 Coeff:     -0.685D-02-0.131D-01-0.225D-01 0.628D-01 0.976D+00
 Gap=     0.130 Goal=   None    Shift=    0.000
 RMSDP=9.99D-07 MaxDP=8.99D-05 DE=-4.98D-07 OVMax= 8.05D-05

 Cycle  18  Pass 1  IDiag  1:
 E= -1205.66880218451     Delta-E=        0.000000030336 Rises=F Damp=F
 DIIS: error= 6.49D-06 at cycle  18 NSaved=  18.
 NSaved=18 IEnMin=17 EnMin= -1205.66880221484     IErMin=17 ErrMin= 4.81D-06
 ErrMax= 6.49D-06  0.00D+00 EMaxC= 1.00D-01 BMatC= 2.82D-08 BMatP= 7.83D-09
 IDIUse=1 WtCom= 1.00D+00 WtEn= 0.00D+00
 Coeff-Com: -0.542D-05 0.341D-05-0.929D-05 0.215D-04 0.128D-03 0.447D-03
 Coeff-Com:  0.137D-03-0.314D-02-0.138D-02 0.553D-02 0.178D-02 0.321D-02
 Coeff-Com: -0.682D-02 0.490D-02-0.219D-01-0.145D-01 0.347D+00 0.685D+00
 Coeff:     -0.542D-05 0.341D-05-0.929D-05 0.215D-04 0.128D-03 0.447D-03
 Coeff:      0.137D-03-0.314D-02-0.138D-02 0.553D-02 0.178D-02 0.321D-02
 Coeff:     -0.682D-02 0.490D-02-0.219D-01-0.145D-01 0.347D+00 0.685D+00
 Gap=     0.130 Goal=   None    Shift=    0.000
 RMSDP=6.03D-07 MaxDP=3.72D-05 DE= 3.03D-08 OVMax= 5.65D-05

 Cycle  19  Pass 1  IDiag  1:
 E= -1205.66880221661     Delta-E=       -0.000000032107 Rises=F Damp=F
 DIIS: error= 1.73D-06 at cycle  19 NSaved=  19.
 NSaved=19 IEnMin=19 EnMin= -1205.66880221661     IErMin=19 ErrMin= 1.73D-06
 ErrMax= 1.73D-06  0.00D+00 EMaxC= 1.00D-01 BMatC= 1.72D-09 BMatP= 7.83D-09
 IDIUse=1 WtCom= 1.00D+00 WtEn= 0.00D+00
 Coeff-Com: -0.112D-05 0.227D-06-0.210D-05 0.530D-05 0.166D-04 0.542D-04
 Coeff-Com:  0.351D-04-0.528D-03-0.175D-03 0.107D-02 0.250D-03 0.143D-02
 Coeff-Com: -0.172D-02 0.356D-02 0.667D-04-0.205D-02 0.768D-01 0.304D+00
 Coeff-Com:  0.617D+00
 Coeff:     -0.112D-05 0.227D-06-0.210D-05 0.530D-05 0.166D-04 0.542D-04
 Coeff:      0.351D-04-0.528D-03-0.175D-03 0.107D-02 0.250D-03 0.143D-02
 Coeff:     -0.172D-02 0.356D-02 0.667D-04-0.205D-02 0.768D-01 0.304D+00
 Coeff:      0.617D+00
 Gap=     0.130 Goal=   None    Shift=    0.000
 RMSDP=1.63D-07 MaxDP=1.35D-05 DE=-3.21D-08 OVMax= 1.40D-05

 Cycle  20  Pass 1  IDiag  1:
 E= -1205.66880221917     Delta-E=       -0.000000002559 Rises=F Damp=F
 DIIS: error= 1.16D-07 at cycle  20 NSaved=  20.
 NSaved=20 IEnMin=20 EnMin= -1205.66880221917     IErMin=20 ErrMin= 1.16D-07
 ErrMax= 1.16D-07  0.00D+00 EMaxC= 1.00D-01 BMatC= 7.17D-12 BMatP= 1.72D-09
 IDIUse=1 WtCom= 1.00D+00 WtEn= 0.00D+00
 Coeff-Com: -0.358D-06-0.383D-08-0.579D-06 0.166D-05 0.197D-05 0.603D-05
 Coeff-Com:  0.901D-05-0.981D-04-0.239D-04 0.248D-03 0.384D-04 0.492D-03
 Coeff-Com: -0.488D-03 0.141D-02 0.141D-02 0.156D-03 0.265D-01 0.114D+00
 Coeff-Com:  0.285D+00 0.572D+00
 Coeff:     -0.358D-06-0.383D-08-0.579D-06 0.166D-05 0.197D-05 0.603D-05
 Coeff:      0.901D-05-0.981D-04-0.239D-04 0.248D-03 0.384D-04 0.492D-03
 Coeff:     -0.488D-03 0.141D-02 0.141D-02 0.156D-03 0.265D-01 0.114D+00
 Coeff:      0.285D+00 0.572D+00
 Gap=     0.130 Goal=   None    Shift=    0.000
 RMSDP=9.37D-09 MaxDP=1.08D-06 DE=-2.56D-09 OVMax= 5.79D-07

 Cycle  21  Pass 1  IDiag  1:
 E= -1205.66880221914     Delta-E=        0.000000000028 Rises=F Damp=F
 DIIS: error= 1.59D-08 at cycle  21 NSaved=  20.
 NSaved=20 IEnMin=19 EnMin= -1205.66880221917     IErMin=20 ErrMin= 1.59D-08
 ErrMax= 1.59D-08  0.00D+00 EMaxC= 1.00D-01 BMatC= 2.48D-13 BMatP= 7.17D-12
 IDIUse=1 WtCom= 1.00D+00 WtEn= 0.00D+00
 Coeff-Com: -0.555D-07-0.823D-07 0.154D-06-0.188D-06-0.828D-06 0.995D-06
 Coeff-Com: -0.201D-05 0.772D-05 0.249D-04-0.292D-05 0.842D-04-0.739D-04
 Coeff-Com:  0.295D-03 0.558D-03 0.213D-03 0.507D-02 0.236D-01 0.740D-01
 Coeff-Com:  0.225D+00 0.671D+00
 Coeff:     -0.555D-07-0.823D-07 0.154D-06-0.188D-06-0.828D-06 0.995D-06
 Coeff:     -0.201D-05 0.772D-05 0.249D-04-0.292D-05 0.842D-04-0.739D-04
 Coeff:      0.295D-03 0.558D-03 0.213D-03 0.507D-02 0.236D-01 0.740D-01
 Coeff:      0.225D+00 0.671D+00
 Gap=     0.130 Goal=   None    Shift=    0.000
 RMSDP=2.66D-09 MaxDP=1.55D-07 DE= 2.80D-11 OVMax= 2.73D-07

 Error on nuclear    polarization charges =  0.01667
 Error on electronic polarization charges = -0.04715
 SCF Done:  E(RB-P86) =  -1205.66880222     A.U. after   21 cycles
            NFock= 21  Conv=0.27D-08     -V/T= 2.3004
 KE= 9.271213040054D+02 PE=-3.833471251435D+03 EE= 1.151302683342D+03
 --------------------------------------------------------------------
 Variational C-PCM results
 =========================
 <psi(f)|   H    |psi(f)>                     (a.u.) =   -1205.606623
 <psi(f)|H+V(f)/2|psi(f)>                     (a.u.) =   -1205.668802
 Total free energy in solution:
 - with all non electrostatic terms           (a.u.) =   -1205.650973
 --------------------------------------------------------------------
 (Polarized solute)-Solvent               (kcal/mol) =     -39.02
 --------------------------------------------------------------------
 Cavitation energy                        (kcal/mol) =      21.42
 Dispersion energy                        (kcal/mol) =     -11.47
 Repulsion energy                         (kcal/mol) =       1.24
 Total non electrostatic                  (kcal/mol) =      11.19
 --------------------------------------------------------------------
 Partition over spheres:
 Sphere  on Atom  Surface  Charge   GEl     GCav    GDR
    1     Pa1      18.41  -0.324   -6.55    1.07   -0.20
    2      O2      17.46   0.181   -1.87    2.55   -0.96
    3      O3      17.03   0.122   -0.30    2.42   -0.88
    4     Cl4      40.98   0.377   -8.44    5.11   -2.74
    5      H5       9.21  -0.134   -2.32    1.30   -0.85
    6      O6      13.98  -0.044   -1.67    2.02   -0.73
    7      H7       9.20  -0.168   -6.30    1.30   -0.88
    8      H8       9.20  -0.169   -5.84    1.30   -0.89
    9      H9       9.19  -0.120   -1.36    1.30   -0.85
   10      O10     21.26   0.278   -4.38    3.04   -1.24
 --------------------------------------------------------------------
 - cavitation energy not included in the total energy.
 - dispersion energy not included in the total energy.
 - repulsion  energy not included in the total energy.
 After PCM corrections, the energy is  -1205.66880222     a.u.
 --------------------------------------------------------------------
 Writing COSMO formatted file "pao_oh2_cl_h2o-bp86-cosmors-deftzvp-klamt.cosmo"
 Recomputed dielectric energy= -0.062360 old= -0.062179 diff=-1.81D-04
 Leave Link  502 at Tue Jul  4 10:47:40 2023, MaxMem=  2147483648 cpu:             735.8 elap:             126.9
 (Enter /home/pcmt/gaussian/g16.C.01/g16/l601.exe)
 Copying SCF densities to generalized density rwf, IOpCl= 0 IROHF=0.

 **********************************************************************

            Population analysis using the SCF Density.

 **********************************************************************

 Orbital symmetries:
       Occupied  (A) (A) (A) (A) (A) (A) (A) (A) (A) (A) (A) (A)
                 (A) (A) (A) (A) (A) (A) (A) (A) (A) (A) (A) (A)
                 (A) (A) (A) (A) (A) (A) (A) (A) (A) (A) (A) (A)
                 (A) (A) (A) (A) (A) (A)
       Virtual   (A) (A) (A) (A) (A) (A) (A) (A) (A) (A) (A) (A)
                 (A) (A) (A) (A) (A) (A) (A) (A) (A) (A) (A) (A)
                 (A) (A) (A) (A) (A) (A) (A) (A) (A) (A) (A) (A)
                 (A) (A) (A) (A) (A) (A) (A) (A) (A) (A) (A) (A)
                 (A) (A) (A) (A) (A) (A) (A) (A) (A) (A) (A) (A)
                 (A) (A) (A) (A) (A) (A) (A) (A) (A) (A) (A) (A)
                 (A) (A) (A) (A) (A) (A) (A) (A) (A) (A) (A) (A)
                 (A) (A) (A) (A) (A) (A) (A) (A) (A) (A) (A) (A)
                 (A) (A) (A) (A) (A) (A) (A) (A) (A) (A) (A) (A)
                 (A) (A) (A) (A) (A) (A) (A) (A) (A) (A) (A) (A)
                 (A) (A) (A) (A) (A) (A) (A) (A) (A) (A) (A) (A)
                 (A) (A) (A) (A) (A) (A) (A) (A) (A) (A) (A) (A)
                 (A) (A) (A) (A) (A) (A) (A) (A) (A) (A) (A) (A)
                 (A) (A) (A) (A) (A) (A) (A) (A) (A) (A) (A) (A)
                 (A) (A) (A) (A) (A) (A) (A) (A) (A) (A) (A) (A)
                 (A) (A) (A) (A) (A) (A) (A) (A) (A) (A) (A) (A)
                 (A) (A) (A) (A) (A) (A) (A) (A) (A) (A) (A) (A)
                 (A) (A) (A) (A) (A) (A) (A) (A) (A) (A) (A) (A)
                 (A) (A) (A) (A) (A) (A) (A) (A) (A) (A) (A) (A)
                 (A) (A) (A) (A) (A) (A) (A) (A) (A) (A) (A) (A)
                 (A) (A)
 The electronic state is 1-A.
 Alpha  occ. eigenvalues -- -100.66594 -18.82119 -18.77040 -18.75727 -18.74417
 Alpha  occ. eigenvalues --  -11.08740  -9.13162  -7.15670  -7.15546  -7.13901
 Alpha  occ. eigenvalues --   -6.94863  -6.94739  -6.94681  -3.51427  -3.51384
 Alpha  occ. eigenvalues --   -3.50575  -3.50435  -3.49816  -1.71281  -0.97736
 Alpha  occ. eigenvalues --   -0.97663  -0.91812  -0.87815  -0.83208  -0.79274
 Alpha  occ. eigenvalues --   -0.68547  -0.68098  -0.52676  -0.43154  -0.41641
 Alpha  occ. eigenvalues --   -0.41052  -0.32284  -0.31784  -0.30725  -0.29253
 Alpha  occ. eigenvalues --   -0.28907  -0.28684  -0.27715  -0.27373  -0.26298
 Alpha  occ. eigenvalues --   -0.26036  -0.24571
 Alpha virt. eigenvalues --   -0.11575  -0.10800  -0.10399  -0.10128  -0.09228
 Alpha virt. eigenvalues --   -0.07607  -0.06860  -0.02313  -0.02027  -0.00523
 Alpha virt. eigenvalues --    0.01217   0.01905   0.02730   0.04651   0.05101
 Alpha virt. eigenvalues --    0.05948   0.08172   0.09870   0.10676   0.11622
 Alpha virt. eigenvalues --    0.13504   0.19114   0.22757   0.23721   0.25312
 Alpha virt. eigenvalues --    0.25936   0.27556   0.27822   0.28244   0.28717
 Alpha virt. eigenvalues --    0.30304   0.31349   0.32044   0.32178   0.35038
 Alpha virt. eigenvalues --    0.35847   0.37307   0.39653   0.40917   0.41945
 Alpha virt. eigenvalues --    0.43278   0.44281   0.46439   0.47763   0.47886
 Alpha virt. eigenvalues --    0.48258   0.50844   0.53235   0.53953   0.54414
 Alpha virt. eigenvalues --    0.56550   0.57460   0.59025   0.61712   0.62376
 Alpha virt. eigenvalues --    0.64252   0.65422   0.67322   0.69002   0.69846
 Alpha virt. eigenvalues --    0.72713   0.74627   0.80466   0.84662   0.91467
 Alpha virt. eigenvalues --    0.98318   1.02811   1.04684   1.07371   1.07500
 Alpha virt. eigenvalues --    1.10253   1.10972   1.11681   1.13665   1.14569
 Alpha virt. eigenvalues --    1.16368   1.17604   1.19063   1.19967   1.21484
 Alpha virt. eigenvalues --    1.23351   1.25263   1.26433   1.29989   1.31550
 Alpha virt. eigenvalues --    1.37320   1.41272   1.42806   1.44564   1.46368
 Alpha virt. eigenvalues --    1.47680   1.53635   1.56701   1.58499   1.59864
 Alpha virt. eigenvalues --    1.61847   1.63432   1.64983   1.67004   1.68666
 Alpha virt. eigenvalues --    1.71575   1.72985   1.74848   1.75790   1.80065
 Alpha virt. eigenvalues --    1.83027   1.83825   1.85080   1.87892   1.88298
 Alpha virt. eigenvalues --    1.89959   1.90469   1.98016   2.01447   2.02435
 Alpha virt. eigenvalues --    2.03871   2.04146   2.05166   2.07659   2.08716
 Alpha virt. eigenvalues --    2.10051   2.11496   2.14342   2.15174   2.16236
 Alpha virt. eigenvalues --    2.19286   2.19719   2.20718   2.21868   2.24764
[...]
     1  Pa   1.516116
     2  O   -0.309045
     3  O   -0.252792
     4  Cl  -0.586602
     6  O    0.161696
    10  O   -0.529374
 Electronic spatial extent (au):  <R**2>=           1258.5746
 Charge=             -0.0000 electrons
 Dipole moment (field-independent basis, Debye):
    X=             12.2589    Y=              2.6762    Z=             -1.5482  Tot=             12.6428
 Quadrupole moment (field-independent basis, Debye-Ang):
   XX=            -68.2468   YY=            -77.7879   ZZ=            -69.9774
   XY=              0.6337   XZ=             -4.4398   YZ=             -0.7640
 Traceless Quadrupole moment (field-independent basis, Debye-Ang):
   XX=              3.7572   YY=             -5.7838   ZZ=              2.0266
   XY=              0.6337   XZ=             -4.4398   YZ=             -0.7640
 Octapole moment (field-independent basis, Debye-Ang**2):
  XXX=            157.1165  YYY=             34.2261  ZZZ=             -1.8736  XYY=             20.1023
  XXY=             -2.3235  XXZ=            -11.5573  XZZ=             13.6992  YZZ=            -12.6742
  YYZ=              8.4195  XYZ=             -0.8622
 Hexadecapole moment (field-independent basis, Debye-Ang**3):
 XXXX=           -769.0867 YYYY=           -367.8342 ZZZZ=           -221.7750 XXXY=             -3.1973
 XXXZ=            -62.4112 YYYX=             10.5976 YYYZ=             25.0511 ZZZX=             -1.6065
 ZZZY=            -30.0050 XXYY=           -196.2136 XXZZ=           -201.7819 YYZZ=           -107.4306
 XXYZ=             -1.5914 YYXZ=             -4.0428 ZZXY=             -3.1379
 N-N= 5.493784618691D+02 E-N=-3.833471250221D+03  KE= 9.271213040054D+02
 Orbital energies and kinetic energies (alpha):
                                 1                 2
   1         O              -100.665944        137.103854
   2         O               -18.821193         29.113750
   3         O               -18.770395         29.111916
   4         O               -18.757266         29.113825
   5         O               -18.744168         29.110034
   6         O               -11.087398          4.704086
   7         O                -9.131619         21.458988
   8         O                -7.156697          5.036667
   9         O                -7.155458          5.036954
  10         O                -7.139013          5.033078
  11         O                -6.948626         20.544815
  12         O                -6.947385         20.546836
  13         O                -6.946811         20.547683
  14         O                -3.514270          6.836593
  15         O                -3.513837          6.837130
  16         O                -3.505749          6.831924
  17         O                -3.504354          6.832450
  18         O                -3.498156          6.827472
  19         O                -1.712806          6.393469
  20         O                -0.977356          2.311380
  21         O                -0.976632          2.649451
  22         O                -0.918117          2.433413
  23         O                -0.878152          3.058587
  24         O                -0.832078          2.209173
  25         O                -0.792743          2.567010
  26         O                -0.685470          3.285415
  27         O                -0.680979          3.157459
  28         O                -0.526755          1.889431
  29         O                -0.431545          2.249862
  30         O                -0.416411          2.475081
  31         O                -0.410516          4.233914
  32         O                -0.322837          2.350936
  33         O                -0.317839          2.427087
  34         O                -0.307249          2.073572
  35         O                -0.292532          2.947433
  36         O                -0.289073          2.549569
  37         O                -0.286842          2.902537
  38         O                -0.277146          4.967864
  39         O                -0.273735          2.905221
  40         O                -0.262982          3.933113
  41         O                -0.260359          2.435431
  42         O                -0.245712          4.526191
  43         V                -0.115751        126.953223
  44         V                -0.107998          5.399208
  45         V                -0.103986          5.409004
  46         V                -0.101275          5.252779
  47         V                -0.092276        151.798800
  48         V                -0.076068         68.547079
  49         V                -0.068599         22.497579
  50         V                -0.023133          7.231942
  51         V                -0.020272         23.327759
  52         V                -0.005230          2.158046
  53         V                 0.012171          1.013312
  54         V                 0.019046          0.826647
  55         V                 0.027304          1.140685
  56         V                 0.046505          1.249055
  57         V                 0.051014          2.190445
  58         V                 0.059484          2.024257
  59         V                 0.081725          9.693186
  60         V                 0.098697          3.754871
  61         V                 0.106756          9.498894
  62         V                 0.116220          2.070310
  63         V                 0.135044          1.411875
  64         V                 0.191138          0.952740
  65         V                 0.227570          1.592357
  66         V                 0.237211          1.405507
  67         V                 0.253116          1.378818
  68         V                 0.259365          1.616608
  69         V                 0.275563          1.221580
  70         V                 0.278224          1.328881
  71         V                 0.282441          1.359070
  72         V                 0.287171          1.448478
  73         V                 0.303039          1.362547
  74         V                 0.313490          1.470738
  75         V                 0.320437          1.514403
  76         V                 0.321777          1.446453
  77         V                 0.350379          1.713553
  78         V                 0.358473          2.135474
  79         V                 0.373074          1.486235
  80         V                 0.396531          1.570016
  81         V                 0.409175          1.533208
  82         V                 0.419445          1.857957
  83         V                 0.432779          1.553115
  84         V                 0.442814          1.910189
  85         V                 0.464388          1.738275
  86         V                 0.477629          1.748301
  87         V                 0.478861          1.725431
  88         V                 0.482577          2.115338
  89         V                 0.508438          2.014498
  90         V                 0.532353          1.593735
  91         V                 0.539532          1.924844
  92         V                 0.544143          1.764026
  93         V                 0.565502          1.654169
  94         V                 0.574603          1.701192
  95         V                 0.590250          1.617970
  96         V                 0.617120          1.749222
  97         V                 0.623761          1.511387
  98         V                 0.642524          1.975750
  99         V                 0.654219          4.678098
 100         V                 0.673219          1.604822
 101         V                 0.690025          2.018831
 102         V                 0.698463          1.594442
 103         V                 0.727129          1.417216
 104         V                 0.746273          1.717130
 105         V                 0.804660          1.898169
 106         V                 0.846624          1.931336
 107         V                 0.914668          3.375507
 108         V                 0.983176          3.260266
 109         V                 1.028114          2.512978
 110         V                 1.046839          2.779793
 111         V                 1.073708          2.809127
 112         V                 1.075000          2.536464
 113         V                 1.102525          2.572138
 114         V                 1.109717          3.012460
 115         V                 1.116814          3.064788
 116         V                 1.136647          2.920771
 117         V                 1.145692          3.007234
 118         V                 1.163677          2.867488
 119         V                 1.176042          2.955208
 120         V                 1.190634          2.652585
 121         V                 1.199672          2.989954
 122         V                 1.214836          2.808558
 123         V                 1.233514          3.026500
 124         V                 1.252632          2.782755
 125         V                 1.264329          2.809124
 126         V                 1.299889          3.014938
 127         V                 1.315502          2.586633
 128         V                 1.373197          2.369918
 129         V                 1.412725          3.399347
 130         V                 1.428056          2.982855
 131         V                 1.445639          3.083388
 132         V                 1.463680          3.109628
 133         V                 1.476797          3.034824
 134         V                 1.536349          3.092109
 135         V                 1.567011          3.332095
 136         V                 1.584988          3.316024
 137         V                 1.598640          3.419233
 138         V                 1.618474          3.524313
 139         V                 1.634316          3.123922
 140         V                 1.649830          3.361658
 141         V                 1.670038          3.341495
 142         V                 1.686663          3.257982
 143         V                 1.715754          4.566477
 144         V                 1.729850          3.902980
 145         V                 1.748479          4.006550
 146         V                 1.757896          3.198045
 147         V                 1.800651          3.979790
 148         V                 1.830266          3.957675
 149         V                 1.838254          3.519028
 150         V                 1.850804          4.156717
 151         V                 1.878918          4.019363
 152         V                 1.882980          4.056096
 153         V                 1.899593          4.076797
 154         V                 1.904690          3.555925
 155         V                 1.980155          3.358685
 156         V                 2.014466          3.863103
 157         V                 2.024351          2.951145
 158         V                 2.038709          3.286910
 159         V                 2.041457          3.300777
 160         V                 2.051656          3.234461
 161         V                 2.076590          3.872471
 162         V                 2.087157          3.598072
 163         V                 2.100509          3.619197
 164         V                 2.114957          3.534218
 165         V                 2.143420          3.797617
 166         V                 2.151745          4.064294
 167         V                 2.162361          4.046715
 168         V                 2.192858          5.844246
 169         V                 2.197190          6.388636
 170         V                 2.207178          5.017365
 171         V                 2.218680          4.278867
 172         V                 2.247638          4.151510
 173         V                 2.268410          4.283503
 174         V                 2.298106          5.298910
 175         V                 2.325202          5.562109
 176         V                 2.342675          5.102862
 177         V                 2.466162          4.393719
 178         V                 2.467488          4.124260
 179         V                 2.484674          4.434262
 180         V                 2.526144          6.660368
 181         V                 2.580698          6.119881
 182         V                 2.589434          4.928604
 183         V                 2.617547          6.641029
 184         V                 2.625577          6.782263
 185         V                 2.657069          6.073815
 186         V                 2.668287          6.057340
 187         V                 2.700605          6.497016
 188         V                 2.820769          6.927476
 189         V                 2.858517          6.764885
 190         V                 2.886115          6.644933
 191         V                 2.956032          6.814917
 192         V                 3.031517          7.532661
 193         V                 3.163259          7.430422
 194         V                 3.368146          8.256757
 195         V                 3.537039          6.274209
 196         V                 3.603351          8.379835
 197         V                 3.689843          7.052141
 198         V                 3.696789          8.259764
 199         V                 3.718382          9.312576
 200         V                 3.763212          7.942849
 201         V                 3.825180          9.708796
 202         V                 3.848563          9.559162
 203         V                 3.876610          8.211646
 204         V                 3.888606          8.428551
 205         V                 4.025578          9.551428
 206         V                 4.085694          9.909637
 207         V                 4.275194          9.073057
 208         V                 4.962538          6.528759
 209         V                 5.005788          6.445029
 210         V                 5.013351          6.500454
 211         V                 5.018362          6.451539
 212         V                 5.023727          6.516294
 213         V                 5.033043          6.465856
 214         V                 5.042201          6.464174
 215         V                 5.076977          6.767744
 216         V                 5.088261          6.737596
 217         V                 5.099130          6.591300
 218         V                 5.114193          6.661017
 219         V                 5.140790          6.785951
 220         V                 5.147672          6.758302
 221         V                 5.168800          6.873225
 222         V                 5.203839          6.923651
 223         V                 5.219761          6.957411
 224         V                 5.229409          6.916424
 225         V                 5.242690          6.825201
 226         V                 5.292333          7.641987
 227         V                 5.312670          6.933462
 228         V                 5.339115          7.188838
 229         V                 5.346334          7.105122
 230         V                 5.392690          7.338250
 231         V                 5.435429          7.208857
 232         V                 5.841738          8.522573
 233         V                 6.047168          9.657654
 234         V                 6.056901          9.573604
 235         V                 6.110097          9.258203
 236         V                 6.125177         10.353198
 237         V                 6.152812          9.296483
 238         V                 6.185306          9.342425
 239         V                 6.188720          9.455855
 240         V                 6.206779          9.372699
 241         V                 6.219164          9.444843
 242         V                 6.237956          9.407941
 243         V                 6.297189          9.399836
 244         V                 6.336835          9.439156
 245         V                 6.382109          9.690417
 246         V                 6.422994          9.631560
 247         V                 6.518365         10.042976
 248         V                 6.576599          9.741631
 249         V                 6.599690          9.717468
 250         V                 6.667505         10.629435
 251         V                 6.727114         10.143648
 252         V                 6.763838          9.672799
 253         V                 6.811866         10.523113
 254         V                 6.865328          9.798607
 255         V                 6.917808          9.828489
 256         V                 6.992950         10.348254
 257         V                 7.132823         13.643065
 258         V                 7.248322         13.157360
 259         V                 7.477895         13.715727
 260         V                 8.115004         15.807601
 261         V                 8.175781         15.819399
 262         V                 8.213727         15.810374
 263         V                 8.530580         16.076370
 264         V                 8.914943         16.234373
 265         V                10.558478         33.482350
 266         V                10.564134         33.483849
 267         V                10.776245         33.462630
 268         V                24.896458         44.415980
 269         V                29.307905         36.024420
 270         V                29.318681         36.029873
 271         V                29.486252         36.177140
 272         V                43.031255        108.454771
 273         V                43.187463        108.542452
 274         V                43.395380        108.737744
 275         V                43.542911        108.889487
 276         V                54.078088         39.965671
 277         V                70.222490         83.943629
 278         V                70.224337         83.952466
 279         V                70.326278         84.123803
 280         V               142.608088        242.420601
 281         V               142.616972        242.430980
 282         V               142.802374        242.662038
 283         V               202.590004        130.070727
 284         V               626.102614       1034.491890
 Total kinetic energy from orbitals= 9.271213040054D+02
 No NMR shielding tensors so no spin-rotation constants.
 Leave Link  601 at Tue Jul  4 10:47:41 2023, MaxMem=  2147483648 cpu:               2.8 elap:               0.4
 (Enter /home/pcmt/gaussian/g16.C.01/g16/l9999.exe)

 Test job not archived.
 1\1\GINC-U-0-13\SP\RBP86\Gen\Cl1H4O4Pa1\ROOT\04-Jul-2023\0\\#p BP86/GE
 N Pseudo=Read GFInput GFPrint IOP(6/7=3) Symm=(Loose) Int=(UltraFine) 
 Guess=(Harris) SCRF=(COSMORS) Scf=(NoVarAcc,MaxCycle=100,conver=8)\\pa
 o_oh2_cl_h2o-bp86-cosmors-deftzvp-klamt.com SGP in PCM calculation\\0,
 1\Pa,0,-0.1680529723,0.0713502877,0.81068248\O,0,1.106865753,1.5154642
 303,-0.1130360955\O,0,-1.7508609375,0.8061609533,-0.3525061931\Cl,0,-0
 .8789165659,1.5724262607,2.9767982765\H,0,-1.8399053532,1.551565135,-0
 .9621979006\O,0,0.035900002,-1.6318122116,-1.0053077648\H,0,-0.4540156
 18,-1.64013079,-1.8381609657\H,0,0.7209541884,-2.3102638826,-1.0674816
 05\H,0,2.0618004609,1.607759217,-0.0126977997\O,0,1.1777814317,-0.8617
 499907,1.6856692456\\Version=ES64L-G16RevC.01\State=1-A\HF=-1205.66880
 22\RMSD=2.661e-09\Dipole=-0.1610721,-2.7027054,-4.1726041\Quadrupole=-
 1.9161579,2.6498889,-0.733731,2.9139603,-0.1428607,3.4051492\PG=C01 [X
 (Cl1H4O4Pa1)]\\@


 POCKETA-POCKETA
 BARON VON RICHTOFEN
 SLAUGHTERED THE ALLIES WITH
 HARDLY A CARE.
 KILLED EIGHTY-ONE WITH HIS
 BLOOD-COLORED TRIPLANE, THEN
 UN-AEROBATICALLY
 PLUNGED FROM THE AIR.
   -- TONY HOFFMAN
 Job cpu time:       0 days  0 hours 12 minutes 43.6 seconds.
 Elapsed time:       0 days  0 hours  2 minutes 10.7 seconds.
 File lengths (MBytes):  RWF=     44 Int=      0 D2E=      0 Chk=      6 Scr=      1
 Normal termination of Gaussian 16 at Tue Jul  4 10:47:41 2023.
