

 Parallel Execution: Process Information
 ==============================================================================
 Rank   Node Name                              NodeID   MyNodeRank  NodeMaster
    0   u-0-7.local                               0          0          0
    1   u-0-7.local                               0          1         -1
    2   u-0-7.local                               1          0          1
    3   u-0-7.local                               1          1         -1
    4   u-0-7.local                               2          0          2
    5   u-0-7.local                               2          1         -1
    6   u-0-7.local                               3          0          3
    7   u-0-7.local                               3          1         -1
 ==============================================================================


May use up to 31228MB of RAM as shared memory on node 0
May use up to 31250MB of RAM as shared memory on node 1
May use up to 31250MB of RAM as shared memory on node 2
May use up to 31250MB of RAM as shared memory on node 3

 *******************************************************************************
 *                                                                             *
 *  --------------------------------                                           *
 *   Amsterdam Modeling Suite (AMS)              2022.103                      *
 *  --------------------------------                                           *
 *                                               r104886 2022-06-17            *
 *                                                                             *
 *                                                                             *
 *                              =================                              *
 *                              |               |                              *
 *                              |     A M S     |                              *
 *                              |               |                              *
 *                              =================                              *
 *                                                                             *
 *                                                                             *
 *   Online information and documentation:  https://www.scm.com/support/       *
 *   E-mail:  support@scm.com   info@scm.com                                   *
 *                                                                             *
 *   Scientific publications using AMS results must be properly referenced     *
 *   See the User Manuals (or the web site) for recommended citations          *
 *   The terms and conditions of the End User License Agreement apply to       *
 *   the use of AMS, https://www.scm.com/license-terms/                        *
 *                                                                             *
 **********************  x86_64_linux_intel / intelmpi  ************************
 
 Licensed to: Dr. Val?rie Vallet / Laboratoire PhLAM UMR 8523 / Villeneuve d'Ascq Cedex / FRANCE 2023-02-21 11:49:39
 SCM User ID: u10325
  
 AMS 2022.103  RunTime: Feb22-2023 09:37:17  ShM Nodes: 4  Procs: 8

 AMS jobname: ams
 AMS jobid  : 1671973082

 Start   directory: /home/shaaban/ams/PhD/iodide/pa_oh4_I/gp/B22/
 Results directory: /home/shaaban/ams/PhD/iodide/pa_oh4_I/gp/B22/pa_oh4_I.SR.b3lyp.tz2p.opt-freq-B22.results/
 Scratch directory: /state/partition2/shaaban/928772.phlam-s-sakura/amstmp_ams_kid0.1671973082/


 Communication costs MPI_COMM_WORLD:      2.902 usec per message,   0.0178 usec per 8-byte item
 Communication costs for intra-node:      0.661 usec per message,   0.0024 usec per 8-byte item

 RNG seed: -1629198028 1916585808 459028997 -64872501 1583060592 336581140 229755805 1393436099



                      ************************************************************************
                      *  ADF 2022.103  RunTime: Feb22-2023 09:37:17  ShM Nodes: 4  Procs: 8  *
                      ************************************************************************
  
       ***************************
       *  GEOMETRY OPTIMIZATION  *
       ***************************

Optimization Method                    Quasi Newton
Optimization Coordinates               Delocalized Coordinates
Optimize lattice                       F
 
 ------------------------------------------------------
 Convergence criteria (Hartree,Angstrom)
 ------------------------------------------------------
 Maximum gradient               0.000100000000
 Maximum rms gradient           0.000066666667
 Maximum step allowed           0.001000000000
 Maximum rms step allowed       0.000666666667
 Maximum energy change allowe   0.000010000000
 Maximum stress energy allowe   0.000500000000
 
Initial model Hessian                  Automatic Hessian
 
------------------------------------
Quasi-Newton Optimizer Parameters
------------------------------------
Hessian Update Method                  BFGS
Maximum number of steps                  250
First GDIIS cycle                          0
Maximum GDIIS vectors                      0
Trust radius (bohr)                        0.200000
Trust radius varies                        T
Constraints converged at all steps         T
Use projector                              T
 
 Rigid motions settings for: old optimizer
 Atomic rotations (x,y,z):     T T T
 Atomic translations (x,y,z):  T T T
 Tolerance:                   1.000000000000000E-006
 
--------
Geometry
--------
Formula: H4IO4Pa
Atoms
  Index Symbol   x (angstrom)   y (angstrom)   z (angstrom)
      1     Pa     0.34601472    -0.07416228     0.03577287
      2      I     1.43873282     2.03339125    -1.73221617
      3      H    -1.96464694     1.85289063     0.46970094
      4      O    -1.31883582     1.14631278     0.42477540
      5      H     2.58473464    -0.23251484     1.96808979
      6      O     0.18639990    -1.35865954    -1.61665480
      7      H     0.15735988    -1.87462938    -2.42324305
      8      O    -0.37137603    -1.54781318     1.33768875
      9      H    -0.97669755    -2.15542285     1.76754294
     10      O     2.10237134     0.07657093     1.19788308
 
Total System Charge             0.00000
Bonding info available!
 
 
----------------
ADF Engine Input
----------------
 
 Basis
 Type TZ2P
 Core None
 End
 XC
 Hybrid B3LYP
 End
 NumericalQuality Good
 

 Title: *** (NO TITLE) ***

Bad geometry: could not add a dihedral for atom    7
 Using automatic Hessian for delocalized coordinates.
 *** GO1_GOStep1 ***



 ======================
 RI Hartree-Fock Scheme
 ======================
  
 Fit Set Quality     : GOOD
 Threshold Quality   : GOOD
 Integration Quality : GOOD
 Response Quality    : DEFAULT
 Is Range Separated  :  F
 
 RIHartreeFock Dependency: number of modified vectors:           4
  
 Hartree-Fock exchange energy:   -680.590832866121     

 Energy gradients wrt nuclear displacements
 ==========================================

     Atom      Cartesian (a.u./angstrom)
                 X         Y         Z
 ----------------------------------------
     1 Pa    0.010019  0.018030 -0.014748
     2 I    -0.004677 -0.011237  0.009945
     3 H     0.000647 -0.000795  0.000065
     4 O    -0.012390  0.008907  0.002983
     5 H    -0.001734 -0.000644 -0.000630
     6 O    -0.001086 -0.009381 -0.012677
     7 H    -0.000005  0.000312  0.001131
     8 O    -0.004560 -0.008416  0.007258
     9 H    -0.000019 -0.000133  0.000084
    10 O     0.013805  0.003357  0.006588
 ----------------------------------------
 Mulliken charges used for AMS results%charges...
 
----------------------------------------------------------------------
Geometry Convergence after Step   1       (Hartree/Angstrom,Angstrom)
----------------------------------------------------------------------
current energy                               -2.59649195 Hartree
energy change                      -2.59649195     0.00001000    F
constrained gradient max            0.01803010     0.00010000    F
constrained gradient rms            0.00769743     0.00006667    F
gradient max                        0.01803012
gradient rms                        0.00769743
cart. step max                      0.01628601     0.00100000    F
cart. step rms                      0.00637200     0.00066667    F
 
 
--------
Geometry
--------
Formula: H4IO4Pa
Atoms
  Index Symbol   x (angstrom)   y (angstrom)   z (angstrom)
      1     Pa     0.34838137    -0.07507651     0.03749797
      2      I     1.42244681     2.04159922    -1.74741459
      3      H    -1.95561327     1.84996978     0.46781992
      4      O    -1.31011046     1.14234639     0.42376792
      5      H     2.57903927    -0.24033064     1.97266953
      6      O     0.18887549    -1.35506728    -1.60906543
      7      H     0.16010993    -1.87027096    -2.41683537
      8      O    -0.36913749    -1.54406019     1.33484923
      9      H    -0.97549624    -2.15103357     1.76398744
     10      O     2.09556154     0.06788730     1.20206314
 
Total System Charge             0.00000
Bonding info available!
 
 *** GO1_GOStep2 ***



 ======================
 RI Hartree-Fock Scheme
 ======================
  
 Fit Set Quality     : GOOD
 Threshold Quality   : GOOD
 Integration Quality : GOOD
 Response Quality    : DEFAULT
 Is Range Separated  :  F
 
 RIHartreeFock Dependency: number of modified vectors:           4
  
 Hartree-Fock exchange energy:   -680.599215360028     

 Energy gradients wrt nuclear displacements
 ==========================================

     Atom      Cartesian (a.u./angstrom)
                 X         Y         Z
 ----------------------------------------
     1 Pa    0.007388  0.013298 -0.011202
     2 I    -0.004417 -0.009806  0.008536
     3 H     0.000154 -0.000134  0.000093
     4 O    -0.007052  0.004863  0.001666
     5 H    -0.001372 -0.001120  0.000274
     6 O    -0.000694 -0.005028 -0.007020
     7 H     0.000017 -0.000157  0.000363
     8 O    -0.002450 -0.004777  0.004233
     9 H    -0.000014  0.000053 -0.000103
    10 O     0.008440  0.002808  0.003160
 ----------------------------------------
 Mulliken charges used for AMS results%charges...

 dE(predicted):    -0.29800E-03, dE(actual):    -0.50676E-03, Trust radius:    0.200000, all in a.u.
 
----------------------------------------------------------------------
Geometry Convergence after Step   2       (Hartree/Angstrom,Angstrom)
----------------------------------------------------------------------
current energy                               -2.59699870 Hartree
energy change                      -0.00050676     0.00001000    F
constrained gradient max            0.01329780     0.00010000    F
constrained gradient rms            0.00527871     0.00006667    F
gradient max                        0.01329784
gradient rms                        0.00527871
cart. step max                      0.02838050     0.00100000    F
cart. step rms                      0.01077951     0.00066667    F
 
 
--------
Geometry
--------
Formula: H4IO4Pa
Atoms
  Index Symbol   x (angstrom)   y (angstrom)   z (angstrom)
      1     Pa     0.35044975    -0.07890527     0.04247242
      2      I     1.40004456     2.05922549    -1.77579509
      3      H    -1.93940237     1.84379407     0.46399457
      4      O    -1.29524204     1.13427260     0.42220450
      5      H     2.57478048    -0.24777524     1.97775012
      6      O     0.19258331    -1.34912824    -1.59443037
      7      H     0.16423279    -1.86064000    -2.40508234
      8      O    -0.36856805    -1.53997747     1.33035900
      9      H    -0.97638320    -2.14638859     1.75843947
     10      O     2.08156170     0.05148616     1.20942746
 
Total System Charge             0.00000
Bonding info available!
 
 *** GO1_GOStep3 ***



 ======================
 RI Hartree-Fock Scheme
 ======================
  
 Fit Set Quality     : GOOD
 Threshold Quality   : GOOD
 Integration Quality : GOOD
 Response Quality    : DEFAULT
 Is Range Separated  :  F
 
 RIHartreeFock Dependency: number of modified vectors:           4
  
 Hartree-Fock exchange energy:   -680.614019849084     

 Energy gradients wrt nuclear displacements
 ==========================================

     Atom      Cartesian (a.u./angstrom)
                 X         Y         Z
 ----------------------------------------
     1 Pa    0.001208  0.003171 -0.003468
     2 I    -0.003103 -0.005743  0.004787
     3 H     0.000033  0.000232  0.000082
     4 O     0.002389 -0.002104 -0.000744
     5 H    -0.001381 -0.001518  0.000809
     6 O     0.000067  0.002527  0.002666
     7 H     0.000081 -0.000351 -0.000010
     8 O     0.001721  0.002081 -0.001471
     9 H    -0.000279  0.000125 -0.000253
    10 O    -0.000736  0.001581 -0.002399
 ----------------------------------------
 Mulliken charges used for AMS results%charges...

 dE(predicted):    -0.42538E-03, dE(actual):    -0.45131E-03, Trust radius:    0.200000, all in a.u.
 
----------------------------------------------------------------------
Geometry Convergence after Step   3       (Hartree/Angstrom,Angstrom)
----------------------------------------------------------------------
current energy                               -2.59745002 Hartree
energy change                      -0.00045131     0.00001000    F
constrained gradient max            0.00574672     0.00010000    F
constrained gradient rms            0.00213480     0.00006667    F
gradient max                        0.00574603
gradient rms                        0.00213480
cart. step max                      0.00685847     0.00100000    F
cart. step rms                      0.00253780     0.00066667    F
 
 
--------
Geometry
--------
Formula: H4IO4Pa
Atoms
  Index Symbol   x (angstrom)   y (angstrom)   z (angstrom)
      1     Pa     0.34916819    -0.08127390     0.04466969
      2      I     1.40277848     2.06342338    -1.77984249
      3      H    -1.93856854     1.84329815     0.46353354
      4      O    -1.29484627     1.13327349     0.42249463
      5      H     2.58163895    -0.24223996     1.97645375
      6      O     0.19263588    -1.34959276    -1.59293502
      7      H     0.16414262    -1.85880674    -2.40506967
      8      O    -0.37244381    -1.54225274     1.33057609
      9      H    -0.98008680    -2.14889319     1.75859035
     10      O     2.07963824     0.04902780     1.21086887
 
Total System Charge             0.00000
Bonding info available!
 
 *** GO1_GOStep4 ***



 ======================
 RI Hartree-Fock Scheme
 ======================
  
 Fit Set Quality     : GOOD
 Threshold Quality   : GOOD
 Integration Quality : GOOD
 Response Quality    : DEFAULT
 Is Range Separated  :  F
 
 RIHartreeFock Dependency: number of modified vectors:           4
  
 Hartree-Fock exchange energy:   -680.613019206570     

 Energy gradients wrt nuclear displacements
 ==========================================

     Atom      Cartesian (a.u./angstrom)
                 X         Y         Z
 ----------------------------------------
     1 Pa    0.000100  0.001487 -0.001990
     2 I    -0.002243 -0.004009  0.003296
     3 H     0.000015  0.000250  0.000088
     4 O     0.002755 -0.002387 -0.000844
     5 H    -0.001399 -0.001476  0.000746
     6 O     0.000105  0.002752  0.002942
     7 H     0.000069 -0.000361 -0.000023
     8 O     0.001778  0.002131 -0.001527
     9 H    -0.000311  0.000111 -0.000247
    10 O    -0.000869  0.001501 -0.002442
 ----------------------------------------
 Mulliken charges used for AMS results%charges...

 dE(predicted):    -0.49830E-04, dE(actual):    -0.85145E-04, Trust radius:    0.200000, all in a.u.
 
----------------------------------------------------------------------
Geometry Convergence after Step   4       (Hartree/Angstrom,Angstrom)
----------------------------------------------------------------------
current energy                               -2.59753516 Hartree
energy change                      -0.00008514     0.00001000    F
constrained gradient max            0.00401151     0.00010000    F
constrained gradient rms            0.00175558     0.00006667    F
gradient max                        0.00401088
gradient rms                        0.00175558
cart. step max                      0.03143876     0.00100000    F
cart. step rms                      0.01066565     0.00066667    F
 
 
--------
Geometry
--------
Formula: H4IO4Pa
Atoms
  Index Symbol   x (angstrom)   y (angstrom)   z (angstrom)
      1     Pa     0.34304754    -0.09058311     0.05235318
      2      I     1.42031794     2.07378654    -1.78523452
      3      H    -1.93973070     1.84377223     0.46255860
      4      O    -1.29776241     1.13201095     0.42410574
      5      H     2.61307771    -0.21474304     1.96773496
      6      O     0.19196568    -1.35385343    -1.59166838
      7      H     0.16312853    -1.85385708    -2.40945196
      8      O    -0.38969297    -1.55311001     1.33286050
      9      H    -0.99593667    -2.16080483     1.76125116
     10      O     2.07564230     0.04334529     1.21483048
 
Total System Charge             0.00000
Bonding info available!
 
 *** GO1_GOStep5 ***



 ======================
 RI Hartree-Fock Scheme
 ======================
  
 Fit Set Quality     : GOOD
 Threshold Quality   : GOOD
 Integration Quality : GOOD
 Response Quality    : DEFAULT
 Is Range Separated  :  F
 
 RIHartreeFock Dependency: number of modified vectors:           4
  
 Hartree-Fock exchange energy:   -680.604587560622     

 Energy gradients wrt nuclear displacements
 ==========================================

     Atom      Cartesian (a.u./angstrom)
                 X         Y         Z
 ----------------------------------------
     1 Pa   -0.002001 -0.001846  0.001221
     2 I     0.000571  0.001202 -0.001069
     3 H     0.000034  0.000136  0.000122
     4 O     0.001023 -0.001055 -0.000472
     5 H    -0.001278 -0.001289  0.000621
     6 O     0.000024  0.001184  0.000808
     7 H     0.000008 -0.000314  0.000104
     8 O     0.000674  0.000217  0.000032
     9 H    -0.000296  0.000078 -0.000215
    10 O     0.001239  0.001686 -0.001152
 ----------------------------------------
 Mulliken charges used for AMS results%charges...

 dE(predicted):    -0.15245E-03, dE(actual):    -0.17431E-03, Trust radius:    0.200000, all in a.u.
 
----------------------------------------------------------------------
Geometry Convergence after Step   5       (Hartree/Angstrom,Angstrom)
----------------------------------------------------------------------
current energy                               -2.59770947 Hartree
energy change                      -0.00017431     0.00001000    F
constrained gradient max            0.00200180     0.00010000    F
constrained gradient rms            0.00093854     0.00006667    F
gradient max                        0.00200185
gradient rms                        0.00093854
cart. step max                      0.01200781     0.00100000    F
cart. step rms                      0.00390798     0.00066667    F
 
 
--------
Geometry
--------
Formula: H4IO4Pa
Atoms
  Index Symbol   x (angstrom)   y (angstrom)   z (angstrom)
      1     Pa     0.34093951    -0.09379409     0.05457113
      2      I     1.42547186     2.07405334    -1.78305542
      3      H    -1.94032834     1.84471795     0.46211037
      4      O    -1.29914513     1.13225286     0.42455987
      5      H     2.62508552    -0.20370043     1.96344156
      6      O     0.19182577    -1.35573234    -1.59210149
      7      H     0.16332296    -1.85215641    -2.41202431
      8      O    -0.39603616    -1.55658254     1.33346081
      9      H    -1.00150265    -2.16462395     1.76238251
     10      O     2.07442361     0.04152914     1.21599473
 
Total System Charge             0.00000
Bonding info available!
 
 *** GO1_GOStep6 ***



 ======================
 RI Hartree-Fock Scheme
 ======================
  
 Fit Set Quality     : GOOD
 Threshold Quality   : GOOD
 Integration Quality : GOOD
 Response Quality    : DEFAULT
 Is Range Separated  :  F
 
 RIHartreeFock Dependency: number of modified vectors:           4
  
 Hartree-Fock exchange energy:   -680.602062062239     

 Energy gradients wrt nuclear displacements
 ==========================================

     Atom      Cartesian (a.u./angstrom)
                 X         Y         Z
 ----------------------------------------
     1 Pa   -0.002009 -0.002218  0.001578
     2 I     0.001079  0.002061 -0.001745
     3 H     0.000056  0.000070  0.000136
     4 O     0.000040 -0.000248 -0.000268
     5 H    -0.001217 -0.001217  0.000578
     6 O    -0.000027  0.000431 -0.000237
     7 H    -0.000006 -0.000282  0.000169
     8 O     0.000254 -0.000457  0.000614
     9 H    -0.000265  0.000082 -0.000215
    10 O     0.002095  0.001777 -0.000610
 ----------------------------------------
 Mulliken charges used for AMS results%charges...

 dE(predicted):    -0.16737E-04, dE(actual):    -0.25880E-04, Trust radius:    0.200000, all in a.u.
 
----------------------------------------------------------------------
Geometry Convergence after Step   6       (Hartree/Angstrom,Angstrom)
----------------------------------------------------------------------
current energy                               -2.59773535 Hartree
energy change                      -0.00002588     0.00001000    F
constrained gradient max            0.00221778     0.00010000    F
constrained gradient rms            0.00103924     0.00006667    F
gradient max                        0.00221776
gradient rms                        0.00103924
cart. step max                      0.02894579     0.00100000    F
cart. step rms                      0.00947308     0.00066667    F
 
 
--------
Geometry
--------
Formula: H4IO4Pa
Atoms
  Index Symbol   x (angstrom)   y (angstrom)   z (angstrom)
      1     Pa     0.33632545    -0.10127928     0.05974254
      2      I     1.43429857     2.07108105    -1.77544347
      3      H    -1.94036254     1.84724342     0.46086948
      4      O    -1.30131643     1.13284999     0.42562517
      5      H     2.65403131    -0.17603377     1.95143446
      6      O     0.19203822    -1.35993209    -1.59239858
      7      H     0.16501472    -1.84703370    -2.41786091
      8      O    -0.41146555    -1.56388721     1.33369419
      9      H    -1.01477645    -2.17285886     1.76418406
     10      O     2.07026965     0.03581398     1.21949279
 
Total System Charge             0.00000
Bonding info available!
 
 *** GO1_GOStep7 ***



 ======================
 RI Hartree-Fock Scheme
 ======================
  
 Fit Set Quality     : GOOD
 Threshold Quality   : GOOD
 Integration Quality : GOOD
 Response Quality    : DEFAULT
 Is Range Separated  :  F
 
 RIHartreeFock Dependency: number of modified vectors:           4
  
 Hartree-Fock exchange energy:   -680.598422242269     

 Energy gradients wrt nuclear displacements
 ==========================================

     Atom      Cartesian (a.u./angstrom)
                 X         Y         Z
 ----------------------------------------
     1 Pa   -0.001680 -0.002817  0.002141
     2 I     0.001712  0.003108 -0.002526
     3 H     0.000085 -0.000052  0.000167
     4 O    -0.001644  0.001185  0.000052
     5 H    -0.001096 -0.001053  0.000454
     6 O    -0.000104 -0.000782 -0.001950
     7 H    -0.000036 -0.000228  0.000270
     8 O    -0.000335 -0.001329  0.001390
     9 H    -0.000230  0.000080 -0.000216
    10 O     0.003328  0.001888  0.000218
 ----------------------------------------
 Mulliken charges used for AMS results%charges...

 dE(predicted):    -0.37652E-04, dE(actual):    -0.55227E-04, Trust radius:    0.200000, all in a.u.
 
----------------------------------------------------------------------
Geometry Convergence after Step   7       (Hartree/Angstrom,Angstrom)
----------------------------------------------------------------------
current energy                               -2.59779057 Hartree
energy change                      -0.00005523     0.00001000    F
constrained gradient max            0.00333139     0.00010000    F
constrained gradient rms            0.00146210     0.00006667    F
gradient max                        0.00333160
gradient rms                        0.00146210
cart. step max                      0.05167547     0.00100000    F
cart. step rms                      0.01728314     0.00066667    F
 
 
--------
Geometry
--------
Formula: H4IO4Pa
Atoms
  Index Symbol   x (angstrom)   y (angstrom)   z (angstrom)
      1     Pa     0.32865649    -0.11420768     0.06926860
      2      I     1.44626626     2.06120132    -1.75968849
      3      H    -1.93799216     1.85194248     0.45886614
      4      O    -1.30317625     1.13372255     0.42796305
      5      H     2.70345531    -0.12435830     1.92444318
      6      O     0.19348120    -1.36683948    -1.59093354
      7      H     0.17029064    -1.83594013    -2.42679400
      8      O    -0.43935820    -1.57571334     1.33232863
      9      H    -1.03803964    -2.18679043     1.76603649
     10      O     2.06047330     0.02294654     1.22784970
 
Total System Charge             0.00000
Bonding info available!
 
 *** GO1_GOStep8 ***



 ======================
 RI Hartree-Fock Scheme
 ======================
  
 Fit Set Quality     : GOOD
 Threshold Quality   : GOOD
 Integration Quality : GOOD
 Response Quality    : DEFAULT
 Is Range Separated  :  F
 
 RIHartreeFock Dependency: number of modified vectors:           4
  
 Hartree-Fock exchange energy:   -680.595387891997     

 Energy gradients wrt nuclear displacements
 ==========================================

     Atom      Cartesian (a.u./angstrom)
                 X         Y         Z
 ----------------------------------------
     1 Pa   -0.000759 -0.003586  0.003076
     2 I     0.002161  0.003863 -0.003055
     3 H     0.000116 -0.000185  0.000201
     4 O    -0.003384  0.002771  0.000335
     5 H    -0.000981 -0.000849  0.000252
     6 O    -0.000131 -0.001928 -0.003632
     7 H    -0.000072 -0.000160  0.000340
     8 O    -0.000789 -0.001847  0.001864
     9 H    -0.000195  0.000090 -0.000233
    10 O     0.004032  0.001830  0.000854
 ----------------------------------------
 Mulliken charges used for AMS results%charges...

 dE(predicted):    -0.64124E-04, dE(actual):    -0.76909E-04, Trust radius:    0.200000, all in a.u.
 
----------------------------------------------------------------------
Geometry Convergence after Step   8       (Hartree/Angstrom,Angstrom)
----------------------------------------------------------------------
current energy                               -2.59786748 Hartree
energy change                      -0.00007691     0.00001000    F
constrained gradient max            0.00403527     0.00010000    F
constrained gradient rms            0.00198257     0.00006667    F
gradient max                        0.00403551
gradient rms                        0.00198257
cart. step max                      0.09515625     0.00100000    F
cart. step rms                      0.03138125     0.00066667    F
 
 
--------
Geometry
--------
Formula: H4IO4Pa
Atoms
  Index Symbol   x (angstrom)   y (angstrom)   z (angstrom)
      1     Pa     0.31624905    -0.13602227     0.08725891
      2      I     1.46619973     2.03697850    -1.72697571
      3      H    -1.92993405     1.86020943     0.45686052
      4      O    -1.30320495     1.13476363     0.43374278
      5      H     2.77811701    -0.02920205     1.85861948
      6      O     0.19817600    -1.37834601    -1.58425225
      7      H     0.18403317    -1.81362942    -2.43835867
      8      O    -0.48847238    -1.59505311     1.32780912
      9      H    -1.07748118    -2.21089886     1.76760102
     10      O     2.04037456    -0.00283630     1.24703454
 
Total System Charge             0.00000
Bonding info available!
 
 *** GO1_GOStep9 ***



 ======================
 RI Hartree-Fock Scheme
 ======================
  
 Fit Set Quality     : GOOD
 Threshold Quality   : GOOD
 Integration Quality : GOOD
 Response Quality    : DEFAULT
 Is Range Separated  :  F
 
 RIHartreeFock Dependency: number of modified vectors:           4
  
 Hartree-Fock exchange energy:   -680.595673733510     

 Energy gradients wrt nuclear displacements
 ==========================================

     Atom      Cartesian (a.u./angstrom)
                 X         Y         Z
 ----------------------------------------
     1 Pa    0.001862 -0.004364  0.005089
     2 I     0.002071  0.003788 -0.002952
     3 H     0.000136 -0.000305  0.000199
     4 O    -0.004555  0.004012  0.000482
     5 H    -0.000943 -0.000638 -0.000026
     6 O    -0.000029 -0.002719 -0.004784
     7 H    -0.000138  0.000019  0.000520
     8 O    -0.001243 -0.001772  0.001634
     9 H     0.000091  0.000343 -0.000425
    10 O     0.002748  0.001635  0.000262
 ----------------------------------------
 Mulliken charges used for AMS results%charges...

 dE(predicted):    -0.12254E-03, dE(actual):    -0.20265E-03, Trust radius:    0.400000, all in a.u.
 Residual max backtransformation error   0.1851E+03

 Delocalized step failed. Taking Cartesian step

 
----------------------------------------------------------------------
Geometry Convergence after Step   9       (Hartree/Angstrom,Angstrom)
----------------------------------------------------------------------
current energy                               -2.59807013 Hartree
energy change                      -0.00020265     0.00001000    F
constrained gradient max            0.00508822     0.00010000    F
constrained gradient rms            0.00232952     0.00006667    F
gradient max                        0.00508820
gradient rms                        0.00232952
cart. step max                      0.06832050     0.00100000    F
cart. step rms                      0.02300946     0.00066667    F
 
 
--------
Geometry
--------
Formula: H4IO4Pa
Atoms
  Index Symbol   x (angstrom)   y (angstrom)   z (angstrom)
      1     Pa     0.30768928    -0.14764778     0.09762961
      2      I     1.48068442     2.01205209    -1.69685230
      3      H    -1.92279543     1.86544908     0.45621301
      4      O    -1.30157983     1.13495767     0.43796549
      5      H     2.81932743     0.03911844     1.79780623
      6      O     0.20155022    -1.38500565    -1.57667292
      7      H     0.19667748    -1.79612611    -2.44329595
      8      O    -0.52000734    -1.60495412     1.32204350
      9      H    -1.09919040    -2.22604862     1.76859652
     10      O     2.02170112    -0.02583147     1.26590656
 
Total System Charge             0.00000
Bonding info available!
 
 *** GO1_GOStep10 ***



 ======================
 RI Hartree-Fock Scheme
 ======================
  
 Fit Set Quality     : GOOD
 Threshold Quality   : GOOD
 Integration Quality : GOOD
 Response Quality    : DEFAULT
 Is Range Separated  :  F
 
 RIHartreeFock Dependency: number of modified vectors:           4
  
 Hartree-Fock exchange energy:   -680.600083621778     

 Energy gradients wrt nuclear displacements
 ==========================================

     Atom      Cartesian (a.u./angstrom)
                 X         Y         Z
 ----------------------------------------
     1 Pa    0.003652 -0.002396  0.004139
     2 I     0.000727  0.001567 -0.001195
     3 H     0.000058 -0.000105  0.000094
     4 O    -0.002805  0.002432  0.000349
     5 H     0.002984 -0.000102  0.002216
     6 O     0.000109 -0.001479 -0.002148
     7 H    -0.000159 -0.000131 -0.000221
     8 O     0.000164  0.000178  0.000043
     9 H    -0.000669 -0.000458  0.000161
    10 O    -0.004062  0.000495 -0.003437
 ----------------------------------------
 Mulliken charges used for AMS results%charges...
 Rebuilding optimization coordinates
Bad geometry: could not add a dihedral for atom    5

 dE(predicted):    -0.12761E-03, dE(actual):    -0.22170E-03, Trust radius:    0.200000, all in a.u.
 
----------------------------------------------------------------------
Geometry Convergence after Step  10       (Hartree/Angstrom,Angstrom)
----------------------------------------------------------------------
current energy                               -2.59829183 Hartree
energy change                      -0.00022170     0.00001000    F
constrained gradient max            0.00413903     0.00010000    F
constrained gradient rms            0.00186708     0.00006667    F
gradient max                        0.00413902
gradient rms                        0.00186708
cart. step max                      0.08296835     0.00100000    F
cart. step rms                      0.03664538     0.00066667    F
 
 
--------
Geometry
--------
Formula: H4IO4Pa
Atoms
  Index Symbol   x (angstrom)   y (angstrom)   z (angstrom)
      1     Pa     0.32268602    -0.10664963     0.07118919
      2      I     1.47420426     2.09502043    -1.68035679
      3      H    -1.92118086     1.88588203     0.45364883
      4      O    -1.29442777     1.16035983     0.42795697
      5      H     2.80833244     0.02376412     1.80537373
      6      O     0.17741129    -1.42879045    -1.53333199
      7      H     0.15642936    -1.87657171    -2.38117844
      8      O    -0.48833243    -1.59691659     1.26597825
      9      H    -1.05191583    -2.23629466     1.70579567
     10      O     2.00085048    -0.05383984     1.29426433
 
Total System Charge             0.00000
Bonding info available!
 
 *** GO1_GOStep11 ***



 ======================
 RI Hartree-Fock Scheme
 ======================
  
 Fit Set Quality     : GOOD
 Threshold Quality   : GOOD
 Integration Quality : GOOD
 Response Quality    : DEFAULT
 Is Range Separated  :  F
 
 RIHartreeFock Dependency: number of modified vectors:           4
  
 Hartree-Fock exchange energy:   -680.602601534256     

 Energy gradients wrt nuclear displacements
 ==========================================

     Atom      Cartesian (a.u./angstrom)
                 X         Y         Z
 ----------------------------------------
     1 Pa    0.009233  0.010315 -0.004940
     2 I    -0.000375  0.003332 -0.000443
     3 H     0.000259 -0.000153 -0.000121
     4 O    -0.002485  0.002183  0.000494
     5 H     0.000041  0.000208 -0.000572
     6 O    -0.003582 -0.007384  0.005464
     7 H     0.000160  0.000624 -0.000260
     8 O     0.001800 -0.004860 -0.002091
     9 H    -0.000649 -0.000269  0.000576
    10 O    -0.004401 -0.003996  0.001893
 ----------------------------------------
 Mulliken charges used for AMS results%charges...

 dE(predicted):    -0.81592E-04, dE(actual):     0.93730E-03, Trust radius:    0.050000, all in a.u.
 
----------------------------------------------------------------------
Geometry Convergence after Step  11       (Hartree/Angstrom,Angstrom)
----------------------------------------------------------------------
current energy                               -2.59735453 Hartree
energy change                       0.00093730     0.00001000    F
constrained gradient max            0.01031385     0.00010000    F
constrained gradient rms            0.00368699     0.00006667    F
gradient max                        0.01031389
gradient rms                        0.00368699
cart. step max                      0.02645715     0.00100000    F
cart. step rms                      0.01246011     0.00066667    F
 
 
--------
Geometry
--------
Formula: H4IO4Pa
Atoms
  Index Symbol   x (angstrom)   y (angstrom)   z (angstrom)
      1     Pa     0.31872975    -0.11811268     0.07618637
      2      I     1.48159292     2.06856328    -1.68284142
      3      H    -1.92544423     1.87287858     0.45881395
      4      O    -1.29816379     1.14770068     0.43285770
      5      H     2.81436662     0.03215231     1.79686899
      6      O     0.18612287    -1.41599216    -1.54905662
      7      H     0.17054213    -1.85216487    -2.40305654
      8      O    -0.50087455    -1.59299262     1.28279602
      9      H    -1.06804063    -2.22517473     1.72768746
     10      O     2.00522584    -0.05089426     1.28908383
 
Total System Charge             0.00000
Bonding info available!
 
 *** GO1_GOStep12 ***



 ======================
 RI Hartree-Fock Scheme
 ======================
  
 Fit Set Quality     : GOOD
 Threshold Quality   : GOOD
 Integration Quality : GOOD
 Response Quality    : DEFAULT
 Is Range Separated  :  F
 
 RIHartreeFock Dependency: number of modified vectors:           4
  
 Hartree-Fock exchange energy:   -680.603125971619     

 Energy gradients wrt nuclear displacements
 ==========================================

     Atom      Cartesian (a.u./angstrom)
                 X         Y         Z
 ----------------------------------------
     1 Pa    0.006808  0.007288 -0.003872
     2 I    -0.000194  0.002362 -0.000359
     3 H     0.000016  0.000200 -0.000116
     4 O    -0.001849  0.000762  0.000842
     5 H     0.000000  0.000099 -0.000435
     6 O    -0.002429 -0.005470  0.003345
     7 H     0.000085  0.000470 -0.000314
     8 O     0.000869 -0.002976 -0.000806
     9 H    -0.000162  0.000150  0.000083
    10 O    -0.003144 -0.002886  0.001633
 ----------------------------------------
 Mulliken charges used for AMS results%charges...

 dE(predicted):    -0.54598E-03, dE(actual):    -0.44220E-03, Trust radius:    0.100000, all in a.u.
 
----------------------------------------------------------------------
Geometry Convergence after Step  12       (Hartree/Angstrom,Angstrom)
----------------------------------------------------------------------
current energy                               -2.59779673 Hartree
energy change                      -0.00044220     0.00001000    F
constrained gradient max            0.00728747     0.00010000    F
constrained gradient rms            0.00260565     0.00006667    F
gradient max                        0.00728751
gradient rms                        0.00260565
cart. step max                      0.04995027     0.00100000    F
cart. step rms                      0.01958240     0.00066667    F
 
 
--------
Geometry
--------
Formula: H4IO4Pa
Atoms
  Index Symbol   x (angstrom)   y (angstrom)   z (angstrom)
      1     Pa     0.30603897    -0.14033403     0.09802849
      2      I     1.48840546     2.01861302    -1.68295296
      3      H    -1.91948262     1.87736095     0.45327382
      4      O    -1.29993978     1.14592341     0.43614564
      5      H     2.82592330     0.06104671     1.77637170
      6      O     0.19475964    -1.39562931    -1.56129435
      7      H     0.18888085    -1.80919318    -2.42643930
      8      O    -0.52063191    -1.61227440     1.30563546
      9      H    -1.09125052    -2.24274465     1.75051892
     10      O     2.01135357    -0.03680498     1.28005235
 
Total System Charge             0.00000
Bonding info available!
 
 *** GO1_GOStep13 ***



 ======================
 RI Hartree-Fock Scheme
 ======================
  
 Fit Set Quality     : GOOD
 Threshold Quality   : GOOD
 Integration Quality : GOOD
 Response Quality    : DEFAULT
 Is Range Separated  :  F
 
 RIHartreeFock Dependency: number of modified vectors:           4
  
 Hartree-Fock exchange energy:   -680.603367067179     

 Energy gradients wrt nuclear displacements
 ==========================================

     Atom      Cartesian (a.u./angstrom)
                 X         Y         Z
 ----------------------------------------
     1 Pa    0.004600  0.001666  0.001894
     2 I     0.000120  0.001250 -0.000487
     3 H     0.000648 -0.000696 -0.000017
     4 O    -0.002549  0.002744  0.000072
     5 H    -0.000216 -0.000137 -0.000211
     6 O    -0.000673 -0.002886 -0.000207
     7 H    -0.000104  0.000342  0.000240
     8 O     0.001164 -0.001005 -0.001069
     9 H    -0.001069 -0.000792  0.000582
    10 O    -0.001920 -0.000486 -0.000797
 ----------------------------------------
 Mulliken charges used for AMS results%charges...

 dE(predicted):    -0.46156E-03, dE(actual):    -0.51299E-03, Trust radius:    0.200000, all in a.u.
 
----------------------------------------------------------------------
Geometry Convergence after Step  13       (Hartree/Angstrom,Angstrom)
----------------------------------------------------------------------
current energy                               -2.59830972 Hartree
energy change                      -0.00051299     0.00001000    F
constrained gradient max            0.00460042     0.00010000    F
constrained gradient rms            0.00145573     0.00006667    F
gradient max                        0.00460042
gradient rms                        0.00145573
cart. step max                      0.14015870     0.00100000    F
cart. step rms                      0.05649245     0.00066667    F
 
 
--------
Geometry
--------
Formula: H4IO4Pa
Atoms
  Index Symbol   x (angstrom)   y (angstrom)   z (angstrom)
      1     Pa     0.31450533    -0.14203652     0.06046984
      2      I     1.53609474     1.95967607    -1.70718981
      3      H    -1.98055002     1.75572159     0.51657793
      4      O    -1.32639087     1.05540244     0.46274409
      5      H     2.83073120     0.02972242     1.78183483
      6      O     0.22679056    -1.35221513    -1.63090021
      7      H     0.22689859    -1.76165714    -2.49807955
      8      O    -0.54288921    -1.51430206     1.34210068
      9      H    -1.12029792    -2.10258595     1.82504055
     10      O     2.01916454    -0.06176219     1.27674140
 
Total System Charge             0.00000
Bonding info available!
 
 *** GO1_GOStep14 ***



 ======================
 RI Hartree-Fock Scheme
 ======================
  
 Fit Set Quality     : GOOD
 Threshold Quality   : GOOD
 Integration Quality : GOOD
 Response Quality    : DEFAULT
 Is Range Separated  :  F
 
 RIHartreeFock Dependency: number of modified vectors:           4
  
 Hartree-Fock exchange energy:   -680.614478800575     

 Energy gradients wrt nuclear displacements
 ==========================================

     Atom      Cartesian (a.u./angstrom)
                 X         Y         Z
 ----------------------------------------
     1 Pa   -0.012723  0.003613 -0.013903
     2 I    -0.001209 -0.006454  0.002727
     3 H    -0.000325  0.001175 -0.000293
     4 O     0.005509 -0.014805  0.005250
     5 H     0.003009  0.000242  0.001746
     6 O     0.002657  0.004108 -0.001586
     7 H    -0.000259  0.000178  0.000311
     8 O    -0.004079  0.009530  0.004244
     9 H     0.004191  0.003570 -0.004035
    10 O     0.003230 -0.001157  0.005540
 ----------------------------------------
 Mulliken charges used for AMS results%charges...

 dE(predicted):    -0.47393E-03, dE(actual):     0.15661E-02, Trust radius:    0.050000, all in a.u.
 
----------------------------------------------------------------------
Geometry Convergence after Step  14       (Hartree/Angstrom,Angstrom)
----------------------------------------------------------------------
current energy                               -2.59674365 Hartree
energy change                       0.00156607     0.00001000    F
constrained gradient max            0.01481213     0.00010000    F
constrained gradient rms            0.00562959     0.00006667    F
gradient max                        0.01481231
gradient rms                        0.00562959
cart. step max                      0.03902456     0.00100000    F
cart. step rms                      0.01468824     0.00066667    F
 
 
--------
Geometry
--------
Formula: H4IO4Pa
Atoms
  Index Symbol   x (angstrom)   y (angstrom)   z (angstrom)
      1     Pa     0.31305906    -0.13845459     0.06915159
      2      I     1.52978745     1.97228442    -1.70051185
      3      H    -1.96989245     1.78776594     0.50025154
      4      O    -1.32264251     1.08114318     0.45500626
      5      H     2.82810387     0.03660445     1.78038303
      6      O     0.21767845    -1.36137812    -1.61398048
      7      H     0.21493307    -1.77488298    -2.47929523
      8      O    -0.53443148    -1.53984988     1.33278794
      9      H    -1.10888336    -2.14161051     1.80761007
     10      O     2.01634485    -0.05565837     1.27793688
 
Total System Charge             0.00000
Bonding info available!
 
 *** GO1_GOStep15 ***



 ======================
 RI Hartree-Fock Scheme
 ======================
  
 Fit Set Quality     : GOOD
 Threshold Quality   : GOOD
 Integration Quality : GOOD
 Response Quality    : DEFAULT
 Is Range Separated  :  F
 
 RIHartreeFock Dependency: number of modified vectors:           4
  
 Hartree-Fock exchange energy:   -680.609661246936     

 Energy gradients wrt nuclear displacements
 ==========================================

     Atom      Cartesian (a.u./angstrom)
                 X         Y         Z
 ----------------------------------------
     1 Pa   -0.006161  0.004254 -0.010601
     2 I    -0.000956 -0.004854  0.002118
     3 H     0.000154  0.000516 -0.000281
     4 O     0.001752 -0.009013  0.004168
     5 H     0.000924  0.000037  0.000419
     6 O     0.001744  0.002022 -0.001564
     7 H    -0.000216  0.000094 -0.000023
     8 O    -0.001207  0.007332  0.002406
     9 H     0.001071  0.000687 -0.001292
    10 O     0.002895 -0.001075  0.004651
 ----------------------------------------
 Mulliken charges used for AMS results%charges...

 dE(predicted):    -0.79261E-03, dE(actual):    -0.72903E-03, Trust radius:    0.100000, all in a.u.
 
----------------------------------------------------------------------
Geometry Convergence after Step  15       (Hartree/Angstrom,Angstrom)
----------------------------------------------------------------------
current energy                               -2.59747268 Hartree
energy change                      -0.00072903     0.00001000    F
constrained gradient max            0.01060018     0.00010000    F
constrained gradient rms            0.00367682     0.00006667    F
gradient max                        0.01060016
gradient rms                        0.00367682
cart. step max                      0.06828060     0.00100000    F
cart. step rms                      0.02664634     0.00066667    F
 
 
--------
Geometry
--------
Formula: H4IO4Pa
Atoms
  Index Symbol   x (angstrom)   y (angstrom)   z (angstrom)
      1     Pa     0.30845173    -0.14004552     0.08978050
      2      I     1.50936360     1.99657749    -1.68887169
      3      H    -1.94276573     1.84414063     0.46715428
      4      O    -1.30957787     1.12376952     0.43946395
      5      H     2.82686047     0.05177653     1.77796646
      6      O     0.20279063    -1.37595392    -1.58178338
      7      H     0.19470222    -1.79366085    -2.44508045
      8      O    -0.52545920    -1.58882947     1.31818103
      9      H    -1.09446111    -2.20989111     1.77486142
     10      O     2.01415222    -0.04191977     1.27766763
 
Total System Charge             0.00000
Bonding info available!
 
 *** GO1_GOStep16 ***



 ======================
 RI Hartree-Fock Scheme
 ======================
  
 Fit Set Quality     : GOOD
 Threshold Quality   : GOOD
 Integration Quality : GOOD
 Response Quality    : DEFAULT
 Is Range Separated  :  F
 
 RIHartreeFock Dependency: number of modified vectors:           4
  
 Hartree-Fock exchange energy:   -680.606212979915     

 Energy gradients wrt nuclear displacements
 ==========================================

     Atom      Cartesian (a.u./angstrom)
                 X         Y         Z
 ----------------------------------------
     1 Pa    0.001602  0.001630 -0.002610
     2 I    -0.000172 -0.001096  0.000373
     3 H    -0.000269  0.000569 -0.000081
     4 O    -0.000717 -0.001762  0.001352
     5 H     0.000103 -0.000112  0.000006
     6 O     0.000464  0.000015 -0.000194
     7 H    -0.000184  0.000130  0.000028
     8 O    -0.001051  0.000100  0.001648
     9 H     0.000825  0.000980 -0.000947
    10 O    -0.000602 -0.000456  0.000426
 ----------------------------------------
 Mulliken charges used for AMS results%charges...

 dE(predicted):    -0.67388E-03, dE(actual):    -0.83601E-03, Trust radius:    0.200000, all in a.u.
 
----------------------------------------------------------------------
Geometry Convergence after Step  16       (Hartree/Angstrom,Angstrom)
----------------------------------------------------------------------
current energy                               -2.59830868 Hartree
energy change                      -0.00083601     0.00001000    F
constrained gradient max            0.00261017     0.00010000    F
constrained gradient rms            0.00094358     0.00006667    F
gradient max                        0.00261014
gradient rms                        0.00094358
cart. step max                      0.03034418     0.00100000    F
cart. step rms                      0.01155453     0.00066667    F
 
 
--------
Geometry
--------
Formula: H4IO4Pa
Atoms
  Index Symbol   x (angstrom)   y (angstrom)   z (angstrom)
      1     Pa     0.30308993    -0.15108982     0.10234562
      2      I     1.50969671     1.99221288    -1.67432299
      3      H    -1.92960457     1.85835809     0.45509458
      4      O    -1.30336405     1.13167365     0.43529675
      5      H     2.83676893     0.08212071     1.75416485
      6      O     0.20362612    -1.37834454    -1.57485559
      7      H     0.19140900    -1.78570621    -2.44326448
      8      O    -0.53625982    -1.60745437     1.31895301
      9      H    -1.10251023    -2.23327153     1.77349194
     10      O     2.01120492    -0.04253532     1.28243606
 
Total System Charge             0.00000
Bonding info available!
 
 *** GO1_GOStep17 ***



 ======================
 RI Hartree-Fock Scheme
 ======================
  
 Fit Set Quality     : GOOD
 Threshold Quality   : GOOD
 Integration Quality : GOOD
 Response Quality    : DEFAULT
 Is Range Separated  :  F
 
 RIHartreeFock Dependency: number of modified vectors:           4
  
 Hartree-Fock exchange energy:   -680.606041438398     

 Energy gradients wrt nuclear displacements
 ==========================================

     Atom      Cartesian (a.u./angstrom)
                 X         Y         Z
 ----------------------------------------
     1 Pa    0.001734 -0.000739  0.000626
     2 I    -0.000017 -0.000248 -0.000091
     3 H    -0.000343  0.000485 -0.000048
     4 O    -0.000201 -0.000466  0.000332
     5 H     0.000001 -0.000115 -0.000062
     6 O     0.000671  0.000587  0.000522
     7 H    -0.000311  0.000002 -0.000280
     8 O    -0.000373 -0.000116  0.000595
     9 H     0.000275  0.000536 -0.000553
    10 O    -0.001437  0.000072 -0.001041
 ----------------------------------------
 Mulliken charges used for AMS results%charges...

 dE(predicted):    -0.41415E-04, dE(actual):    -0.66390E-04, Trust radius:    0.200000, all in a.u.
 
----------------------------------------------------------------------
Geometry Convergence after Step  17       (Hartree/Angstrom,Angstrom)
----------------------------------------------------------------------
current energy                               -2.59837507 Hartree
energy change                      -0.00006639     0.00001000    F
constrained gradient max            0.00173370     0.00010000    F
constrained gradient rms            0.00058670     0.00006667    F
gradient max                        0.00173370
gradient rms                        0.00058670
cart. step max                      0.01238467     0.00100000    F
cart. step rms                      0.00549259     0.00066667    F
 
 
--------
Geometry
--------
Formula: H4IO4Pa
Atoms
  Index Symbol   x (angstrom)   y (angstrom)   z (angstrom)
      1     Pa     0.30415148    -0.14598264     0.09921145
      2      I     1.50589664     2.00459755    -1.67189633
      3      H    -1.92820505     1.86390724     0.45270346
      4      O    -1.30227917     1.13780651     0.43247737
      5      H     2.83362259     0.07499967     1.76114611
      6      O     0.19816703    -1.38382181    -1.57084829
      7      H     0.18672720    -1.79801569    -2.43577028
      8      O    -0.53005151    -1.60840439     1.31313352
      9      H    -1.09490284    -2.23746419     1.76680728
     10      O     2.01093058    -0.04165872     1.28237547
 
Total System Charge             0.00000
Bonding info available!
 
 *** GO1_GOStep18 ***



 ======================
 RI Hartree-Fock Scheme
 ======================
  
 Fit Set Quality     : GOOD
 Threshold Quality   : GOOD
 Integration Quality : GOOD
 Response Quality    : DEFAULT
 Is Range Separated  :  F
 
 RIHartreeFock Dependency: number of modified vectors:           4
  
 Hartree-Fock exchange energy:   -680.604889352181     

 Energy gradients wrt nuclear displacements
 ==========================================

     Atom      Cartesian (a.u./angstrom)
                 X         Y         Z
 ----------------------------------------
     1 Pa    0.002289  0.000626 -0.000077
     2 I    -0.000063  0.000169  0.000018
     3 H     0.000454 -0.000463 -0.000063
     4 O    -0.001360  0.001184  0.000222
     5 H     0.000046 -0.000111 -0.000058
     6 O     0.000099 -0.000796  0.000277
     7 H    -0.000215  0.000227  0.000087
     8 O     0.000697 -0.000091 -0.000217
     9 H    -0.000773 -0.000594  0.000349
    10 O    -0.001174 -0.000151 -0.000539
 ----------------------------------------
 Mulliken charges used for AMS results%charges...

 dE(predicted):    -0.77539E-05, dE(actual):    -0.31496E-05, Trust radius:    0.200000, all in a.u.
 Oscillation detected, halving the step
 Persistent oscillations may indicate discontinuity in the atomic forces.
 
----------------------------------------------------------------------
Geometry Convergence after Step  18       (Hartree/Angstrom,Angstrom)
----------------------------------------------------------------------
current energy                               -2.59837822 Hartree
energy change                      -0.00000315     0.00001000    T
constrained gradient max            0.00228923     0.00010000    F
constrained gradient rms            0.00067194     0.00006667    F
gradient max                        0.00228923
gradient rms                        0.00067194
cart. step max                      0.00606403     0.00100000    F
cart. step rms                      0.00288469     0.00066667    F
 
 
--------
Geometry
--------
Formula: H4IO4Pa
Atoms
  Index Symbol   x (angstrom)   y (angstrom)   z (angstrom)
      1     Pa     0.30191018    -0.14973437     0.10107607
      2      I     1.50807539     1.99926575    -1.66918449
      3      H    -1.92683312     1.86360003     0.45116239
      4      O    -1.30201671     1.13643469     0.43194493
      5      H     2.83556856     0.08106370     1.75664839
      6      O     0.19914371    -1.38177181    -1.57326506
      7      H     0.18770342    -1.79215229    -2.44000015
      8      O    -0.53326533    -1.61023080     1.31638521
      9      H    -1.09702619    -2.23889581     1.77169333
     10      O     2.01079703    -0.04161557     1.28287913
 
Total System Charge             0.00000
Bonding info available!
 
 *** GO1_GOStep19 ***



 ======================
 RI Hartree-Fock Scheme
 ======================
  
 Fit Set Quality     : GOOD
 Threshold Quality   : GOOD
 Integration Quality : GOOD
 Response Quality    : DEFAULT
 Is Range Separated  :  F
 
 RIHartreeFock Dependency: number of modified vectors:           4
  
 Hartree-Fock exchange energy:   -680.604921478055     

 Energy gradients wrt nuclear displacements
 ==========================================

     Atom      Cartesian (a.u./angstrom)
                 X         Y         Z
 ----------------------------------------
     1 Pa    0.000569  0.000020 -0.000113
     2 I    -0.000017  0.000046  0.000041
     3 H     0.000387 -0.000398 -0.000063
     4 O    -0.000784  0.000844  0.000099
     5 H     0.000167 -0.000113  0.000043
     6 O     0.000387 -0.000371  0.000033
     7 H    -0.000256  0.000215  0.000116
     8 O     0.000625  0.000065 -0.000024
     9 H    -0.000612 -0.000415  0.000188
    10 O    -0.000466  0.000108 -0.000320
 ----------------------------------------
 Mulliken charges used for AMS results%charges...

 dE(predicted):    -0.77473E-05, dE(actual):    -0.12279E-04, Trust radius:    0.200000, all in a.u.
 
----------------------------------------------------------------------
Geometry Convergence after Step  19       (Hartree/Angstrom,Angstrom)
----------------------------------------------------------------------
current energy                               -2.59839050 Hartree
energy change                      -0.00001228     0.00001000    F
constrained gradient max            0.00084348     0.00010000    F
constrained gradient rms            0.00035374     0.00006667    F
gradient max                        0.00084333
gradient rms                        0.00035374
cart. step max                      0.01835938     0.00100000    F
cart. step rms                      0.00618977     0.00066667    F
 
 
--------
Geometry
--------
Formula: H4IO4Pa
Atoms
  Index Symbol   x (angstrom)   y (angstrom)   z (angstrom)
      1     Pa     0.30053045    -0.15393111     0.10375798
      2      I     1.51531345     1.99334550    -1.66271290
      3      H    -1.92583378     1.86167290     0.45312928
      4      O    -1.30142576     1.13370713     0.43406593
      5      H     2.84143562     0.09942308     1.73840522
      6      O     0.20112134    -1.38246188    -1.57359110
      7      H     0.19095639    -1.78691735    -2.44325095
      8      O    -0.54207853    -1.61113227     1.31663303
      9      H    -1.10347667    -2.23953293     1.77418081
     10      O     2.00751445    -0.04820953     1.28872246
 
Total System Charge             0.00000
Bonding info available!
 
 *** GO1_GOStep20 ***



 ======================
 RI Hartree-Fock Scheme
 ======================
  
 Fit Set Quality     : GOOD
 Threshold Quality   : GOOD
 Integration Quality : GOOD
 Response Quality    : DEFAULT
 Is Range Separated  :  F
 
 RIHartreeFock Dependency: number of modified vectors:           4
  
 Hartree-Fock exchange energy:   -680.605292708461     

 Energy gradients wrt nuclear displacements
 ==========================================

     Atom      Cartesian (a.u./angstrom)
                 X         Y         Z
 ----------------------------------------
     1 Pa    0.000490 -0.000003  0.000264
     2 I    -0.000061 -0.000063 -0.000005
     3 H    -0.000071  0.000167 -0.000090
     4 O     0.000010 -0.000270  0.000204
     5 H    -0.000041 -0.000053 -0.000176
     6 O     0.000493 -0.000141  0.000219
     7 H    -0.000290  0.000126 -0.000169
     8 O     0.000020 -0.000008  0.000275
     9 H    -0.000001  0.000227 -0.000305
    10 O    -0.000550  0.000018 -0.000219
 ----------------------------------------
 Mulliken charges used for AMS results%charges...

 dE(predicted):    -0.27899E-05, dE(actual):     0.49671E-04, Trust radius:    0.020000, all in a.u.
 
----------------------------------------------------------------------
Geometry Convergence after Step  20       (Hartree/Angstrom,Angstrom)
----------------------------------------------------------------------
current energy                               -2.59834083 Hartree
energy change                       0.00004967     0.00001000    F
constrained gradient max            0.00055109     0.00010000    F
constrained gradient rms            0.00022507     0.00006667    F
gradient max                        0.00055115
gradient rms                        0.00022507
cart. step max                      0.00863609     0.00100000    F
cart. step rms                      0.00272535     0.00066667    F
 
 
--------
Geometry
--------
Formula: H4IO4Pa
Atoms
  Index Symbol   x (angstrom)   y (angstrom)   z (angstrom)
      1     Pa     0.30055457    -0.15244426     0.10227075
      2      I     1.51345602     1.99515058    -1.66514834
      3      H    -1.92645904     1.86222470     0.45191298
      4      O    -1.30168308     1.13462695     0.43253753
      5      H     2.83865786     0.09180308     1.74704131
      6      O     0.19955775    -1.38146557    -1.57456827
      7      H     0.18875510    -1.78857958    -2.44294993
      8      O    -0.53827922    -1.61068626     1.31686500
      9      H    -1.09919448    -2.23946905     1.77469041
     10      O     2.00869148    -0.04519707     1.28668832
 
Total System Charge             0.00000
Bonding info available!
 
 *** GO1_GOStep21 ***



 ======================
 RI Hartree-Fock Scheme
 ======================
  
 Fit Set Quality     : GOOD
 Threshold Quality   : GOOD
 Integration Quality : GOOD
 Response Quality    : DEFAULT
 Is Range Separated  :  F
 
 RIHartreeFock Dependency: number of modified vectors:           4
  
 Hartree-Fock exchange energy:   -680.605098666747     

 Energy gradients wrt nuclear displacements
 ==========================================

     Atom      Cartesian (a.u./angstrom)
                 X         Y         Z
 ----------------------------------------
     1 Pa   -0.000352  0.000035 -0.000149
     2 I    -0.000008 -0.000026  0.000017
     3 H     0.000008  0.000066 -0.000077
     4 O     0.000015 -0.000100  0.000125
     5 H     0.000028 -0.000093 -0.000082
     6 O     0.000494 -0.000188  0.000073
     7 H    -0.000279  0.000146 -0.000064
     8 O     0.000224 -0.000040  0.000283
     9 H    -0.000140  0.000087 -0.000195
    10 O     0.000009  0.000112  0.000070
 ----------------------------------------
 Mulliken charges used for AMS results%charges...

 dE(predicted):    -0.13442E-05, dE(actual):    -0.39279E-04, Trust radius:    0.040000, all in a.u.
 
----------------------------------------------------------------------
Geometry Convergence after Step  21       (Hartree/Angstrom,Angstrom)
----------------------------------------------------------------------
current energy                               -2.59838011 Hartree
energy change                      -0.00003928     0.00001000    F
constrained gradient max            0.00049625     0.00010000    F
constrained gradient rms            0.00016363     0.00006667    F
gradient max                        0.00049646
gradient rms                        0.00016363
cart. step max                      0.00178825     0.00100000    F
cart. step rms                      0.00067769     0.00066667    F
 
 
--------
Geometry
--------
Formula: H4IO4Pa
Atoms
  Index Symbol   x (angstrom)   y (angstrom)   z (angstrom)
      1     Pa     0.30074010    -0.15183969     0.10173831
      2      I     1.51406635     1.99567437    -1.66552850
      3      H    -1.92678149     1.86220342     0.45190116
      4      O    -1.30159637     1.13497320     0.43209405
      5      H     2.83795310     0.09100303     1.74871258
      6      O     0.19871227    -1.38130935    -1.57475162
      7      H     0.18749428    -1.78951528    -2.44261735
      8      O    -0.53763373    -1.61048708     1.31611973
      9      H    -1.09740622    -2.23982785     1.77461351
     10      O     2.00850867    -0.04491122     1.28705786
 
Total System Charge             0.00000
Bonding info available!
 
 *** GO1_GOStep22 ***



 ======================
 RI Hartree-Fock Scheme
 ======================
  
 Fit Set Quality     : GOOD
 Threshold Quality   : GOOD
 Integration Quality : GOOD
 Response Quality    : DEFAULT
 Is Range Separated  :  F
 
 RIHartreeFock Dependency: number of modified vectors:           4
  
 Hartree-Fock exchange energy:   -680.604981346652     

 Energy gradients wrt nuclear displacements
 ==========================================

     Atom      Cartesian (a.u./angstrom)
                 X         Y         Z
 ----------------------------------------
     1 Pa   -0.000471  0.000161 -0.000248
     2 I     0.000003 -0.000000  0.000007
     3 H     0.000013  0.000065 -0.000078
     4 O     0.000025 -0.000117  0.000119
     5 H     0.000069 -0.000088 -0.000058
     6 O     0.000456 -0.000247  0.000078
     7 H    -0.000273  0.000142 -0.000073
     8 O     0.000258 -0.000060  0.000261
     9 H    -0.000161  0.000059 -0.000168
    10 O     0.000082  0.000087  0.000160
 ----------------------------------------
 Mulliken charges used for AMS results%charges...
 
----------------------------------------------------------------------
Geometry Convergence after Step  22       (Hartree/Angstrom,Angstrom)
----------------------------------------------------------------------
current energy                               -2.59838006 Hartree
energy change                       0.00000005     0.00001000    T
constrained gradient max            0.00047093     0.00010000    F
constrained gradient rms            0.00018029     0.00006667    F
gradient max                        0.00047093
gradient rms                        0.00018030
cart. step max                      0.00749011     0.00100000    F
cart. step rms                      0.00260801     0.00066667    F
 
 
--------
Geometry
--------
Formula: H4IO4Pa
Atoms
  Index Symbol   x (angstrom)   y (angstrom)   z (angstrom)
      1     Pa     0.30120590    -0.15043932     0.10018460
      2      I     1.51874765     1.99601076    -1.66567156
      3      H    -1.92766159     1.86204417     0.45179075
      4      O    -1.30074338     1.13643023     0.43002244
      5      H     2.83556204     0.09175498     1.75291384
      6      O     0.19508538    -1.38011264    -1.57599913
      7      H     0.18164889    -1.79218443    -2.44197716
      8      O    -0.53680207    -1.61049294     1.31282019
      9      H    -1.08991611    -2.24279934     1.77545350
     10      O     2.00693022    -0.04424795     1.28980228
 
Total System Charge             0.00000
Bonding info available!
 
 *** GO1_GOStep23 ***



 ======================
 RI Hartree-Fock Scheme
 ======================
  
 Fit Set Quality     : GOOD
 Threshold Quality   : GOOD
 Integration Quality : GOOD
 Response Quality    : DEFAULT
 Is Range Separated  :  F
 
 RIHartreeFock Dependency: number of modified vectors:           4
  
 Hartree-Fock exchange energy:   -680.604656610632     

 Energy gradients wrt nuclear displacements
 ==========================================

     Atom      Cartesian (a.u./angstrom)
                 X         Y         Z
 ----------------------------------------
     1 Pa   -0.000878  0.000517 -0.000499
     2 I     0.000031  0.000075 -0.000031
     3 H     0.000069  0.000012 -0.000083
     4 O     0.000051 -0.000153  0.000079
     5 H     0.000110 -0.000076 -0.000039
     6 O     0.000326 -0.000422  0.000040
     7 H    -0.000262  0.000149 -0.000053
     8 O     0.000380 -0.000067  0.000124
     9 H    -0.000248 -0.000070 -0.000049
    10 O     0.000421  0.000035  0.000512
 ----------------------------------------
 Mulliken charges used for AMS results%charges...

 dE(predicted):    -0.15801E-05, dE(actual):     0.37112E-05, Trust radius:    0.020000, all in a.u.
 
----------------------------------------------------------------------
Geometry Convergence after Step  23       (Hartree/Angstrom,Angstrom)
----------------------------------------------------------------------
current energy                               -2.59837634 Hartree
energy change                       0.00000371     0.00001000    T
constrained gradient max            0.00087770     0.00010000    F
constrained gradient rms            0.00028346     0.00006667    F
gradient max                        0.00087771
gradient rms                        0.00028346
cart. step max                      0.00714082     0.00100000    F
cart. step rms                      0.00257410     0.00066667    F
 
 
--------
Geometry
--------
Formula: H4IO4Pa
Atoms
  Index Symbol   x (angstrom)   y (angstrom)   z (angstrom)
      1     Pa     0.30147818    -0.14997561     0.09904196
      2      I     1.52440682     1.99493050    -1.66501699
      3      H    -1.92835072     1.86169310     0.45192497
      4      O    -1.29965642     1.13773469     0.42799678
      5      H     2.83336796     0.09455428     1.75535321
      6      O     0.19187001    -1.37839726    -1.57779235
      7      H     0.17615537    -1.79380133    -2.44212025
      8      O    -0.53732634    -1.61082503     1.30984347
      9      H    -1.08277529    -2.24615668     1.77744152
     10      O     2.00488739    -0.04379313     1.29266743
 
Total System Charge             0.00000
Bonding info available!
 
 *** GO1_GOStep24 ***



 ======================
 RI Hartree-Fock Scheme
 ======================
  
 Fit Set Quality     : GOOD
 Threshold Quality   : GOOD
 Integration Quality : GOOD
 Response Quality    : DEFAULT
 Is Range Separated  :  F
 
 RIHartreeFock Dependency: number of modified vectors:           4
  
 Hartree-Fock exchange energy:   -680.604532535033     

 Energy gradients wrt nuclear displacements
 ==========================================

     Atom      Cartesian (a.u./angstrom)
                 X         Y         Z
 ----------------------------------------
     1 Pa   -0.000993  0.000607 -0.000582
     2 I     0.000038  0.000099 -0.000050
     3 H     0.000096 -0.000014 -0.000087
     4 O     0.000051 -0.000173  0.000041
     5 H     0.000111 -0.000066 -0.000044
     6 O     0.000238 -0.000444  0.000031
     7 H    -0.000258  0.000146 -0.000046
     8 O     0.000402 -0.000052  0.000037
     9 H    -0.000265 -0.000134  0.000013
    10 O     0.000580  0.000031  0.000688
 ----------------------------------------
 Mulliken charges used for AMS results%charges...

 dE(predicted):    -0.12260E-05, dE(actual):     0.36875E-05, Trust radius:    0.020000, all in a.u.
 
----------------------------------------------------------------------
Geometry Convergence after Step  24       (Hartree/Angstrom,Angstrom)
----------------------------------------------------------------------
current energy                               -2.59837266 Hartree
energy change                       0.00000369     0.00001000    T
constrained gradient max            0.00099334     0.00010000    F
constrained gradient rms            0.00032595     0.00006667    F
gradient max                        0.00099334
gradient rms                        0.00032595
cart. step max                      0.00952988     0.00100000    F
cart. step rms                      0.00338479     0.00066667    F
 
 
--------
Geometry
--------
Formula: H4IO4Pa
Atoms
  Index Symbol   x (angstrom)   y (angstrom)   z (angstrom)
      1     Pa     0.30184389    -0.14977991     0.09743316
      2      I     1.53204473     1.99273681    -1.66427532
      3      H    -1.92947304     1.86087206     0.45290036
      4      O    -1.29812395     1.13938730     0.42552582
      5      H     2.82992667     0.09802941     1.75842958
      6      O     0.18827710    -1.37558007    -1.58082620
      7      H     0.16966875    -1.79566141    -2.44281835
      8      O    -0.53878185    -1.61093297     1.30620023
      9      H    -1.07324541    -2.25011817     1.78105824
     10      O     2.00192008    -0.04298952     1.29571223
 
Total System Charge             0.00000
Bonding info available!
 
 *** GO1_GOStep25 ***



 ======================
 RI Hartree-Fock Scheme
 ======================
  
 Fit Set Quality     : GOOD
 Threshold Quality   : GOOD
 Integration Quality : GOOD
 Response Quality    : DEFAULT
 Is Range Separated  :  F
 
 RIHartreeFock Dependency: number of modified vectors:           4
  
 Hartree-Fock exchange energy:   -680.604634902125     

 Energy gradients wrt nuclear displacements
 ==========================================

     Atom      Cartesian (a.u./angstrom)
                 X         Y         Z
 ----------------------------------------
     1 Pa   -0.000698  0.000432 -0.000527
     2 I     0.000026  0.000075 -0.000048
     3 H     0.000093 -0.000013 -0.000085
     4 O    -0.000013 -0.000173  0.000013
     5 H     0.000080 -0.000065 -0.000063
     6 O     0.000158 -0.000308  0.000063
     7 H    -0.000255  0.000129 -0.000041
     8 O     0.000316 -0.000006 -0.000003
     9 H    -0.000206 -0.000135  0.000022
    10 O     0.000500  0.000065  0.000670
 ----------------------------------------
 Mulliken charges used for AMS results%charges...

 dE(predicted):    -0.20100E-05, dE(actual):     0.25144E-05, Trust radius:    0.020000, all in a.u.
 
----------------------------------------------------------------------
Geometry Convergence after Step  25       (Hartree/Angstrom,Angstrom)
----------------------------------------------------------------------
current energy                               -2.59837014 Hartree
energy change                       0.00000251     0.00001000    T
constrained gradient max            0.00069799     0.00010000    F
constrained gradient rms            0.00026407     0.00006667    F
gradient max                        0.00069799
gradient rms                        0.00026407
cart. step max                      0.00879835     0.00100000    F
cart. step rms                      0.00309329     0.00066667    F
 
 
--------
Geometry
--------
Formula: H4IO4Pa
Atoms
  Index Symbol   x (angstrom)   y (angstrom)   z (angstrom)
      1     Pa     0.30183470    -0.14994551     0.09582267
      2      I     1.53902717     1.99028933    -1.66340541
      3      H    -1.93057731     1.86029355     0.45489172
      4      O    -1.29659664     1.14130079     0.42360834
      5      H     2.82622263     0.10106816     1.76050805
      6      O     0.18593545    -1.37282145    -1.58411211
      7      H     0.16504038    -1.79766332    -2.44370913
      8      O    -0.54111645    -1.61084110     1.30298632
      9      H    -1.06444706    -2.25354287     1.78521756
     10      O     1.99873409    -0.04217406     1.29753173
 
Total System Charge             0.00000
Bonding info available!
 
 *** GO1_GOStep26 ***



 ======================
 RI Hartree-Fock Scheme
 ======================
  
 Fit Set Quality     : GOOD
 Threshold Quality   : GOOD
 Integration Quality : GOOD
 Response Quality    : DEFAULT
 Is Range Separated  :  F
 
 RIHartreeFock Dependency: number of modified vectors:           4
  
 Hartree-Fock exchange energy:   -680.604930848391     

 Energy gradients wrt nuclear displacements
 ==========================================

     Atom      Cartesian (a.u./angstrom)
                 X         Y         Z
 ----------------------------------------
     1 Pa   -0.000052  0.000034 -0.000292
     2 I    -0.000002  0.000012 -0.000018
     3 H     0.000063  0.000005 -0.000077
     4 O    -0.000128 -0.000114  0.000002
     5 H     0.000052 -0.000067 -0.000076
     6 O     0.000121 -0.000067  0.000109
     7 H    -0.000258  0.000104 -0.000040
     8 O     0.000164  0.000030  0.000032
     9 H    -0.000089 -0.000070 -0.000028
    10 O     0.000128  0.000133  0.000387
 ----------------------------------------
 Mulliken charges used for AMS results%charges...
 
----------------------------------------------------------------------
Geometry Convergence after Step  26       (Hartree/Angstrom,Angstrom)
----------------------------------------------------------------------
current energy                               -2.59836952 Hartree
energy change                       0.00000062     0.00001000    T
constrained gradient max            0.00039121     0.00010000    F
constrained gradient rms            0.00012614     0.00006667    F
gradient max                        0.00039139
gradient rms                        0.00012614
cart. step max                      0.00554006     0.00100000    F
cart. step rms                      0.00207838     0.00066667    F
 
 
--------
Geometry
--------
Formula: H4IO4Pa
Atoms
  Index Symbol   x (angstrom)   y (angstrom)   z (angstrom)
      1     Pa     0.30127070    -0.15006687     0.09445807
      2      I     1.54341809     1.98880137    -1.66260494
      3      H    -1.93144668     1.86026186     0.45780208
      4      O    -1.29552904     1.14314430     0.42297474
      5      H     2.82354664     0.10301744     1.76048088
      6      O     0.18560751    -1.37133527    -1.58651966
      7      H     0.16388002    -1.79999127    -2.44419788
      8      O    -0.54388842    -1.61037251     1.30060370
      9      H    -1.05890700    -2.25545100     1.78837750
     10      O     1.99610513    -0.04204451     1.29796527
 
Total System Charge             0.00000
Bonding info available!
 
 *** GO1_GOStep27 ***



 ======================
 RI Hartree-Fock Scheme
 ======================
  
 Fit Set Quality     : GOOD
 Threshold Quality   : GOOD
 Integration Quality : GOOD
 Response Quality    : DEFAULT
 Is Range Separated  :  F
 
 RIHartreeFock Dependency: number of modified vectors:           4
  
 Hartree-Fock exchange energy:   -680.605206014638     

 Energy gradients wrt nuclear displacements
 ==========================================

     Atom      Cartesian (a.u./angstrom)
                 X         Y         Z
 ----------------------------------------
     1 Pa    0.000497 -0.000270 -0.000049
     2 I    -0.000022 -0.000045  0.000018
     3 H     0.000025  0.000035 -0.000069
     4 O    -0.000191 -0.000086  0.000016
     5 H     0.000038 -0.000066 -0.000084
     6 O     0.000123  0.000103  0.000118
     7 H    -0.000260  0.000082 -0.000043
     8 O     0.000029  0.000053  0.000103
     9 H     0.000016  0.000007 -0.000094
    10 O    -0.000254  0.000185  0.000084
 ----------------------------------------
 Mulliken charges used for AMS results%charges...
 
----------------------------------------------------------------------
Geometry Convergence after Step  27       (Hartree/Angstrom,Angstrom)
----------------------------------------------------------------------
current energy                               -2.59836984 Hartree
energy change                      -0.00000031     0.00001000    T
constrained gradient max            0.00049702     0.00010000    F
constrained gradient rms            0.00014519     0.00006667    F
gradient max                        0.00049701
gradient rms                        0.00014519
cart. step max                      0.00454042     0.00100000    F
cart. step rms                      0.00207621     0.00066667    F
 
 
--------
Geometry
--------
Formula: H4IO4Pa
Atoms
  Index Symbol   x (angstrom)   y (angstrom)   z (angstrom)
      1     Pa     0.30008039    -0.14972333     0.09275717
      2      I     1.54611575     1.98835930    -1.66224515
      3      H    -1.93240257     1.86093181     0.46230968
      4      O    -1.29458059     1.14572474     0.42321520
      5      H     2.82090616     0.10349359     1.75958146
      6      O     0.18685370    -1.37068213    -1.58859262
      7      H     0.16534577    -1.80383548    -2.44401002
      8      O    -0.54736664    -1.60935071     1.29797775
      9      H    -1.05436659    -2.25661284     1.79106926
     10      O     1.99347158    -0.04234141     1.29727703
 
Total System Charge             0.00000
Bonding info available!
 
 *** GO1_GOStep28 ***



 ======================
 RI Hartree-Fock Scheme
 ======================
  
 Fit Set Quality     : GOOD
 Threshold Quality   : GOOD
 Integration Quality : GOOD
 Response Quality    : DEFAULT
 Is Range Separated  :  F
 
 RIHartreeFock Dependency: number of modified vectors:           4
  
 Hartree-Fock exchange energy:   -680.605421911305     

 Energy gradients wrt nuclear displacements
 ==========================================

     Atom      Cartesian (a.u./angstrom)
                 X         Y         Z
 ----------------------------------------
     1 Pa    0.000913 -0.000470  0.000179
     2 I    -0.000030 -0.000085  0.000051
     3 H    -0.000010  0.000059 -0.000058
     4 O    -0.000211 -0.000064  0.000042
     5 H     0.000031 -0.000067 -0.000087
     6 O     0.000144  0.000202  0.000088
     7 H    -0.000258  0.000059 -0.000046
     8 O    -0.000075  0.000072  0.000178
     9 H     0.000092  0.000066 -0.000152
    10 O    -0.000595  0.000226 -0.000195
[...]
    30          3917.5019              32.0396

 Zero-point energy (Hartree):     0.0476

 ------------
 Normal Modes
 ------------

 Number of removed rigid normal modes: 6
 
 Mode:     7      Frequency (cm-1):       54.2958     Intensity (km/mol):        0.7589
 Index  Atom      ---- Displacements (x/y/z) ----
     1    Pa      -0.006955   0.011888   0.006767
     2     I       0.022462  -0.036909  -0.030710
     3     H      -0.177662  -0.230291   0.446624
     4     O       0.000846  -0.038811   0.205544
     5     H      -0.174703   0.201063   0.243163
     6     O      -0.053969   0.147912  -0.094970
     7     H       0.026055   0.369023  -0.212414
     8     O       0.102245  -0.172075  -0.139688
     9     H       0.253802  -0.311002  -0.173407
    10     O      -0.122302   0.182289   0.155867
 
 Mode:     8      Frequency (cm-1):       57.1125     Intensity (km/mol):        1.5169
 Index  Atom      ---- Displacements (x/y/z) ----
     1    Pa       0.010143  -0.001617   0.004925
     2     I      -0.046340   0.001558  -0.031340
     3     H       0.305195   0.285589   0.146221
     4     O       0.184758   0.169743   0.169146
     5     H      -0.169118  -0.378199   0.369233
     6     O       0.295143  -0.039420   0.014294
     7     H       0.422680   0.038396  -0.025987
     8     O      -0.218369   0.009255  -0.149158
     9     H      -0.150213   0.068591  -0.013897
    10     O      -0.066115  -0.129490   0.113271
 
 Mode:     9      Frequency (cm-1):       68.9688     Intensity (km/mol):       13.9716
 Index  Atom      ---- Displacements (x/y/z) ----
     1    Pa      -0.025058   0.007829  -0.016399
     2     I       0.020631  -0.000166   0.010872
     3     H      -0.200425  -0.212528   0.406298
     4     O       0.003216   0.007432   0.112952
     5     H       0.098851   0.181416  -0.281999
     6     O       0.106958  -0.091267   0.050858
     7     H       0.084313  -0.341658   0.184683
     8     O       0.042580   0.004243   0.018938
     9     H       0.543358  -0.100105   0.346053
    10     O       0.012350  -0.002374  -0.073408
 
 Mode:    10      Frequency (cm-1):       79.3112     Intensity (km/mol):        2.2673
 Index  Atom      ---- Displacements (x/y/z) ----
     1    Pa       0.006448  -0.026088  -0.023552
     2     I      -0.003453   0.015627   0.018309
     3     H       0.354206   0.320314  -0.115463
     4     O       0.106746   0.071047   0.054693
     5     H      -0.091735   0.347342   0.051245
     6     O      -0.090343  -0.049704  -0.006070
     7     H      -0.288040  -0.344299   0.149293
     8     O      -0.002265   0.028923   0.036826
     9     H      -0.056288   0.383788   0.426577
    10     O      -0.074720   0.158023   0.077248
 
 Mode:    11      Frequency (cm-1):      110.3999     Intensity (km/mol):       83.1946
 Index  Atom      ---- Displacements (x/y/z) ----
     1    Pa      -0.012481  -0.006732   0.006771
     2     I      -0.002779  -0.019856   0.013135
     3     H       0.219745   0.251080  -0.171416
     4     O       0.024395   0.050410  -0.002575
     5     H       0.227256   0.443133  -0.501516
     6     O       0.089156   0.063441  -0.055246
     7     H       0.292934   0.388020  -0.226729
     8     O      -0.003629  -0.018896   0.005408
     9     H      -0.163618   0.080326  -0.017151
    10     O       0.056090   0.086569  -0.091835
 
 Mode:    12      Frequency (cm-1):      139.1958     Intensity (km/mol):        5.2932
 Index  Atom      ---- Displacements (x/y/z) ----
     1    Pa       0.056449   0.093262  -0.076451
     2     I      -0.125556  -0.199494   0.166084
     3     H      -0.089985  -0.026576  -0.050833
     4     O       0.058072   0.122846  -0.130257
     5     H      -0.149372  -0.310925   0.393461
     6     O      -0.003068   0.062094  -0.063987
     7     H      -0.157811  -0.112927   0.029547
     8     O       0.092275   0.083611  -0.058192
     9     H       0.676612  -0.197947   0.125563
    10     O       0.015908   0.007989   0.007635
 
 Mode:    13      Frequency (cm-1):      149.4034     Intensity (km/mol):       37.5722
 Index  Atom      ---- Displacements (x/y/z) ----
     1    Pa      -0.007907  -0.007704  -0.000026
     2     I       0.003968   0.005023  -0.007465
     3     H       0.018486   0.034378  -0.130324
     4     O      -0.009012  -0.001844  -0.021371
     5     H      -0.099872  -0.273764   0.218683
     6     O       0.032932   0.073014  -0.063541
     7     H       0.142854   0.355674  -0.213047
     8     O       0.058644   0.028968   0.086819
     9     H       0.379977   0.247928   0.650794
    10     O      -0.027654  -0.051663   0.024558
 
 Mode:    14      Frequency (cm-1):      153.1641     Intensity (km/mol):       29.1233
 Index  Atom      ---- Displacements (x/y/z) ----
     1    Pa      -0.011200  -0.005130   0.010696
     2     I       0.002164   0.012460  -0.006565
     3     H       0.240231   0.297819  -0.285187
     4     O       0.058925   0.108817  -0.091252
     5     H      -0.032475   0.009037   0.040487
     6     O      -0.016702  -0.025723   0.028570
     7     H      -0.082994  -0.030811   0.030501
     8     O       0.066687  -0.071987  -0.020328
     9     H       0.582838  -0.590214  -0.190742
    10     O      -0.008891  -0.016075   0.006109
 
 Mode:    15      Frequency (cm-1):      168.9494     Intensity (km/mol):        8.6184
 Index  Atom      ---- Displacements (x/y/z) ----
     1    Pa      -0.010793  -0.003828  -0.016892
     2     I       0.007269   0.002937   0.012052
     3     H       0.091839   0.079490   0.118429
     4     O       0.022773   0.019149   0.064517
     5     H      -0.203940  -0.372030   0.419209
     6     O       0.005083  -0.102881   0.033554
     7     H       0.277478   0.361364  -0.212828
     8     O       0.084008   0.046444   0.119862
     9     H      -0.266178  -0.166295  -0.462243
    10     O      -0.007291   0.075425  -0.060908
 
 Mode:    16      Frequency (cm-1):      173.7805     Intensity (km/mol):        3.7548
 Index  Atom      ---- Displacements (x/y/z) ----
     1    Pa       0.011688  -0.015737  -0.002121
     2     I      -0.007991   0.010344   0.001530
     3     H      -0.357904  -0.410009   0.393140
     4     O       0.075740   0.043549  -0.064349
     5     H       0.051183   0.298440  -0.153552
     6     O      -0.057196  -0.017761  -0.011107
     7     H       0.104036   0.395133  -0.230505
     8     O      -0.112443   0.102899   0.048315
     9     H       0.283641  -0.288414  -0.074846
    10     O      -0.016620   0.016868   0.049781
 
 Mode:    17      Frequency (cm-1):      242.9188     Intensity (km/mol):      130.5082
 Index  Atom      ---- Displacements (x/y/z) ----
     1    Pa      -0.001335   0.010599  -0.015913
     2     I      -0.006782  -0.001837  -0.003167
     3     H       0.133216   0.131451   0.108294
     4     O      -0.001427   0.012398   0.016610
     5     H       0.166934   0.493553  -0.528706
     6     O       0.012905  -0.007760  -0.012957
     7     H       0.177513  -0.029434  -0.000480
     8     O       0.171170   0.022546   0.113495
     9     H      -0.340044   0.029090  -0.344681
    10     O      -0.118225  -0.205070   0.186075
 
 Mode:    18      Frequency (cm-1):      257.3000     Intensity (km/mol):      156.3031
 Index  Atom      ---- Displacements (x/y/z) ----
     1    Pa       0.006172   0.015009  -0.003432
     2     I      -0.000672   0.002217   0.005044
     3     H       0.015275   0.042252  -0.145134
     4     O      -0.021136  -0.006364   0.000653
     5     H       0.165494  -0.065824  -0.259419
     6     O      -0.098937  -0.186946   0.132649
     7     H       0.225990   0.639935  -0.305109
     8     O       0.017079  -0.078938  -0.136532
     9     H       0.024117   0.319676   0.362550
    10     O      -0.007972  -0.021119   0.034649
 
 Mode:    19      Frequency (cm-1):      264.1916     Intensity (km/mol):      114.2272
 Index  Atom      ---- Displacements (x/y/z) ----
     1    Pa       0.008988   0.004113  -0.007552
     2     I       0.002598  -0.003555  -0.000423
     3     H       0.479992   0.431619  -0.146862
     4     O      -0.103765  -0.140848   0.097048
     5     H       0.055484   0.082677  -0.107909
     6     O       0.017651  -0.020512   0.002391
     7     H      -0.343690   0.234190  -0.137496
     8     O      -0.093849   0.109171   0.014540
     9     H       0.395636  -0.344561  -0.101194
    10     O      -0.007498  -0.004473   0.029547
 
 Mode:    20      Frequency (cm-1):      270.0753     Intensity (km/mol):       25.2164
 Index  Atom      ---- Displacements (x/y/z) ----
     1    Pa      -0.002321  -0.001918   0.002191
     2     I      -0.000848   0.000557  -0.000220
     3     H       0.177023   0.117628   0.582922
     4     O       0.000559   0.013172  -0.073468
     5     H       0.230988  -0.453846  -0.278687
     6     O       0.051787  -0.000423   0.001753
     7     H      -0.488932   0.104656  -0.059733
     8     O       0.019823  -0.021847   0.003382
     9     H      -0.086996   0.068312   0.017623
    10     O      -0.021335   0.042667   0.021918
 
 Mode:    21      Frequency (cm-1):      336.5007     Intensity (km/mol):      255.5949
 Index  Atom      ---- Displacements (x/y/z) ----
     1    Pa      -0.002228   0.002752   0.002108
     2     I       0.000388  -0.000612  -0.000447
     3     H       0.083024   0.061603   0.305648
     4     O      -0.010791   0.005804  -0.034561
     5     H      -0.341075   0.582996   0.431096
     6     O       0.037031  -0.020135   0.020560
     7     H      -0.399668   0.216236  -0.110501
     8     O       0.017202  -0.024822  -0.013767
     9     H      -0.087796   0.113370   0.061413
    10     O       0.032630  -0.057128  -0.042463
 
 Mode:    22      Frequency (cm-1):      341.0113     Intensity (km/mol):      221.3928
 Index  Atom      ---- Displacements (x/y/z) ----
     1    Pa       0.002761   0.000533   0.002384
     2     I      -0.000756  -0.000071  -0.000526
     3     H       0.368136   0.289128   0.544599
     4     O      -0.032933  -0.032683  -0.053408
     5     H      -0.056559   0.048498   0.103779
     6     O      -0.063362   0.017802  -0.004203
     7     H       0.629984  -0.188224   0.112554
     8     O      -0.017376  -0.000700  -0.017880
     9     H       0.084639  -0.001187   0.074535
    10     O       0.015122  -0.000893  -0.007413
 
 Mode:    23      Frequency (cm-1):      574.9024     Intensity (km/mol):      156.8394
 Index  Atom      ---- Displacements (x/y/z) ----
     1    Pa      -0.019869  -0.033535   0.028031
     2     I       0.000812   0.001406  -0.001184
     3     H      -0.224684   0.101945   0.090506
     4     O      -0.165349   0.164986   0.022539
     5     H       0.177410  -0.032281   0.182508
     6     O       0.000161  -0.123326  -0.206865
     7     H      -0.042199  -0.199753  -0.165554
     8     O       0.237013   0.388373  -0.318981
     9     H       0.193120   0.402483  -0.340627
    10     O       0.202191   0.026034   0.122499
 
 Mode:    24      Frequency (cm-1):      595.8275     Intensity (km/mol):      248.2073
 Index  Atom      ---- Displacements (x/y/z) ----
     1    Pa      -0.038950   0.046567   0.027990
     2     I       0.001292  -0.001524  -0.000915
     3     H       0.436474  -0.317831  -0.130414
     4     O       0.404545  -0.351418  -0.086715
     5     H       0.092261   0.004646   0.085190
     6     O      -0.001322  -0.247604  -0.339757
     7     H      -0.044058  -0.268248  -0.329184
     8     O       0.010341  -0.018621  -0.005792
     9     H      -0.023650   0.026384   0.018856
    10     O       0.109748  -0.007930   0.057626
 
 Mode:    25      Frequency (cm-1):      597.4248     Intensity (km/mol):      260.7268
 Index  Atom      ---- Displacements (x/y/z) ----
     1    Pa       0.047468   0.011127   0.047754
     2     I      -0.001553  -0.000392  -0.001512
     3     H      -0.128482   0.105018   0.051280
     4     O      -0.136817   0.100909   0.008758
     5     H      -0.449548   0.008003  -0.348494
     6     O      -0.027571  -0.213986  -0.314827
     7     H      -0.025036  -0.251124  -0.295133
     8     O      -0.015146  -0.001703  -0.017936
     9     H       0.036683   0.005659   0.038407
    10     O      -0.458092  -0.034493  -0.318877
 
 Mode:    26      Frequency (cm-1):      659.1205     Intensity (km/mol):      124.7266
 Index  Atom      ---- Displacements (x/y/z) ----
     1    Pa       0.011314   0.016667  -0.013605
     2     I       0.002247   0.003873  -0.003192
     3     H      -0.255075   0.215733   0.065638
     4     O      -0.255921   0.208597   0.055858
     5     H       0.272422   0.004955   0.195533
     6     O      -0.015953  -0.198074  -0.267926
     7     H      -0.013856  -0.206332  -0.268903
     8     O      -0.168196  -0.277833   0.228187
     9     H      -0.142426  -0.293432   0.245834
    10     O       0.267571   0.013428   0.190720
 
 Mode:    27      Frequency (cm-1):     3884.7116     Intensity (km/mol):      258.6392
 Index  Atom      ---- Displacements (x/y/z) ----
     1    Pa      -0.000003  -0.000007   0.000009
     2     I      -0.000009  -0.000015   0.000012
     3     H      -0.138200   0.146428   0.013757
     4     O       0.008996  -0.009522  -0.000920
     5     H       0.005303   0.000901   0.002855
     6     O      -0.000209   0.011593   0.021653
     7     H       0.003198  -0.180634  -0.338136
     8     O       0.028314   0.038572  -0.031232
     9     H      -0.446721  -0.606596   0.490611
    10     O      -0.000657  -0.000107  -0.000375
 
 Mode:    28      Frequency (cm-1):     3887.6606     Intensity (km/mol):      358.5664
 Index  Atom      ---- Displacements (x/y/z) ----
     1    Pa      -0.000002   0.000008   0.000006
     2     I       0.000001   0.000000  -0.000002
     3     H       0.396720  -0.420947  -0.040233
     4     O      -0.025104   0.026592   0.002512
     5     H      -0.183053  -0.031064  -0.103608
     6     O      -0.000412   0.022549   0.042189
     7     H       0.006774  -0.358282  -0.670259
     8     O      -0.006025  -0.008331   0.006561
     9     H       0.095491   0.130220  -0.104365
    10     O       0.011650   0.001926   0.006545
 
 Mode:    29      Frequency (cm-1):     3891.1553     Intensity (km/mol):      357.6658
 Index  Atom      ---- Displacements (x/y/z) ----
     1    Pa       0.000008  -0.000002   0.000003
     2     I      -0.000002  -0.000000   0.000000
     3     H      -0.426326   0.451458   0.042462
     4     O       0.026840  -0.028467  -0.002726
     5     H      -0.615462  -0.102702  -0.346729
     6     O      -0.000146   0.006467   0.012050
     7     H       0.001259  -0.102329  -0.191962
     8     O      -0.007275  -0.009678   0.007789
     9     H       0.113633   0.153407  -0.123817
    10     O       0.038888   0.006509   0.021918
 
 Mode:    30      Frequency (cm-1):     3917.5019     Intensity (km/mol):       32.0396
 Index  Atom      ---- Displacements (x/y/z) ----
     1    Pa       0.000005   0.000006  -0.000005
     2     I       0.000014   0.000025  -0.000021
     3     H       0.329244  -0.349284  -0.033198
     4     O      -0.020926   0.022131   0.002124
     5     H      -0.572483  -0.095621  -0.322655
     6     O       0.000252  -0.014182  -0.026446
     7     H      -0.004316   0.223108   0.417453
     8     O       0.009715   0.013116  -0.010620
     9     H      -0.157096  -0.212702   0.171882
    10     O       0.036271   0.006029   0.020467

PES point character: Geometry corresponds to a local minimum on the PES.




 ============================
 Statistical Thermal Analysis  ***  ideal gas assumed  ***
 ============================
  
 Pressure:                  1.000000 atm.
 Temperature:             298.150000 K



 Moments of Inertia [amu*bohr^2] and principal axis
 ==================================================

         839.9385       3819.2701       3836.9127
 ------------------------------------------------
          -0.4139         -0.6675         -0.6189
          -0.7034         -0.1970          0.6829
           0.5778         -0.7181          0.3880


 The rotational contribution to the molecular entropy includes
 a term, dependent on the symmetry number sigma. The results 
 reported below were computed using sigma = 1, determined from
 the point group symmetry of the input geometry (NOSYM). 
 If this is not the correct symmetry, try symmetrizing the molecule before
 running the calculation (note: linear molecules should be aligned along one
 of the Cartesian axes).
 Contributions from frequencies below 20 1/cm are not included in vibrational sums.
 Their contributions, if any, are reported separately.


     Temp                                                        Transl      Rotat     Vibrat     Total
     ----                                                        ------      -----     ------     -----

     298.15   Entropy (cal/mol-K):                               44.038     30.888     44.421    119.347
              Nuclear Internal Energy (kcal/mol):                 0.889      0.889     36.346     38.124
              Constant Volume Heat Capacity (cal/mol-K):          2.981      2.981     33.556     39.518
          (c) Constant Volume Heat Capacity (cal/mol-K):          2.981      2.981     29.149     35.111

       Summary of energy terms
                                                   hartree              eV         kcal/mol           kJ/mol
                                      --------------------     -----------       ----------      -----------
      Energy from Engine:               -2.598396692499146        -70.7060         -1630.52         -6822.09
      Nuclear Internal Energy:           0.060753760085335          1.6532            38.12           159.51
  (c) Nuclear Internal Energy:           0.058498269342432          1.5918            36.71           153.59
      Internal Energy U:                -2.537642932413811        -69.0528         -1592.40         -6662.58
      pV/n = RT:                         0.000944186013486          0.0257             0.59             2.48
      Enthalpy H:                       -2.536698746400325        -69.0271         -1591.80         -6660.10
      -T*S:                             -0.056705618432708         -1.5430           -35.58          -148.88
  (c) -T*S:                             -0.054887086073968         -1.4936           -34.44          -144.11
      Gibbs free energy:                -2.593404364833034        -70.5701         -1627.39         -6808.98
 
 
 
  (c) The properties marked with this symbol have been corrected using 'low vibrational frequency free rotor
      interpolation corrections'. For those terms all positive frequencies are used (also ones below 20 1/cm),
      but the contribution to the partition function of small vibrational frequencies is modified as described
      in the following paper:
      S. Grimme, 'Supramolecular Binding Thermodynamics by Dispersion-Corrected Density Functional Theory'
      (Chem. Eur. J. 2012, 18, 9955-9964)
      Configuration: Dampener Frequency          :   100.000 1/cm
                     Dampener Alpha              :     4.000
                     Averaging Moment of Inertia : 1.000E-44 kg m2

--------------
Atomic charges
--------------
  Index   Atom    Charge
      1     Pa    2.6416
      2      I   -0.4084
      3      H    0.0229
      4      O   -0.5771
      5      H    0.0215
      6      O   -0.5761
      7      H    0.0223
      8      O   -0.5834
      9      H    0.0109
     10      O   -0.5743


Dipole moment vector    (Debye):    -1.80775795   -2.85473811    2.32053218
              magnitude (Debye):     4.09907161


Final PES point is a local minimum. Geometry optimization successful!


AMS application finished. Exiting.
NORMAL TERMINATION
     Total cpu time:  105942.27
  Total system time:    3173.27
 Total elapsed time:  109116.62
