 Entering Gaussian System, Link 0=/home/pcmt/gaussian/g16.C.01/g16/g16
 AtFile(1): /home/shaaban/basis.gaussian/Pa-def-TZVP
 AtFile(1): /home/shaaban/basis.gaussian/Pa-ECP60MWB
 Initial command:
 /home/pcmt/gaussian/g16.C.01/g16/l1.exe "/state/partition2/shaaban/971613.phlam-s-sakura/Gau-12539.inp" -scrdir="/state/partition2/shaaban/971613.phlam-s-sakura/"
 Entering Link 1 = /home/pcmt/gaussian/g16.C.01/g16/l1.exe PID=     12540.
  
 Copyright (c) 1988-2019, Gaussian, Inc.  All Rights Reserved.
  
 This is part of the Gaussian(R) 16 program.  It is based on
 the Gaussian(R) 09 system (copyright 2009, Gaussian, Inc.),
 the Gaussian(R) 03 system (copyright 2003, Gaussian, Inc.),
 the Gaussian(R) 98 system (copyright 1998, Gaussian, Inc.),
 the Gaussian(R) 94 system (copyright 1995, Gaussian, Inc.),
 the Gaussian 92(TM) system (copyright 1992, Gaussian, Inc.),
 the Gaussian 90(TM) system (copyright 1990, Gaussian, Inc.),
 the Gaussian 88(TM) system (copyright 1988, Gaussian, Inc.),
 the Gaussian 86(TM) system (copyright 1986, Carnegie Mellon
 University), and the Gaussian 82(TM) system (copyright 1983,
 Carnegie Mellon University). Gaussian is a federally registered
 trademark of Gaussian, Inc.
  
 This software contains proprietary and confidential information,
 including trade secrets, belonging to Gaussian, Inc.
  
 This software is provided under written license and may be
 used, copied, transmitted, or stored only in accord with that
 written license.
  
 The following legend is applicable only to US Government
 contracts under FAR:
  
                    RESTRICTED RIGHTS LEGEND
  
 Use, reproduction and disclosure by the US Government is
 subject to restrictions as set forth in subparagraphs (a)
 and (c) of the Commercial Computer Software - Restricted
 Rights clause in FAR 52.227-19.
  
 Gaussian, Inc.
 340 Quinnipiac St., Bldg. 40, Wallingford CT 06492
  
  
 ---------------------------------------------------------------
 Warning -- This program may not be used in any manner that
 competes with the business of Gaussian, Inc. or will provide
 assistance to any competitor of Gaussian, Inc.  The licensee
 of this program is prohibited from giving any competitor of
 Gaussian, Inc. access to this program.  By using this program,
 the user acknowledges that Gaussian, Inc. is engaged in the
 business of creating and licensing software in the field of
 computational chemistry and represents and warrants to the
 licensee that it is not a competitor of Gaussian, Inc. and that
 it will not use this program in any manner prohibited above.
 ---------------------------------------------------------------
  

 Cite this work as:
 Gaussian 16, Revision C.01,
 M. J. Frisch, G. W. Trucks, H. B. Schlegel, G. E. Scuseria, 
 M. A. Robb, J. R. Cheeseman, G. Scalmani, V. Barone, 
 G. A. Petersson, H. Nakatsuji, X. Li, M. Caricato, A. V. Marenich, 
 J. Bloino, B. G. Janesko, R. Gomperts, B. Mennucci, H. P. Hratchian, 
 J. V. Ortiz, A. F. Izmaylov, J. L. Sonnenberg, D. Williams-Young, 
 F. Ding, F. Lipparini, F. Egidi, J. Goings, B. Peng, A. Petrone, 
 T. Henderson, D. Ranasinghe, V. G. Zakrzewski, J. Gao, N. Rega, 
 G. Zheng, W. Liang, M. Hada, M. Ehara, K. Toyota, R. Fukuda, 
 J. Hasegawa, M. Ishida, T. Nakajima, Y. Honda, O. Kitao, H. Nakai, 
 T. Vreven, K. Throssell, J. A. Montgomery, Jr., J. E. Peralta, 
 F. Ogliaro, M. J. Bearpark, J. J. Heyd, E. N. Brothers, K. N. Kudin, 
 V. N. Staroverov, T. A. Keith, R. Kobayashi, J. Normand, 
 K. Raghavachari, A. P. Rendell, J. C. Burant, S. S. Iyengar, 
 J. Tomasi, M. Cossi, J. M. Millam, M. Klene, C. Adamo, R. Cammi, 
 J. W. Ochterski, R. L. Martin, K. Morokuma, O. Farkas, 
 J. B. Foresman, and D. J. Fox, Gaussian, Inc., Wallingford CT, 2019.
 
 ******************************************
 Gaussian 16:  ES64L-G16RevC.01  3-Jul-2019
                22-Jun-2023 
 ******************************************
 %mem=16Gb
 %NProc=8
 Will use up to    8 processors via shared memory.
 %chk=pao_oh3_h2o-bp86-cosmors-deftzvp-klamt.chk
 ----------------------------------------------------------------------
 #p BP86/GEN Pseudo=Read GFInput GFPrint IOP(6/7=3) Symm=(Loose) Int=(U
 ltraFine) Guess=(Harris) SCRF=(COSMORS,Read) Scf=(NoVarAcc,MaxCycle=10
 0,conver=8)
 ----------------------------------------------------------------------
 1/38=1,40=2,172=1/1;
 2/12=2,17=4,18=3,40=1/2;
 3/5=7,11=2,16=1,17=8,24=110,25=1,30=1,70=12103,74=404,75=-5/1,2,3;
 4/11=8/1;
 5/5=2,6=8,7=100,38=1/2;
 6/7=3,8=2,9=2,10=2,28=1/1;
 99/5=1,9=1/99;
 Leave Link    1 at Thu Jun 22 13:38:32 2023, MaxMem=  2147483648 cpu:               0.7 elap:               0.1
 (Enter /home/pcmt/gaussian/g16.C.01/g16/l101.exe)
 --------------------------------------------------------------
 pao_oh3_h2o-bp86-cosmors-deftzvp-kalmt. SGP in PCM calculation
 --------------------------------------------------------------
 Symbolic Z-matrix:
 Charge =  0 Multiplicity = 1
 Pa                   -0.13463   0.14011   0.82097 
 O                     1.19938   1.47324  -0.24656 
 O                    -1.74678   0.90122  -0.34131 
 O                    -0.59684   1.43344   2.53424 
 H                    -1.85337   1.66881  -0.91781 
 O                     0.01381  -1.66881  -0.97058 
 H                    -0.42101  -1.64558  -1.83288 
 H                     0.70631  -2.34004  -1.02278 
 H                     2.15414   1.53579  -0.12951 
 O                     1.19812  -0.82246   1.73184 
 H                    -1.26157   2.13185   2.52395 
 
 ITRead=  0  0  0  0  0  0  0  0  0  0  0
 MicOpt= -1 -1 -1 -1 -1 -1 -1 -1 -1 -1 -1
 NAtoms=     11 NQM=       11 NQMF=       0 NMMI=      0 NMMIF=      0
                NMic=       0 NMicF=      0.
                    Isotopes and Nuclear Properties:
 (Nuclear quadrupole moments (NQMom) in fm**2, nuclear magnetic moments (NMagM)
  in nuclear magnetons)

  Atom         1           2           3           4           5           6           7           8           9          10
 IAtWgt=         231          16          16          16           1          16           1           1           1          16
 AtmWgt= 231.0359000  15.9949146  15.9949146  15.9949146   1.0078250  15.9949146   1.0078250   1.0078250   1.0078250  15.9949146
 NucSpn=           3           0           0           0           1           0           1           1           1           0
 AtZEff=  -0.0000000  -0.0000000  -0.0000000  -0.0000000  -0.0000000  -0.0000000  -0.0000000  -0.0000000  -0.0000000  -0.0000000
 NQMom= -172.0000000   0.0000000   0.0000000   0.0000000   0.0000000   0.0000000   0.0000000   0.0000000   0.0000000   0.0000000
 NMagM=    2.0100000   0.0000000   0.0000000   0.0000000   2.7928460   0.0000000   2.7928460   2.7928460   2.7928460   0.0000000
 AtZNuc=  91.0000000   8.0000000   8.0000000   8.0000000   1.0000000   8.0000000   1.0000000   1.0000000   1.0000000   8.0000000

  Atom        11
 IAtWgt=           1
 AtmWgt=   1.0078250
 NucSpn=           1
 AtZEff=  -0.0000000
 NQMom=    0.0000000
 NMagM=    2.7928460
 AtZNuc=   1.0000000
 Leave Link  101 at Thu Jun 22 13:38:32 2023, MaxMem=  2147483648 cpu:               1.1 elap:               0.2
 (Enter /home/pcmt/gaussian/g16.C.01/g16/l202.exe)
                          Input orientation:                          
 ---------------------------------------------------------------------
 Center     Atomic      Atomic             Coordinates (Angstroms)
 Number     Number       Type             X           Y           Z
 ---------------------------------------------------------------------
      1         91           0       -0.134634    0.140115    0.820971
      2          8           0        1.199376    1.473242   -0.246558
      3          8           0       -1.746783    0.901221   -0.341311
      4          8           0       -0.596841    1.433445    2.534235
      5          1           0       -1.853370    1.668809   -0.917810
      6          8           0        0.013805   -1.668808   -0.970577
      7          1           0       -0.421010   -1.645576   -1.832878
      8          1           0        0.706314   -2.340037   -1.022777
      9          1           0        2.154138    1.535789   -0.129513
     10          8           0        1.198117   -0.822459    1.731836
     11          1           0       -1.261571    2.131846    2.523954
 ---------------------------------------------------------------------
                    Distance matrix (angstroms):
                    1          2          3          4          5
     1  Pa   0.000000
     2  O    2.167125   0.000000
     3  O    2.128193   3.002672   0.000000
     4  O    2.195818   3.310709   3.142355   0.000000
     5  H    2.883456   3.131786   0.965869   3.681152   0.000000
     6  O    2.550270   3.435442   3.178159   4.720230   3.824764
     7  H    3.211482   3.856046   3.235525   5.346304   3.724803
     8  H    3.202772   3.922592   4.121630   5.346935   4.757504
     9  H    2.844258   0.963941   3.957868   3.830655   4.086469
    10  O    1.879480   3.030559   3.992674   2.992461   4.747485
    11  H    2.852566   3.763742   3.155885   0.964227   3.522835
                    6          7          8          9         10
     6  O    0.000000
     7  H    0.966006   0.000000
     8  H    0.965837   1.552223   0.000000
     9  H    3.944345   4.433275   4.232747   0.000000
    10  O    3.069517   4.000784   3.183207   3.152765   0.000000
    11  H    5.318204   5.827301   6.037351   4.366147   3.924975
                   11
    11  H    0.000000
 Stoichiometry    H5O5Pa
 Framework group  C1[X(H5O5Pa)]
 Deg. of freedom    27
 Full point group                 C1      NOp   1
 Largest Abelian subgroup         C1      NOp   1
 Largest concise Abelian subgroup C1      NOp   1
                         Standard orientation:                         
 ---------------------------------------------------------------------
 Center     Atomic      Atomic             Coordinates (Angstroms)
 Number     Number       Type             X           Y           Z
 ---------------------------------------------------------------------
      1         91           0       -0.067001   -0.055733   -0.104854
      2          8           0        0.001199    0.182382    2.048069
      3          8           0        0.008042    2.062811   -0.292867
      4          8           0       -2.246464   -0.125030   -0.363217
      5          1           0       -0.113420    2.795109    0.325105
      6          8           0        2.470304    0.053830   -0.337147
      7          1           0        3.008792    0.853015   -0.270061
      8          1           0        3.068142   -0.697645   -0.233628
      9          1           0        0.020073   -0.528859    2.698425
     10          8           0        0.132792   -1.924440   -0.126389
     11          1           0       -2.813519    0.653673   -0.405703
 ---------------------------------------------------------------------
 Rotational constants (GHZ):           2.2841036           1.7492608           1.4661962
 Leave Link  202 at Thu Jun 22 13:38:33 2023, MaxMem=  2147483648 cpu:               0.2 elap:               0.1
 (Enter /home/pcmt/gaussian/g16.C.01/g16/l301.exe)
 General basis read from cards:  (5D, 7F)
 Centers:       1
 S 3 1.00
     Exponent=  1.2047376000D+04 Coefficients=  3.4500000000D-04
     Exponent=  1.8116841000D+03 Coefficients=  2.7420000000D-03
     Exponent=  3.4770104000D+02 Coefficients=  1.0053000000D-02
 S 1 1.00
     Exponent=  9.8678010000D+01 Coefficients=  1.0000000000D+00
 S 3 1.00
     Exponent=  5.7507376000D+01 Coefficients=  5.1528000000D-02
     Exponent=  3.3502601000D+01 Coefficients= -2.3692400000D-01
     Exponent=  1.9554451000D+01 Coefficients=  7.1904800000D-01
 S 1 1.00
     Exponent=  9.7164210000D+00 Coefficients=  1.0000000000D+00
 S 1 1.00
     Exponent=  2.6920960000D+00 Coefficients=  1.0000000000D+00
 S 1 1.00
     Exponent=  1.4538470000D+00 Coefficients=  1.0000000000D+00
 S 1 1.00
     Exponent=  5.7435200000D-01 Coefficients=  1.0000000000D+00
 S 1 1.00
     Exponent=  2.6346800000D-01 Coefficients=  1.0000000000D+00
 S 1 1.00
     Exponent=  5.6557000000D-02 Coefficients=  1.0000000000D+00
 S 1 1.00
     Exponent=  2.3169000000D-02 Coefficients=  1.0000000000D+00
 P 5 1.00
     Exponent=  2.9033676000D+03 Coefficients=  3.5000000000D-05
     Exponent=  6.4486356000D+02 Coefficients=  2.0500000000D-04
     Exponent=  2.2025896000D+02 Coefficients=  1.2510000000D-03
     Exponent=  8.0276401000D+01 Coefficients=  2.4570000000D-03
     Exponent=  2.4080211000D+01 Coefficients=  1.1190000000D-02
 P 1 1.00
     Exponent=  1.4077580000D+01 Coefficients=  1.0000000000D+00
 P 1 1.00
     Exponent=  8.2658460000D+00 Coefficients=  1.0000000000D+00
 P 1 1.00
     Exponent=  3.5948000000D+00 Coefficients=  1.0000000000D+00
 P 1 1.00
     Exponent=  1.7531110000D+00 Coefficients=  1.0000000000D+00
 P 1 1.00
     Exponent=  6.5776700000D-01 Coefficients=  1.0000000000D+00
 P 1 1.00
     Exponent=  2.8463900000D-01 Coefficients=  1.0000000000D+00
 P 1 1.00
     Exponent=  1.0054300000D-01 Coefficients=  1.0000000000D+00
 P 1 1.00
     Exponent=  3.0190000000D-02 Coefficients=  1.0000000000D+00
 D 6 1.00
     Exponent=  4.4814991000D+02 Coefficients=  2.6000000000D-05
     Exponent=  1.5446145000D+02 Coefficients=  2.2800000000D-04
     Exponent=  6.0925377000D+01 Coefficients=  9.0400000000D-04
     Exponent=  1.7032091000D+01 Coefficients=  2.5647000000D-02
     Exponent=  1.0018877000D+01 Coefficients= -1.0575100000D-01
     Exponent=  3.4091930000D+00 Coefficients=  4.4743200000D-01
 D 1 1.00
     Exponent=  1.6702130000D+00 Coefficients=  1.0000000000D+00
 D 1 1.00
     Exponent=  7.4109500000D-01 Coefficients=  1.0000000000D+00
 D 1 1.00
     Exponent=  2.6139300000D-01 Coefficients=  1.0000000000D+00
 D 1 1.00
     Exponent=  8.2811000000D-02 Coefficients=  1.0000000000D+00
 F 5 1.00
     Exponent=  8.7991327000D+01 Coefficients=  2.2600000000D-04
     Exponent=  2.8340195000D+01 Coefficients=  2.3230000000D-03
     Exponent=  1.2440994000D+01 Coefficients=  4.5850000000D-03
     Exponent=  3.9572960000D+00 Coefficients=  1.5696100000D-01
     Exponent=  1.8759440000D+00 Coefficients=  3.4497700000D-01
 F 1 1.00
     Exponent=  8.2758900000D-01 Coefficients=  1.0000000000D+00
 F 1 1.00
     Exponent=  3.3274800000D-01 Coefficients=  1.0000000000D+00
 F 1 1.00
     Exponent=  1.1468500000D-01 Coefficients=  1.0000000000D+00
 G 1 1.00
     Exponent=  3.5000000000D-01 Coefficients=  1.0000000000D+00
 ****
 Centers:       2      3      4      6     10
 Def2TZVP
 ****
 Centers:       5      7      8      9     11
 Def2TZVP
 ****
 ======================================================================================================
                                       Pseudopotential Parameters
 ======================================================================================================
  Center     Atomic      Valence      Angular      Power
  Number     Number     Electrons     Momentum     of R      Exponent        Coefficient   SO-Coeffient
 ======================================================================================================
    1         91           31
                                      H and up 
                                                     2        1.0000000        0.00000000    0.00000000
                                      S - H
                                                     2       15.2691737      475.47573283    0.00000000
                                      P - H
                                                     2        9.9577370      207.66485962    0.00000000
                                      D - H
                                                     2        8.9431413      156.67411988    0.00000000
                                      F - H
                                                     2        7.0104666       67.98223685    0.00000000
                                      G - H
                                                     2       12.2010560      -57.63059989    0.00000000
    2          8
                                   No pseudopotential on this center.
    3          8
                                   No pseudopotential on this center.
    4          8
                                   No pseudopotential on this center.
    5          1
                                   No pseudopotential on this center.
    6          8
                                   No pseudopotential on this center.
    7          1
                                   No pseudopotential on this center.
    8          1
                                   No pseudopotential on this center.
    9          1
                                   No pseudopotential on this center.
   10          8
                                   No pseudopotential on this center.
   11          1
                                   No pseudopotential on this center.
 ======================================================================================================
 Ernie: Thresh=  0.10000D-02 Tol=  0.10000D-05 Strict=F.
 AO basis set in the form of general basis input (Overlap normalization):
      1 0
 S   3 1.00       0.000000000000
      0.1204737600D+05  0.2857094961D-01
      0.1811684100D+04  0.2270769386D+00
      0.3477010400D+03  0.8325326273D+00
 S   3 1.00       0.000000000000
      0.5750737600D+02  0.9569327984D-01
      0.3350260100D+02 -0.4399944619D+00
      0.1955445100D+02  0.1335352847D+01
 S   1 1.00       0.000000000000
      0.9867801000D+02  0.1000000000D+01
 S   1 1.00       0.000000000000
      0.9716421000D+01  0.1000000000D+01
 S   1 1.00       0.000000000000
      0.2692096000D+01  0.1000000000D+01
 S   1 1.00       0.000000000000
      0.1453847000D+01  0.1000000000D+01
 S   1 1.00       0.000000000000
      0.5743520000D+00  0.1000000000D+01
 S   1 1.00       0.000000000000
      0.2634680000D+00  0.1000000000D+01
 S   1 1.00       0.000000000000
      0.5655700000D-01  0.1000000000D+01
 S   1 1.00       0.000000000000
      0.2316900000D-01  0.1000000000D+01
 P   5 1.00       0.000000000000
      0.2903367600D+04  0.2594222647D-02
      0.6448635600D+03  0.1519473264D-01
      0.2202589600D+03  0.9272492945D-01
      0.8027640100D+02  0.1821144298D+00
      0.2408021100D+02  0.8294100404D+00
 P   1 1.00       0.000000000000
      0.1407758000D+02  0.1000000000D+01
 P   1 1.00       0.000000000000
      0.8265846000D+01  0.1000000000D+01
 P   1 1.00       0.000000000000
      0.3594800000D+01  0.1000000000D+01
 P   1 1.00       0.000000000000
      0.1753111000D+01  0.1000000000D+01
 P   1 1.00       0.000000000000
      0.6577670000D+00  0.1000000000D+01
 P   1 1.00       0.000000000000
      0.2846390000D+00  0.1000000000D+01
 P   1 1.00       0.000000000000
      0.1005430000D+00  0.1000000000D+01
 P   1 1.00       0.000000000000
      0.3019000000D-01  0.1000000000D+01
 D   6 1.00       0.000000000000
      0.4481499100D+03  0.6556927566D-04
      0.1544614500D+03  0.5749921096D-03
      0.6092537700D+02  0.2279793277D-02
      0.1703209100D+02  0.6467904664D-01
      0.1001887700D+02 -0.2666929411D+00
      0.3409193000D+01  0.1128376621D+01
 D   1 1.00       0.000000000000
      0.1670213000D+01  0.1000000000D+01
 D   1 1.00       0.000000000000
      0.7410950000D+00  0.1000000000D+01
 D   1 1.00       0.000000000000
      0.2613930000D+00  0.1000000000D+01
 D   1 1.00       0.000000000000
      0.8281100000D-01  0.1000000000D+01
 F   5 1.00       0.000000000000
      0.8799132700D+02  0.4766318191D-03
      0.2834019500D+02  0.4899184583D-02
      0.1244099400D+02  0.9669720755D-02
      0.3957296000D+01  0.3310292343D+00
      0.1875944000D+01  0.7275531640D+00
 F   1 1.00       0.000000000000
      0.8275890000D+00  0.1000000000D+01
 F   1 1.00       0.000000000000
      0.3327480000D+00  0.1000000000D+01
 F   1 1.00       0.000000000000
      0.1146850000D+00  0.1000000000D+01
 G   1 1.00       0.000000000000
      0.3500000000D+00  0.1000000000D+01
 ****
      2 0
 S   6 1.00       0.000000000000
      0.2703238263D+05  0.5722733521D-03
      0.4052387139D+04  0.4435323349D-02
      0.9223272271D+03  0.2302010771D-01
      0.2612407099D+03  0.9282249067D-01
      0.8535464135D+02  0.2937850001D+00
      0.3103503524D+02  0.6740160450D+00
 S   2 1.00       0.000000000000
      0.1226086073D+02  0.6383993703D+00
      0.4998707601D+01  0.3953458713D+00
 S   1 1.00       0.000000000000
      0.1170310816D+01  0.1000000000D+01
 S   1 1.00       0.000000000000
      0.4647474099D+00  0.1000000000D+01
 S   1 1.00       0.000000000000
      0.1850453636D+00  0.1000000000D+01
 P   4 1.00       0.000000000000
      0.6327495480D+02  0.1201833222D-01
      0.1462704938D+02  0.8300542179D-01
      0.4450122346D+01  0.3199174393D+00
      0.1527579965D+01  0.7071554292D+00
 P   1 1.00       0.000000000000
      0.5293511794D+00  0.1000000000D+01
 P   1 1.00       0.000000000000
      0.1747842127D+00  0.1000000000D+01
 D   1 1.00       0.000000000000
      0.2314000000D+01  0.1000000000D+01
 D   1 1.00       0.000000000000
      0.6450000000D+00  0.1000000000D+01
 F   1 1.00       0.000000000000
      0.1428000000D+01  0.1000000000D+01
 ****
      3 0
 S   6 1.00       0.000000000000
      0.2703238263D+05  0.5722733521D-03
      0.4052387139D+04  0.4435323349D-02
      0.9223272271D+03  0.2302010771D-01
      0.2612407099D+03  0.9282249067D-01
      0.8535464135D+02  0.2937850001D+00
      0.3103503524D+02  0.6740160450D+00
 S   2 1.00       0.000000000000
      0.1226086073D+02  0.6383993703D+00
      0.4998707601D+01  0.3953458713D+00
 S   1 1.00       0.000000000000
      0.1170310816D+01  0.1000000000D+01
 S   1 1.00       0.000000000000
      0.4647474099D+00  0.1000000000D+01
 S   1 1.00       0.000000000000
      0.1850453636D+00  0.1000000000D+01
 P   4 1.00       0.000000000000
      0.6327495480D+02  0.1201833222D-01
      0.1462704938D+02  0.8300542179D-01
      0.4450122346D+01  0.3199174393D+00
      0.1527579965D+01  0.7071554292D+00
 P   1 1.00       0.000000000000
      0.5293511794D+00  0.1000000000D+01
 P   1 1.00       0.000000000000
      0.1747842127D+00  0.1000000000D+01
 D   1 1.00       0.000000000000
      0.2314000000D+01  0.1000000000D+01
 D   1 1.00       0.000000000000
      0.6450000000D+00  0.1000000000D+01
 F   1 1.00       0.000000000000
      0.1428000000D+01  0.1000000000D+01
 ****
      4 0
 S   6 1.00       0.000000000000
      0.2703238263D+05  0.5722733521D-03
      0.4052387139D+04  0.4435323349D-02
      0.9223272271D+03  0.2302010771D-01
      0.2612407099D+03  0.9282249067D-01
      0.8535464135D+02  0.2937850001D+00
      0.3103503524D+02  0.6740160450D+00
 S   2 1.00       0.000000000000
      0.1226086073D+02  0.6383993703D+00
      0.4998707601D+01  0.3953458713D+00
 S   1 1.00       0.000000000000
      0.1170310816D+01  0.1000000000D+01
 S   1 1.00       0.000000000000
      0.4647474099D+00  0.1000000000D+01
 S   1 1.00       0.000000000000
      0.1850453636D+00  0.1000000000D+01
 P   4 1.00       0.000000000000
      0.6327495480D+02  0.1201833222D-01
      0.1462704938D+02  0.8300542179D-01
      0.4450122346D+01  0.3199174393D+00
      0.1527579965D+01  0.7071554292D+00
 P   1 1.00       0.000000000000
      0.5293511794D+00  0.1000000000D+01
 P   1 1.00       0.000000000000
      0.1747842127D+00  0.1000000000D+01
 D   1 1.00       0.000000000000
      0.2314000000D+01  0.1000000000D+01
 D   1 1.00       0.000000000000
      0.6450000000D+00  0.1000000000D+01
 F   1 1.00       0.000000000000
      0.1428000000D+01  0.1000000000D+01
 ****
      5 0
 S   3 1.00       0.000000000000
      0.3406134100D+02  0.2543930721D-01
      0.5123574600D+01  0.1900859489D+00
      0.1164662600D+01  0.8524411301D+00
 S   1 1.00       0.000000000000
      0.3272304100D+00  0.1000000000D+01
 S   1 1.00       0.000000000000
      0.1030724100D+00  0.1000000000D+01
 P   1 1.00       0.000000000000
      0.8000000000D+00  0.1000000000D+01
 ****
      6 0
 S   6 1.00       0.000000000000
      0.2703238263D+05  0.5722733521D-03
      0.4052387139D+04  0.4435323349D-02
      0.9223272271D+03  0.2302010771D-01
      0.2612407099D+03  0.9282249067D-01
      0.8535464135D+02  0.2937850001D+00
      0.3103503524D+02  0.6740160450D+00
 S   2 1.00       0.000000000000
      0.1226086073D+02  0.6383993703D+00
      0.4998707601D+01  0.3953458713D+00
 S   1 1.00       0.000000000000
      0.1170310816D+01  0.1000000000D+01
 S   1 1.00       0.000000000000
      0.4647474099D+00  0.1000000000D+01
 S   1 1.00       0.000000000000
      0.1850453636D+00  0.1000000000D+01
 P   4 1.00       0.000000000000
      0.6327495480D+02  0.1201833222D-01
      0.1462704938D+02  0.8300542179D-01
      0.4450122346D+01  0.3199174393D+00
      0.1527579965D+01  0.7071554292D+00
 P   1 1.00       0.000000000000
      0.5293511794D+00  0.1000000000D+01
 P   1 1.00       0.000000000000
      0.1747842127D+00  0.1000000000D+01
 D   1 1.00       0.000000000000
      0.2314000000D+01  0.1000000000D+01
 D   1 1.00       0.000000000000
      0.6450000000D+00  0.1000000000D+01
 F   1 1.00       0.000000000000
      0.1428000000D+01  0.1000000000D+01
 ****
      7 0
 S   3 1.00       0.000000000000
      0.3406134100D+02  0.2543930721D-01
      0.5123574600D+01  0.1900859489D+00
      0.1164662600D+01  0.8524411301D+00
 S   1 1.00       0.000000000000
      0.3272304100D+00  0.1000000000D+01
 S   1 1.00       0.000000000000
      0.1030724100D+00  0.1000000000D+01
 P   1 1.00       0.000000000000
      0.8000000000D+00  0.1000000000D+01
 ****
      8 0
 S   3 1.00       0.000000000000
      0.3406134100D+02  0.2543930721D-01
      0.5123574600D+01  0.1900859489D+00
      0.1164662600D+01  0.8524411301D+00
 S   1 1.00       0.000000000000
      0.3272304100D+00  0.1000000000D+01
 S   1 1.00       0.000000000000
      0.1030724100D+00  0.1000000000D+01
 P   1 1.00       0.000000000000
      0.8000000000D+00  0.1000000000D+01
 ****
      9 0
 S   3 1.00       0.000000000000
      0.3406134100D+02  0.2543930721D-01
      0.5123574600D+01  0.1900859489D+00
      0.1164662600D+01  0.8524411301D+00
 S   1 1.00       0.000000000000
      0.3272304100D+00  0.1000000000D+01
 S   1 1.00       0.000000000000
      0.1030724100D+00  0.1000000000D+01
 P   1 1.00       0.000000000000
      0.8000000000D+00  0.1000000000D+01
 ****
     10 0
 S   6 1.00       0.000000000000
      0.2703238263D+05  0.5722733521D-03
      0.4052387139D+04  0.4435323349D-02
      0.9223272271D+03  0.2302010771D-01
      0.2612407099D+03  0.9282249067D-01
      0.8535464135D+02  0.2937850001D+00
      0.3103503524D+02  0.6740160450D+00
 S   2 1.00       0.000000000000
      0.1226086073D+02  0.6383993703D+00
      0.4998707601D+01  0.3953458713D+00
 S   1 1.00       0.000000000000
      0.1170310816D+01  0.1000000000D+01
 S   1 1.00       0.000000000000
      0.4647474099D+00  0.1000000000D+01
 S   1 1.00       0.000000000000
      0.1850453636D+00  0.1000000000D+01
 P   4 1.00       0.000000000000
      0.6327495480D+02  0.1201833222D-01
      0.1462704938D+02  0.8300542179D-01
      0.4450122346D+01  0.3199174393D+00
      0.1527579965D+01  0.7071554292D+00
 P   1 1.00       0.000000000000
      0.5293511794D+00  0.1000000000D+01
 P   1 1.00       0.000000000000
      0.1747842127D+00  0.1000000000D+01
 D   1 1.00       0.000000000000
      0.2314000000D+01  0.1000000000D+01
 D   1 1.00       0.000000000000
      0.6450000000D+00  0.1000000000D+01
 F   1 1.00       0.000000000000
      0.1428000000D+01  0.1000000000D+01
 ****
     11 0
 S   3 1.00       0.000000000000
      0.3406134100D+02  0.2543930721D-01
      0.5123574600D+01  0.1900859489D+00
      0.1164662600D+01  0.8524411301D+00
 S   1 1.00       0.000000000000
      0.3272304100D+00  0.1000000000D+01
 S   1 1.00       0.000000000000
      0.1030724100D+00  0.1000000000D+01
 P   1 1.00       0.000000000000
      0.8000000000D+00  0.1000000000D+01
 ****

 AO basis set (Overlap normalization):
 Atom Pa1      Shell     1 S   3     bf    1 -     1         -0.126612651162         -0.105320286714         -0.198145698032
      0.1204737600D+05  0.2857094961D-01
      0.1811684100D+04  0.2270769386D+00
      0.3477010400D+03  0.8325326273D+00
 Atom Pa1      Shell     2 S   3     bf    2 -     2         -0.126612651162         -0.105320286714         -0.198145698032
      0.5750737600D+02  0.9569327984D-01
      0.3350260100D+02 -0.4399944619D+00
      0.1955445100D+02  0.1335352847D+01
 Atom Pa1      Shell     3 S   1     bf    3 -     3         -0.126612651162         -0.105320286714         -0.198145698032
      0.9867801000D+02  0.1000000000D+01
 Atom Pa1      Shell     4 S   1     bf    4 -     4         -0.126612651162         -0.105320286714         -0.198145698032
      0.9716421000D+01  0.1000000000D+01
 Atom Pa1      Shell     5 S   1     bf    5 -     5         -0.126612651162         -0.105320286714         -0.198145698032
      0.2692096000D+01  0.1000000000D+01
 Atom Pa1      Shell     6 S   1     bf    6 -     6         -0.126612651162         -0.105320286714         -0.198145698032
      0.1453847000D+01  0.1000000000D+01
 Atom Pa1      Shell     7 S   1     bf    7 -     7         -0.126612651162         -0.105320286714         -0.198145698032
      0.5743520000D+00  0.1000000000D+01
 Atom Pa1      Shell     8 S   1     bf    8 -     8         -0.126612651162         -0.105320286714         -0.198145698032
      0.2634680000D+00  0.1000000000D+01
 Atom Pa1      Shell     9 S   1     bf    9 -     9         -0.126612651162         -0.105320286714         -0.198145698032
      0.5655700000D-01  0.1000000000D+01
 Atom Pa1      Shell    10 S   1     bf   10 -    10         -0.126612651162         -0.105320286714         -0.198145698032
      0.2316900000D-01  0.1000000000D+01
 Atom Pa1      Shell    11 P   5     bf   11 -    13         -0.126612651162         -0.105320286714         -0.198145698032
      0.2903367600D+04  0.2594222647D-02
      0.6448635600D+03  0.1519473264D-01
      0.2202589600D+03  0.9272492945D-01
      0.8027640100D+02  0.1821144298D+00
      0.2408021100D+02  0.8294100404D+00
 Atom Pa1      Shell    12 P   1     bf   14 -    16         -0.126612651162         -0.105320286714         -0.198145698032
      0.1407758000D+02  0.1000000000D+01
 Atom Pa1      Shell    13 P   1     bf   17 -    19         -0.126612651162         -0.105320286714         -0.198145698032
      0.8265846000D+01  0.1000000000D+01
 Atom Pa1      Shell    14 P   1     bf   20 -    22         -0.126612651162         -0.105320286714         -0.198145698032
      0.3594800000D+01  0.1000000000D+01
 Atom Pa1      Shell    15 P   1     bf   23 -    25         -0.126612651162         -0.105320286714         -0.198145698032
      0.1753111000D+01  0.1000000000D+01
 Atom Pa1      Shell    16 P   1     bf   26 -    28         -0.126612651162         -0.105320286714         -0.198145698032
      0.6577670000D+00  0.1000000000D+01
 Atom Pa1      Shell    17 P   1     bf   29 -    31         -0.126612651162         -0.105320286714         -0.198145698032
      0.2846390000D+00  0.1000000000D+01
 Atom Pa1      Shell    18 P   1     bf   32 -    34         -0.126612651162         -0.105320286714         -0.198145698032
      0.1005430000D+00  0.1000000000D+01
 Atom Pa1      Shell    19 P   1     bf   35 -    37         -0.126612651162         -0.105320286714         -0.198145698032
      0.3019000000D-01  0.1000000000D+01
 Atom Pa1      Shell    20 D   6     bf   38 -    42         -0.126612651162         -0.105320286714         -0.198145698032
      0.4481499100D+03  0.6556927566D-04
      0.1544614500D+03  0.5749921096D-03
      0.6092537700D+02  0.2279793277D-02
      0.1703209100D+02  0.6467904664D-01
      0.1001887700D+02 -0.2666929411D+00
      0.3409193000D+01  0.1128376621D+01
 Atom Pa1      Shell    21 D   1     bf   43 -    47         -0.126612651162         -0.105320286714         -0.198145698032
      0.1670213000D+01  0.1000000000D+01
 Atom Pa1      Shell    22 D   1     bf   48 -    52         -0.126612651162         -0.105320286714         -0.198145698032
      0.7410950000D+00  0.1000000000D+01
 Atom Pa1      Shell    23 D   1     bf   53 -    57         -0.126612651162         -0.105320286714         -0.198145698032
      0.2613930000D+00  0.1000000000D+01
 Atom Pa1      Shell    24 D   1     bf   58 -    62         -0.126612651162         -0.105320286714         -0.198145698032
      0.8281100000D-01  0.1000000000D+01
 Atom Pa1      Shell    25 F   5     bf   63 -    69         -0.126612651162         -0.105320286714         -0.198145698032
      0.8799132700D+02  0.4766318191D-03
      0.2834019500D+02  0.4899184583D-02
      0.1244099400D+02  0.9669720755D-02
      0.3957296000D+01  0.3310292343D+00
      0.1875944000D+01  0.7275531640D+00
 Atom Pa1      Shell    26 F   1     bf   70 -    76         -0.126612651162         -0.105320286714         -0.198145698032
      0.8275890000D+00  0.1000000000D+01
 Atom Pa1      Shell    27 F   1     bf   77 -    83         -0.126612651162         -0.105320286714         -0.198145698032
      0.3327480000D+00  0.1000000000D+01
 Atom Pa1      Shell    28 F   1     bf   84 -    90         -0.126612651162         -0.105320286714         -0.198145698032
      0.1146850000D+00  0.1000000000D+01
 Atom Pa1      Shell    29 G   1     bf   91 -    99         -0.126612651162         -0.105320286714         -0.198145698032
      0.3500000000D+00  0.1000000000D+01
 Atom O2       Shell    30 S   6     bf  100 -   100          0.002265993719          0.344651997627          3.870290005144
      0.2703238263D+05  0.5722733521D-03
      0.4052387139D+04  0.4435323349D-02
      0.9223272271D+03  0.2302010771D-01
      0.2612407099D+03  0.9282249067D-01
      0.8535464135D+02  0.2937850001D+00
      0.3103503524D+02  0.6740160450D+00
 Atom O2       Shell    31 S   2     bf  101 -   101          0.002265993719          0.344651997627          3.870290005144
      0.1226086073D+02  0.6383993703D+00
      0.4998707601D+01  0.3953458713D+00
 Atom O2       Shell    32 S   1     bf  102 -   102          0.002265993719          0.344651997627          3.870290005144
      0.1170310816D+01  0.1000000000D+01
 Atom O2       Shell    33 S   1     bf  103 -   103          0.002265993719          0.344651997627          3.870290005144
      0.4647474099D+00  0.1000000000D+01
 Atom O2       Shell    34 S   1     bf  104 -   104          0.002265993719          0.344651997627          3.870290005144
      0.1850453636D+00  0.1000000000D+01
 Atom O2       Shell    35 P   4     bf  105 -   107          0.002265993719          0.344651997627          3.870290005144
      0.6327495480D+02  0.1201833222D-01
      0.1462704938D+02  0.8300542179D-01
      0.4450122346D+01  0.3199174393D+00
      0.1527579965D+01  0.7071554292D+00
 Atom O2       Shell    36 P   1     bf  108 -   110          0.002265993719          0.344651997627          3.870290005144
      0.5293511794D+00  0.1000000000D+01
 Atom O2       Shell    37 P   1     bf  111 -   113          0.002265993719          0.344651997627          3.870290005144
      0.1747842127D+00  0.1000000000D+01
 Atom O2       Shell    38 D   1     bf  114 -   118          0.002265993719          0.344651997627          3.870290005144
      0.2314000000D+01  0.1000000000D+01
 Atom O2       Shell    39 D   1     bf  119 -   123          0.002265993719          0.344651997627          3.870290005144
      0.6450000000D+00  0.1000000000D+01
 Atom O2       Shell    40 F   1     bf  124 -   130          0.002265993719          0.344651997627          3.870290005144
      0.1428000000D+01  0.1000000000D+01
 Atom O3       Shell    41 S   6     bf  131 -   131          0.015197704618          3.898147086101         -0.553437642662
      0.2703238263D+05  0.5722733521D-03
      0.4052387139D+04  0.4435323349D-02
      0.9223272271D+03  0.2302010771D-01
      0.2612407099D+03  0.9282249067D-01
      0.8535464135D+02  0.2937850001D+00
      0.3103503524D+02  0.6740160450D+00
 Atom O3       Shell    42 S   2     bf  132 -   132          0.015197704618          3.898147086101         -0.553437642662
      0.1226086073D+02  0.6383993703D+00
      0.4998707601D+01  0.3953458713D+00
 Atom O3       Shell    43 S   1     bf  133 -   133          0.015197704618          3.898147086101         -0.553437642662
      0.1170310816D+01  0.1000000000D+01
 Atom O3       Shell    44 S   1     bf  134 -   134          0.015197704618          3.898147086101         -0.553437642662
      0.4647474099D+00  0.1000000000D+01
 Atom O3       Shell    45 S   1     bf  135 -   135          0.015197704618          3.898147086101         -0.553437642662
      0.1850453636D+00  0.1000000000D+01
 Atom O3       Shell    46 P   4     bf  136 -   138          0.015197704618          3.898147086101         -0.553437642662
      0.6327495480D+02  0.1201833222D-01
      0.1462704938D+02  0.8300542179D-01
      0.4450122346D+01  0.3199174393D+00
      0.1527579965D+01  0.7071554292D+00
 Atom O3       Shell    47 P   1     bf  139 -   141          0.015197704618          3.898147086101         -0.553437642662
      0.5293511794D+00  0.1000000000D+01
 Atom O3       Shell    48 P   1     bf  142 -   144          0.015197704618          3.898147086101         -0.553437642662
      0.1747842127D+00  0.1000000000D+01
 Atom O3       Shell    49 D   1     bf  145 -   149          0.015197704618          3.898147086101         -0.553437642662
      0.2314000000D+01  0.1000000000D+01
 Atom O3       Shell    50 D   1     bf  150 -   154          0.015197704618          3.898147086101         -0.553437642662
      0.6450000000D+00  0.1000000000D+01
 Atom O3       Shell    51 F   1     bf  155 -   161          0.015197704618          3.898147086101         -0.553437642662
      0.1428000000D+01  0.1000000000D+01
 Atom O4       Shell    52 S   6     bf  162 -   162         -4.245202260068         -0.236272539699         -0.686380233851
      0.2703238263D+05  0.5722733521D-03
      0.4052387139D+04  0.4435323349D-02
      0.9223272271D+03  0.2302010771D-01
      0.2612407099D+03  0.9282249067D-01
      0.8535464135D+02  0.2937850001D+00
      0.3103503524D+02  0.6740160450D+00
 Atom O4       Shell    53 S   2     bf  163 -   163         -4.245202260068         -0.236272539699         -0.686380233851
      0.1226086073D+02  0.6383993703D+00
      0.4998707601D+01  0.3953458713D+00
 Atom O4       Shell    54 S   1     bf  164 -   164         -4.245202260068         -0.236272539699         -0.686380233851
      0.1170310816D+01  0.1000000000D+01
 Atom O4       Shell    55 S   1     bf  165 -   165         -4.245202260068         -0.236272539699         -0.686380233851
      0.4647474099D+00  0.1000000000D+01
 Atom O4       Shell    56 S   1     bf  166 -   166         -4.245202260068         -0.236272539699         -0.686380233851
      0.1850453636D+00  0.1000000000D+01
 Atom O4       Shell    57 P   4     bf  167 -   169         -4.245202260068         -0.236272539699         -0.686380233851
      0.6327495480D+02  0.1201833222D-01
      0.1462704938D+02  0.8300542179D-01
      0.4450122346D+01  0.3199174393D+00
      0.1527579965D+01  0.7071554292D+00
 Atom O4       Shell    58 P   1     bf  170 -   172         -4.245202260068         -0.236272539699         -0.686380233851
      0.5293511794D+00  0.1000000000D+01
 Atom O4       Shell    59 P   1     bf  173 -   175         -4.245202260068         -0.236272539699         -0.686380233851
      0.1747842127D+00  0.1000000000D+01
 Atom O4       Shell    60 D   1     bf  176 -   180         -4.245202260068         -0.236272539699         -0.686380233851
      0.2314000000D+01  0.1000000000D+01
 Atom O4       Shell    61 D   1     bf  181 -   185         -4.245202260068         -0.236272539699         -0.686380233851
      0.6450000000D+00  0.1000000000D+01
 Atom O4       Shell    62 F   1     bf  186 -   192         -4.245202260068         -0.236272539699         -0.686380233851
      0.1428000000D+01  0.1000000000D+01
 Atom H5       Shell    63 S   3     bf  193 -   193         -0.214332557988          5.281990413340          0.614359186794
      0.3406134100D+02  0.2543930721D-01
      0.5123574600D+01  0.1900859489D+00
      0.1164662600D+01  0.8524411301D+00
 Atom H5       Shell    64 S   1     bf  194 -   194         -0.214332557988          5.281990413340          0.614359186794
      0.3272304100D+00  0.1000000000D+01
 Atom H5       Shell    65 S   1     bf  195 -   195         -0.214332557988          5.281990413340          0.614359186794
      0.1030724100D+00  0.1000000000D+01
 Atom H5       Shell    66 P   1     bf  196 -   198         -0.214332557988          5.281990413340          0.614359186794
      0.8000000000D+00  0.1000000000D+01
 Atom O6       Shell    67 S   6     bf  199 -   199          4.668197457223          0.101723487317         -0.637116354527
      0.2703238263D+05  0.5722733521D-03
      0.4052387139D+04  0.4435323349D-02
      0.9223272271D+03  0.2302010771D-01
      0.2612407099D+03  0.9282249067D-01
      0.8535464135D+02  0.2937850001D+00
      0.3103503524D+02  0.6740160450D+00
 Atom O6       Shell    68 S   2     bf  200 -   200          4.668197457223          0.101723487317         -0.637116354527
      0.1226086073D+02  0.6383993703D+00
      0.4998707601D+01  0.3953458713D+00
 Atom O6       Shell    69 S   1     bf  201 -   201          4.668197457223          0.101723487317         -0.637116354527
      0.1170310816D+01  0.1000000000D+01
 Atom O6       Shell    70 S   1     bf  202 -   202          4.668197457223          0.101723487317         -0.637116354527
      0.4647474099D+00  0.1000000000D+01
 Atom O6       Shell    71 S   1     bf  203 -   203          4.668197457223          0.101723487317         -0.637116354527
      0.1850453636D+00  0.1000000000D+01
 Atom O6       Shell    72 P   4     bf  204 -   206          4.668197457223          0.101723487317         -0.637116354527
      0.6327495480D+02  0.1201833222D-01
      0.1462704938D+02  0.8300542179D-01
      0.4450122346D+01  0.3199174393D+00
      0.1527579965D+01  0.7071554292D+00
 Atom O6       Shell    73 P   1     bf  207 -   209          4.668197457223          0.101723487317         -0.637116354527
      0.5293511794D+00  0.1000000000D+01
 Atom O6       Shell    74 P   1     bf  210 -   212          4.668197457223          0.101723487317         -0.637116354527
      0.1747842127D+00  0.1000000000D+01
 Atom O6       Shell    75 D   1     bf  213 -   217          4.668197457223          0.101723487317         -0.637116354527
      0.2314000000D+01  0.1000000000D+01
 Atom O6       Shell    76 D   1     bf  218 -   222          4.668197457223          0.101723487317         -0.637116354527
      0.6450000000D+00  0.1000000000D+01
 Atom O6       Shell    77 F   1     bf  223 -   229          4.668197457223          0.101723487317         -0.637116354527
      0.1428000000D+01  0.1000000000D+01
 Atom H7       Shell    78 S   3     bf  230 -   230          5.685792166061          1.611964916498         -0.510341053415
      0.3406134100D+02  0.2543930721D-01
      0.5123574600D+01  0.1900859489D+00
      0.1164662600D+01  0.8524411301D+00
 Atom H7       Shell    79 S   1     bf  231 -   231          5.685792166061          1.611964916498         -0.510341053415
      0.3272304100D+00  0.1000000000D+01
 Atom H7       Shell    80 S   1     bf  232 -   232          5.685792166061          1.611964916498         -0.510341053415
      0.1030724100D+00  0.1000000000D+01
 Atom H7       Shell    81 P   1     bf  233 -   235          5.685792166061          1.611964916498         -0.510341053415
      0.8000000000D+00  0.1000000000D+01
 Atom H8       Shell    82 S   3     bf  236 -   236          5.797947519096         -1.318357627029         -0.441492050342
      0.3406134100D+02  0.2543930721D-01
      0.5123574600D+01  0.1900859489D+00
      0.1164662600D+01  0.8524411301D+00
 Atom H8       Shell    83 S   1     bf  237 -   237          5.797947519096         -1.318357627029         -0.441492050342
      0.3272304100D+00  0.1000000000D+01
 Atom H8       Shell    84 S   1     bf  238 -   238          5.797947519096         -1.318357627029         -0.441492050342
      0.1030724100D+00  0.1000000000D+01
 Atom H8       Shell    85 P   1     bf  239 -   241          5.797947519096         -1.318357627029         -0.441492050342
      0.8000000000D+00  0.1000000000D+01
 Atom H9       Shell    86 S   3     bf  242 -   242          0.037932309078         -0.999398123435          5.099284266893
      0.3406134100D+02  0.2543930721D-01
      0.5123574600D+01  0.1900859489D+00
      0.1164662600D+01  0.8524411301D+00
 Atom H9       Shell    87 S   1     bf  243 -   243          0.037932309078         -0.999398123435          5.099284266893
      0.3272304100D+00  0.1000000000D+01
 Atom H9       Shell    88 S   1     bf  244 -   244          0.037932309078         -0.999398123435          5.099284266893
      0.1030724100D+00  0.1000000000D+01
 Atom H9       Shell    89 P   1     bf  245 -   247          0.037932309078         -0.999398123435          5.099284266893
      0.8000000000D+00  0.1000000000D+01
 Atom O10      Shell    90 S   6     bf  248 -   248          0.250940204224         -3.636664523676         -0.238841212559
      0.2703238263D+05  0.5722733521D-03
      0.4052387139D+04  0.4435323349D-02
      0.9223272271D+03  0.2302010771D-01
      0.2612407099D+03  0.9282249067D-01
      0.8535464135D+02  0.2937850001D+00
      0.3103503524D+02  0.6740160450D+00
 Atom O10      Shell    91 S   2     bf  249 -   249          0.250940204224         -3.636664523676         -0.238841212559
      0.1226086073D+02  0.6383993703D+00
      0.4998707601D+01  0.3953458713D+00
 Atom O10      Shell    92 S   1     bf  250 -   250          0.250940204224         -3.636664523676         -0.238841212559
      0.1170310816D+01  0.1000000000D+01
 Atom O10      Shell    93 S   1     bf  251 -   251          0.250940204224         -3.636664523676         -0.238841212559
      0.4647474099D+00  0.1000000000D+01
 Atom O10      Shell    94 S   1     bf  252 -   252          0.250940204224         -3.636664523676         -0.238841212559
      0.1850453636D+00  0.1000000000D+01
 Atom O10      Shell    95 P   4     bf  253 -   255          0.250940204224         -3.636664523676         -0.238841212559
      0.6327495480D+02  0.1201833222D-01
      0.1462704938D+02  0.8300542179D-01
      0.4450122346D+01  0.3199174393D+00
      0.1527579965D+01  0.7071554292D+00
 Atom O10      Shell    96 P   1     bf  256 -   258          0.250940204224         -3.636664523676         -0.238841212559
      0.5293511794D+00  0.1000000000D+01
 Atom O10      Shell    97 P   1     bf  259 -   261          0.250940204224         -3.636664523676         -0.238841212559
      0.1747842127D+00  0.1000000000D+01
 Atom O10      Shell    98 D   1     bf  262 -   266          0.250940204224         -3.636664523676         -0.238841212559
      0.2314000000D+01  0.1000000000D+01
 Atom O10      Shell    99 D   1     bf  267 -   271          0.250940204224         -3.636664523676         -0.238841212559
      0.6450000000D+00  0.1000000000D+01
 Atom O10      Shell   100 F   1     bf  272 -   278          0.250940204224         -3.636664523676         -0.238841212559
      0.1428000000D+01  0.1000000000D+01
 Atom H11      Shell   101 S   3     bf  279 -   279         -5.316780978235          1.235262450229         -0.766668321388
      0.3406134100D+02  0.2543930721D-01
      0.5123574600D+01  0.1900859489D+00
      0.1164662600D+01  0.8524411301D+00
 Atom H11      Shell   102 S   1     bf  280 -   280         -5.316780978235          1.235262450229         -0.766668321388
      0.3272304100D+00  0.1000000000D+01
 Atom H11      Shell   103 S   1     bf  281 -   281         -5.316780978235          1.235262450229         -0.766668321388
      0.1030724100D+00  0.1000000000D+01
 Atom H11      Shell   104 P   1     bf  282 -   284         -5.316780978235          1.235262450229         -0.766668321388
      0.8000000000D+00  0.1000000000D+01
 Effective core potential in the form of general ECP input:
      1 0
 Pa1-ECP   5 60
 H component
  1
  2        1.0000000        0.00000000    0.00000000
 S-H projection
  1
  2       15.2691737      475.47573283    0.00000000
 P-H projection
  1
  2        9.9577370      207.66485962    0.00000000
 D-H projection
  1
  2        8.9431413      156.67411988    0.00000000
 F-H projection
  1
  2        7.0104666       67.98223685    0.00000000
 G-H projection
  1
  2       12.2010560      -57.63059989    0.00000000
 
 There are   332 symmetry adapted cartesian basis functions of A   symmetry.
 There are   284 symmetry adapted basis functions of A   symmetry.
   284 basis functions,   503 primitive gaussians,   332 cartesian basis functions
    38 alpha electrons       38 beta electrons
       nuclear repulsion energy       477.9618201563 Hartrees.
 IExCor=  404 DFT=T Ex=B Corr=P86 ExCW=0 ScaHFX=  0.000000
 ScaDFX=  1.000000  1.000000  1.000000  1.000000 ScalE2=  1.000000  1.000000
 IRadAn=      5 IRanWt=     -1 IRanGd=            0 ICorTp=0 IEmpDi=  4
 NAtoms=   11 NActive=   11 NUniq=   11 SFac= 1.00D+00 NAtFMM=   60 NAOKFM=F Big=F
 Integral buffers will be    131072 words long.
 Raffenetti 2 integral format.
 Two-electron integral symmetry is turned on.
 Warning! Using old PCM defaults because the COSMOthermo output has been requested.
 These settings can be overridden by following keywords.
 Using the following non-standard input for PCM:
 RADII=klamt
 --- end of non-standard input.
 ------------------------------------------------------------------------------
 Polarizable Continuum Model (PCM)
 =================================
 Model                : C-PCM.
 Atomic radii         : Klamt.
 XCosmo               : -1.000 (infinite dielectric limit)
 Polarization charges : Electronic and nuclear charges.
 Charge compensation  : Type 3 (Electronic density weighted correction).
 Solution method      : On-the-fly selection.
 Cavity type          : VdW (van der Waals Surface) (Alpha=1.000).
 Cavity algorithm     : GePol (No added spheres)
                        Default sphere list used, NSphG=   11.
                        Tesserae with average area of 0.200 Ang**2.
                        Smoothing algorithm: None.
                        Polarization charges: point-like.
                        Self-potential: constant (ISelfS= 1).
                        Self-field    : global E.n sum rule (ISelfD= 3).
 Solvent              : Water, Eps=  78.355300 Eps(inf)=   1.777849
 ------------------------------------------------------------------------------
 Spheres list:
 ISph  on   Nord     Re0    Alpha      Xe            Ye            Ze
    1  Pa      1    2.0000  1.170     -0.067001     -0.055733     -0.104854
    2   O      2    1.7200  1.000      0.001199      0.182382      2.048069
    3   O      3    1.7200  1.000      0.008042      2.062811     -0.292867
    4   O      4    1.7200  1.000     -2.246464     -0.125030     -0.363217
    5   H      5    1.3000  1.000     -0.113420      2.795109      0.325105
    6   O      6    1.7200  1.000      2.470304      0.053830     -0.337147
    7   H      7    1.3000  1.000      3.008792      0.853015     -0.270061
    8   H      8    1.3000  1.000      3.068142     -0.697645     -0.233628
    9   H      9    1.3000  1.000      0.020073     -0.528859      2.698425
   10   O     10    1.7200  1.000      0.132792     -1.924440     -0.126389
   11   H     11    1.3000  1.000     -2.813519      0.653673     -0.405703
 ------------------------------------------------------------------------------
 GePol: Number of generator spheres                  =      11
 GePol: Total number of spheres                      =      11
 GePol: Number of exposed spheres                    =      11 (100.00%)
 GePol: Number of tesserae                           =    1003
 GePol: Average area of tesserae                     =       0.15 Ang**2
 GePol: Minimum area of tessera                      =   0.10D-02 Ang**2
 GePol: Maximum area of tessera                      =    0.35817 Ang**2
 GePol: Number of small tesserae                     =       8
 GePol: Fraction of small tesserae (<1% of avg)      =       0.80%
 GePol: Total count of vertices                      =    3343
 GePol: Maximum number of vertices in a tessera      =       6
 GePol: Cavity surface area                          =    154.890 Ang**2
 GePol: Cavity volume                                =    125.166 Ang**3
 DisRep: Neglecting contributions from atom    1 of solute.
 Leave Link  301 at Thu Jun 22 13:38:33 2023, MaxMem=  2147483648 cpu:               1.5 elap:               0.3
 (Enter /home/pcmt/gaussian/g16.C.01/g16/l302.exe)
 NPDir=0 NMtPBC=     1 NCelOv=     1 NCel=       1 NClECP=     1 NCelD=      1
         NCelK=      1 NCelE2=     1 NClLst=     1 CellRange=     0.0.
 One-electron integrals computed using PRISM.
 One-electron integral symmetry used in STVInt
   1 Symmetry operations used in ECPInt.
 ECPInt:  NShTT=    5460 NPrTT=   15742 LenC2=    5273 LenP2D=   11828.
 LDataN:  DoStor=T MaxTD1= 9 Len=  602
 NBasis=   284 RedAO= T EigKep=  6.76D-04  NBF=   284
 NBsUse=   284 1.00D-06 EigRej= -1.00D+00 NBFU=   284
 Precomputing XC quadrature grid using
 IXCGrd= 4 IRadAn=           5 IRanWt=          -1 IRanGd=           0 AccXCQ= 0.00D+00.
 Defaulting to unpruned grid for atomic number  91.
 Generated NRdTot=       0 NPtTot=           0 NUsed=           0 NTot=          32
 NSgBfM=   328   328   328   328   328 MxSgAt=    11 MxSgA2=    11.
 Leave Link  302 at Thu Jun 22 13:38:34 2023, MaxMem=  2147483648 cpu:               6.7 elap:               0.9
 (Enter /home/pcmt/gaussian/g16.C.01/g16/l303.exe)
 DipDrv:  MaxL=1.
 Leave Link  303 at Thu Jun 22 13:38:34 2023, MaxMem=  2147483648 cpu:               0.5 elap:               0.2
 (Enter /home/pcmt/gaussian/g16.C.01/g16/l401.exe)
 ExpMin= 2.32D-02 ExpMax= 2.70D+04 ExpMxC= 1.20D+04 IAcc=3 IRadAn=         5 AccDes= 0.00D+00
 Harris functional with IExCor=  404 and IRadAn=       5 diagonalized for initial guess.
 HarFok:  IExCor=  404 AccDes= 0.00D+00 IRadAn=         5 IDoV= 1 UseB2=F ITyADJ=14
 ICtDFT=  3500011 ScaDFX=  1.000000  1.000000  1.000000  1.000000
 Defaulting to unpruned grid for atomic number  91.
 FoFCou: FMM=F IPFlag=           0 FMFlag=      100000 FMFlg1=           0
         NFxFlg=           0 DoJE=T BraDBF=F KetDBF=T FulRan=T
         wScrn=  0.000000 ICntrl=       500 IOpCl=  0 I1Cent=   200000004 NGrid=           0
         NMat0=    1 NMatS0=      1 NMatT0=    0 NMatD0=    1 NMtDS0=    0 NMtDT0=    0
 Petite list used in FoFCou.
 Harris En= -822.691252208538    
 JPrj=0 DoOrth=F DoCkMO=F.
 Leave Link  401 at Thu Jun 22 13:38:36 2023, MaxMem=  2147483648 cpu:              15.0 elap:               2.0
 (Enter /home/pcmt/gaussian/g16.C.01/g16/l502.exe)
 Keep J ints in memory in canonical form, NReq=837395269.
 FoFCou: FMM=F IPFlag=           0 FMFlag=           0 FMFlg1=           0
         NFxFlg=           0 DoJE=F BraDBF=F KetDBF=F FulRan=T
         wScrn=  0.000000 ICntrl=       600 IOpCl=  0 I1Cent=           0 NGrid=           0
         NMat0=    1 NMatS0=  40470 NMatT0=    0 NMatD0=    1 NMtDS0=    0 NMtDT0=    0
 Symmetry not used in FoFCou.
 Two-electron integral symmetry not used.
 Closed shell SCF:
 Using DIIS extrapolation, IDIIS=  1040.
 NGot=  2147483648 LenX=  1328326719 LenY=  1328216054
 Requested convergence on RMS density matrix=1.00D-08 within 100 cycles.
 Requested convergence on MAX density matrix=1.00D-06.
 Requested convergence on             energy=1.00D-06.
 No special actions if energy rises.

 Cycle   1  Pass 1  IDiag  1:
 Defaulting to unpruned grid for atomic number  91.
 Defaulting to unpruned grid for atomic number  91.
 Defaulting to unpruned grid for atomic number  91.
 Defaulting to unpruned grid for atomic number  91.
 Defaulting to unpruned grid for atomic number  91.
 Defaulting to unpruned grid for atomic number  91.
 Defaulting to unpruned grid for atomic number  91.
 Defaulting to unpruned grid for atomic number  91.
 Using charges instead of weights in PCMQM.
 Inv3:  Mode=1 IEnd=     3018027.
 Iteration    1 A*A^-1 deviation from unit magnitude is 4.22D-15 for    997.
 Iteration    1 A*A^-1 deviation from orthogonality  is 1.81D-15 for    810    805.
 Iteration    1 A^-1*A deviation from unit magnitude is 4.22D-15 for    997.
 Iteration    1 A^-1*A deviation from orthogonality  is 2.26D-15 for    993    971.
 E= -820.137101974441    
 DIIS: error= 5.11D-02 at cycle   1 NSaved=   1.
 NSaved= 1 IEnMin= 1 EnMin= -820.137101974441     IErMin= 1 ErrMin= 5.11D-02
 ErrMax= 5.11D-02  0.00D+00 EMaxC= 1.00D-01 BMatC= 1.60D+00 BMatP= 1.60D+00
 IDIUse=3 WtCom= 4.89D-01 WtEn= 5.11D-01
 Coeff-Com:  0.100D+01
 Coeff-En:   0.100D+01
 Coeff:      0.100D+01
 Gap=     0.047 Goal=   None    Shift=    0.000
 GapD=    0.047 DampG=0.250 DampE=0.250 DampFc=0.1250 IDamp=-1.
 Damping current iteration by 1.25D-01
 RMSDP=1.35D-02 MaxDP=1.21D+00              OVMax= 9.96D-01

 Cycle   2  Pass 1  IDiag  1:
 E= -820.226564452593     Delta-E=       -0.089462478152 Rises=F Damp=T
 DIIS: error= 1.83D-02 at cycle   2 NSaved=   2.
 NSaved= 2 IEnMin= 2 EnMin= -820.226564452593     IErMin= 2 ErrMin= 1.83D-02
 ErrMax= 1.83D-02  0.00D+00 EMaxC= 1.00D-01 BMatC= 2.15D-01 BMatP= 1.60D+00
 IDIUse=3 WtCom= 8.17D-01 WtEn= 1.83D-01
 Coeff-Com: -0.854D-01 0.109D+01
 Coeff-En:   0.459D+00 0.541D+00
 Coeff:      0.142D-01 0.986D+00
 Gap=    -0.089 Goal=   None    Shift=    0.000
 RMSDP=5.54D-03 MaxDP=1.93D-01 DE=-8.95D-02 OVMax= 9.28D-01

 Cycle   3  Pass 1  IDiag  1:
 E= -820.324068135276     Delta-E=       -0.097503682683 Rises=F Damp=F
 DIIS: error= 4.63D-02 at cycle   3 NSaved=   3.
 NSaved= 3 IEnMin= 3 EnMin= -820.324068135276     IErMin= 2 ErrMin= 1.83D-02
 ErrMax= 4.63D-02  0.00D+00 EMaxC= 1.00D-01 BMatC= 1.06D+00 BMatP= 2.15D-01
 IDIUse=2 WtCom= 0.00D+00 WtEn= 1.00D+00
 EnCoef did     2 forward-backward iterations
 Coeff-En:   0.185D+00 0.367D+00 0.448D+00
 Coeff:      0.185D+00 0.367D+00 0.448D+00
 Gap=     0.229 Goal=   None    Shift=    0.000
 RMSDP=9.31D-03 MaxDP=5.34D-01 DE=-9.75D-02 OVMax= 9.10D-01

 Cycle   4  Pass 1  IDiag  1:
 E= -797.964823935417     Delta-E=       22.359244199859 Rises=F Damp=F
 DIIS: error= 3.31D-01 at cycle   4 NSaved=   4.
 NSaved= 4 IEnMin= 3 EnMin= -820.324068135276     IErMin= 2 ErrMin= 1.83D-02
 ErrMax= 3.31D-01  0.00D+00 EMaxC= 1.00D-01 BMatC= 4.54D+01 BMatP= 2.15D-01
 IDIUse=2 WtCom= 0.00D+00 WtEn= 1.00D+00
 EnCoef did   100 forward-backward iterations
 Coeff-En:   0.464D+00 0.145D-01 0.430D+00 0.911D-01
 Coeff:      0.464D+00 0.145D-01 0.430D+00 0.911D-01
 Gap=    -0.015 Goal=   None    Shift=    0.000
 RMSDP=4.85D-03 MaxDP=2.95D-01 DE= 2.24D+01 OVMax= 9.09D-01

 Cycle   5  Pass 1  IDiag  1:
 E= -820.164743753470     Delta-E=      -22.199919818053 Rises=F Damp=F
 DIIS: error= 7.82D-02 at cycle   5 NSaved=   5.
 NSaved= 5 IEnMin= 3 EnMin= -820.324068135276     IErMin= 2 ErrMin= 1.83D-02
 ErrMax= 7.82D-02  0.00D+00 EMaxC= 1.00D-01 BMatC= 1.89D+00 BMatP= 2.15D-01
 IDIUse=2 WtCom= 0.00D+00 WtEn= 1.00D+00
 EnCoef did     2 forward-backward iterations
 Coeff-En:   0.369D+00 0.000D+00 0.190D+00 0.000D+00 0.441D+00
 Coeff:      0.369D+00 0.000D+00 0.190D+00 0.000D+00 0.441D+00
 Gap=     0.162 Goal=   None    Shift=    0.000
 RMSDP=2.76D-03 MaxDP=1.62D-01 DE=-2.22D+01 OVMax= 3.18D-01

 Cycle   6  Pass 1  IDiag  1:
 E= -821.115197556492     Delta-E=       -0.950453803023 Rises=F Damp=F
 DIIS: error= 1.46D-02 at cycle   6 NSaved=   6.
 NSaved= 6 IEnMin= 6 EnMin= -821.115197556492     IErMin= 6 ErrMin= 1.46D-02
 ErrMax= 1.46D-02  0.00D+00 EMaxC= 1.00D-01 BMatC= 1.59D-01 BMatP= 2.15D-01
 IDIUse=3 WtCom= 8.54D-01 WtEn= 1.46D-01
 Coeff-Com: -0.584D-01 0.462D+00 0.161D+00-0.194D-01 0.156D+00 0.299D+00
 Coeff-En:   0.000D+00 0.000D+00 0.000D+00 0.000D+00 0.168D+00 0.832D+00
 Coeff:     -0.499D-01 0.394D+00 0.138D+00-0.166D-01 0.158D+00 0.377D+00
 Gap=     0.230 Goal=   None    Shift=    0.000
 RMSDP=1.07D-03 MaxDP=5.33D-02 DE=-9.50D-01 OVMax= 9.04D-02

 Cycle   7  Pass 1  IDiag  1:
 E= -821.130733687338     Delta-E=       -0.015536130846 Rises=F Damp=F
 DIIS: error= 1.52D-02 at cycle   7 NSaved=   7.
 NSaved= 7 IEnMin= 7 EnMin= -821.130733687338     IErMin= 6 ErrMin= 1.46D-02
 ErrMax= 1.52D-02  0.00D+00 EMaxC= 1.00D-01 BMatC= 1.37D-01 BMatP= 1.59D-01
 IDIUse=3 WtCom= 8.54D-01 WtEn= 1.46D-01
 EnCoef did     1 forward-backward iterations
 Coeff-Com: -0.139D+00 0.192D+00-0.107D-01-0.673D-02 0.103D+00 0.307D+00
 Coeff-Com:  0.555D+00
 Coeff-En:   0.000D+00 0.000D+00 0.000D+00 0.000D+00 0.151D+00 0.345D+00
 Coeff-En:   0.504D+00
 Coeff:     -0.119D+00 0.164D+00-0.918D-02-0.575D-02 0.110D+00 0.313D+00
 Coeff:      0.547D+00
 Gap=     0.171 Goal=   None    Shift=    0.000
 RMSDP=8.98D-04 MaxDP=7.29D-02 DE=-1.55D-02 OVMax= 6.08D-02

 Cycle   8  Pass 1  IDiag  1:
 E= -821.236205660105     Delta-E=       -0.105471972767 Rises=F Damp=F
 DIIS: error= 3.85D-03 at cycle   8 NSaved=   8.
 NSaved= 8 IEnMin= 8 EnMin= -821.236205660105     IErMin= 8 ErrMin= 3.85D-03
 ErrMax= 3.85D-03  0.00D+00 EMaxC= 1.00D-01 BMatC= 7.39D-03 BMatP= 1.37D-01
 IDIUse=3 WtCom= 9.61D-01 WtEn= 3.85D-02
 Coeff-Com: -0.681D-01 0.651D-01-0.309D-01-0.249D-02 0.606D-01 0.140D+00
 Coeff-Com:  0.246D+00 0.589D+00
 Coeff-En:   0.000D+00 0.000D+00 0.000D+00 0.000D+00 0.000D+00 0.000D+00
 Coeff-En:   0.000D+00 0.100D+01
 Coeff:     -0.655D-01 0.626D-01-0.297D-01-0.240D-02 0.582D-01 0.135D+00
 Coeff:      0.237D+00 0.605D+00
 Gap=     0.143 Goal=   None    Shift=    0.000
 RMSDP=2.80D-04 MaxDP=1.93D-02 DE=-1.05D-01 OVMax= 1.83D-02

 Cycle   9  Pass 1  IDiag  1:
 E= -821.240850002297     Delta-E=       -0.004644342191 Rises=F Damp=F
 DIIS: error= 1.59D-03 at cycle   9 NSaved=   9.
 NSaved= 9 IEnMin= 9 EnMin= -821.240850002297     IErMin= 9 ErrMin= 1.59D-03
 ErrMax= 1.59D-03  0.00D+00 EMaxC= 1.00D-01 BMatC= 2.50D-03 BMatP= 7.39D-03
 IDIUse=3 WtCom= 9.84D-01 WtEn= 1.59D-02
 Coeff-Com:  0.179D-02-0.120D-01-0.172D-01 0.739D-03 0.108D-01-0.316D-01
 Coeff-Com: -0.590D-01 0.540D+00 0.566D+00
 Coeff-En:   0.000D+00 0.000D+00 0.000D+00 0.000D+00 0.000D+00 0.000D+00
 Coeff-En:   0.000D+00 0.000D+00 0.100D+01
 Coeff:      0.176D-02-0.118D-01-0.169D-01 0.728D-03 0.106D-01-0.311D-01
 Coeff:     -0.581D-01 0.532D+00 0.573D+00
 Gap=     0.136 Goal=   None    Shift=    0.000
 RMSDP=2.72D-04 MaxDP=1.80D-02 DE=-4.64D-03 OVMax= 2.10D-02

 Cycle  10  Pass 1  IDiag  1:
 E= -821.243418415798     Delta-E=       -0.002568413501 Rises=F Damp=F
 DIIS: error= 1.84D-03 at cycle  10 NSaved=  10.
 NSaved=10 IEnMin=10 EnMin= -821.243418415798     IErMin= 9 ErrMin= 1.59D-03
 ErrMax= 1.84D-03  0.00D+00 EMaxC= 1.00D-01 BMatC= 1.80D-03 BMatP= 2.50D-03
 IDIUse=3 WtCom= 9.84D-01 WtEn= 1.59D-02
 Coeff-Com:  0.282D-01-0.244D-01 0.285D-02 0.105D-02-0.112D-01-0.676D-01
 Coeff-Com: -0.122D+00 0.265D+00 0.455D+00 0.472D+00
 Coeff-En:   0.000D+00 0.000D+00 0.000D+00 0.000D+00 0.000D+00 0.000D+00
 Coeff-En:   0.000D+00 0.000D+00 0.000D+00 0.100D+01
 Coeff:      0.278D-01-0.240D-01 0.281D-02 0.103D-02-0.110D-01-0.666D-01
 Coeff:     -0.120D+00 0.261D+00 0.448D+00 0.481D+00
 Gap=     0.134 Goal=   None    Shift=    0.000
 RMSDP=1.73D-04 MaxDP=1.05D-02 DE=-2.57D-03 OVMax= 1.96D-02

 Cycle  11  Pass 1  IDiag  1:
 E= -821.243395693426     Delta-E=        0.000022722371 Rises=F Damp=F
 DIIS: error= 2.56D-03 at cycle  11 NSaved=  11.
 NSaved=11 IEnMin=10 EnMin= -821.243418415798     IErMin= 9 ErrMin= 1.59D-03
 ErrMax= 2.56D-03  0.00D+00 EMaxC= 1.00D-01 BMatC= 3.40D-03 BMatP= 1.80D-03
 IDIUse=3 WtCom= 9.84D-01 WtEn= 1.59D-02
 Coeff-Com:  0.214D-01-0.119D-01 0.408D-02 0.639D-03-0.873D-02-0.482D-01
 Coeff-Com: -0.851D-01 0.306D+00 0.362D+00-0.254D-01 0.486D+00
 Coeff-En:   0.000D+00 0.000D+00 0.000D+00 0.000D+00 0.000D+00 0.000D+00
 Coeff-En:   0.000D+00 0.000D+00 0.000D+00 0.527D+00 0.473D+00
 Coeff:      0.210D-01-0.117D-01 0.401D-02 0.628D-03-0.859D-02-0.474D-01
 Coeff:     -0.838D-01 0.301D+00 0.356D+00-0.167D-01 0.486D+00
 Gap=     0.138 Goal=   None    Shift=    0.000
 RMSDP=1.20D-04 MaxDP=1.12D-02 DE= 2.27D-05 OVMax= 1.02D-02

 Cycle  12  Pass 1  IDiag  1:
 E= -821.244243425823     Delta-E=       -0.000847732397 Rises=F Damp=F
 DIIS: error= 1.24D-03 at cycle  12 NSaved=  12.
 NSaved=12 IEnMin=12 EnMin= -821.244243425823     IErMin=12 ErrMin= 1.24D-03
 ErrMax= 1.24D-03  0.00D+00 EMaxC= 1.00D-01 BMatC= 7.35D-04 BMatP= 1.80D-03
 IDIUse=3 WtCom= 9.88D-01 WtEn= 1.24D-02
 Coeff-Com: -0.208D-02 0.302D-02-0.723D-03 0.143D-03-0.547D-02 0.163D-01
 Coeff-Com:  0.394D-01 0.115D+00-0.134D+00-0.120D+01 0.445D+00 0.172D+01
 Coeff-En:   0.000D+00 0.000D+00 0.000D+00 0.000D+00 0.000D+00 0.000D+00
 Coeff-En:   0.000D+00 0.000D+00 0.000D+00 0.000D+00 0.000D+00 0.100D+01
 Coeff:     -0.206D-02 0.299D-02-0.714D-03 0.141D-03-0.541D-02 0.160D-01
 Coeff:      0.390D-01 0.113D+00-0.133D+00-0.119D+01 0.440D+00 0.171D+01
 Gap=     0.138 Goal=   None    Shift=    0.000
 RMSDP=1.31D-04 MaxDP=9.26D-03 DE=-8.48D-04 OVMax= 1.05D-02

 Cycle  13  Pass 1  IDiag  1:
 E= -821.244846316618     Delta-E=       -0.000602890795 Rises=F Damp=F
 DIIS: error= 4.36D-04 at cycle  13 NSaved=  13.
 NSaved=13 IEnMin=13 EnMin= -821.244846316618     IErMin=13 ErrMin= 4.36D-04
 ErrMax= 4.36D-04  0.00D+00 EMaxC= 1.00D-01 BMatC= 1.16D-04 BMatP= 7.35D-04
 IDIUse=3 WtCom= 9.96D-01 WtEn= 4.36D-03
 Coeff-Com: -0.229D-03-0.107D-03-0.114D-03 0.828D-06-0.331D-02 0.109D-01
 Coeff-Com:  0.195D-01 0.128D-01-0.112D+00-0.646D+00 0.230D+00 0.100D+01
 Coeff-Com:  0.487D+00
 Coeff-En:   0.000D+00 0.000D+00 0.000D+00 0.000D+00 0.000D+00 0.000D+00
 Coeff-En:   0.000D+00 0.000D+00 0.000D+00 0.000D+00 0.342D-01 0.000D+00
 Coeff-En:   0.966D+00
 Coeff:     -0.228D-03-0.107D-03-0.114D-03 0.824D-06-0.330D-02 0.108D-01
 Coeff:      0.194D-01 0.128D-01-0.112D+00-0.643D+00 0.229D+00 0.997D+00
 Coeff:      0.489D+00
 Gap=     0.130 Goal=   None    Shift=    0.000
 RMSDP=6.92D-05 MaxDP=3.89D-03 DE=-6.03D-04 OVMax= 7.11D-03

 Cycle  14  Pass 1  IDiag  1:
 E= -821.244862284599     Delta-E=       -0.000015967981 Rises=F Damp=F
 DIIS: error= 2.69D-04 at cycle  14 NSaved=  14.
 NSaved=14 IEnMin=14 EnMin= -821.244862284599     IErMin=14 ErrMin= 2.69D-04
 ErrMax= 2.69D-04  0.00D+00 EMaxC= 1.00D-01 BMatC= 5.19D-05 BMatP= 1.16D-04
 IDIUse=3 WtCom= 9.97D-01 WtEn= 2.69D-03
 Coeff-Com: -0.262D-03 0.591D-03-0.664D-03-0.102D-04-0.204D-03 0.421D-02
 Coeff-Com:  0.323D-02 0.118D-01-0.211D-01-0.230D+00-0.688D-03 0.464D+00
 Coeff-Com:  0.358D+00 0.410D+00
 Coeff-En:   0.000D+00 0.000D+00 0.000D+00 0.000D+00 0.000D+00 0.000D+00
 Coeff-En:   0.000D+00 0.000D+00 0.000D+00 0.000D+00 0.000D+00 0.000D+00
 Coeff-En:   0.453D+00 0.547D+00
 Coeff:     -0.262D-03 0.590D-03-0.662D-03-0.102D-04-0.203D-03 0.420D-02
 Coeff:      0.322D-02 0.118D-01-0.211D-01-0.229D+00-0.686D-03 0.463D+00
 Coeff:      0.359D+00 0.411D+00
 Gap=     0.134 Goal=   None    Shift=    0.000
 RMSDP=4.70D-05 MaxDP=2.69D-03 DE=-1.60D-05 OVMax= 4.79D-03

 Cycle  15  Pass 1  IDiag  1:
 E= -821.244930493351     Delta-E=       -0.000068208752 Rises=F Damp=F
 DIIS: error= 7.66D-05 at cycle  15 NSaved=  15.
 NSaved=15 IEnMin=15 EnMin= -821.244930493351     IErMin=15 ErrMin= 7.66D-05
 ErrMax= 7.66D-05  0.00D+00 EMaxC= 1.00D-01 BMatC= 2.48D-06 BMatP= 5.19D-05
 IDIUse=1 WtCom= 1.00D+00 WtEn= 0.00D+00
 Coeff-Com:  0.177D-03 0.858D-04-0.271D-03 0.153D-05-0.421D-04 0.895D-03
 Coeff-Com: -0.810D-03 0.206D-02-0.351D-02-0.759D-01-0.170D-01 0.190D+00
 Coeff-Com:  0.178D+00 0.263D+00 0.463D+00
 Coeff:      0.177D-03 0.858D-04-0.271D-03 0.153D-05-0.421D-04 0.895D-03
 Coeff:     -0.810D-03 0.206D-02-0.351D-02-0.759D-01-0.170D-01 0.190D+00
 Coeff:      0.178D+00 0.263D+00 0.463D+00
 Gap=     0.133 Goal=   None    Shift=    0.000
 RMSDP=4.85D-06 MaxDP=3.40D-04 DE=-6.82D-05 OVMax= 4.08D-04

 Cycle  16  Pass 1  IDiag  1:
 E= -821.244931831520     Delta-E=       -0.000001338169 Rises=F Damp=F
 DIIS: error= 6.06D-06 at cycle  16 NSaved=  16.
 NSaved=16 IEnMin=16 EnMin= -821.244931831520     IErMin=16 ErrMin= 6.06D-06
 ErrMax= 6.06D-06  0.00D+00 EMaxC= 1.00D-01 BMatC= 2.04D-08 BMatP= 2.48D-06
 IDIUse=1 WtCom= 1.00D+00 WtEn= 0.00D+00
 Coeff-Com:  0.459D-04 0.972D-05-0.387D-04 0.822D-07-0.368D-05 0.377D-04
 Coeff-Com: -0.156D-03-0.359D-03-0.130D-02-0.149D-01-0.369D-02 0.383D-01
 Coeff-Com:  0.367D-01 0.583D-01 0.118D+00 0.769D+00
 Coeff:      0.459D-04 0.972D-05-0.387D-04 0.822D-07-0.368D-05 0.377D-04
 Coeff:     -0.156D-03-0.359D-03-0.130D-02-0.149D-01-0.369D-02 0.383D-01
 Coeff:      0.367D-01 0.583D-01 0.118D+00 0.769D+00
 Gap=     0.133 Goal=   None    Shift=    0.000
 RMSDP=1.18D-06 MaxDP=6.65D-05 DE=-1.34D-06 OVMax= 1.17D-04

 Cycle  17  Pass 1  IDiag  1:
 E= -821.244931814210     Delta-E=        0.000000017310 Rises=F Damp=F
 DIIS: error= 4.78D-06 at cycle  17 NSaved=  17.
 NSaved=17 IEnMin=16 EnMin= -821.244931831520     IErMin=17 ErrMin= 4.78D-06
 ErrMax= 4.78D-06  0.00D+00 EMaxC= 1.00D-01 BMatC= 1.77D-08 BMatP= 2.04D-08
 IDIUse=1 WtCom= 1.00D+00 WtEn= 0.00D+00
 Coeff-Com:  0.135D-04 0.202D-04-0.171D-04-0.801D-07 0.120D-04-0.230D-04
 Coeff-Com: -0.943D-04-0.140D-03-0.421D-03-0.637D-02-0.277D-02 0.180D-01
 Coeff-Com:  0.171D-01 0.253D-01 0.607D-01 0.497D+00 0.391D+00
 Coeff:      0.135D-04 0.202D-04-0.171D-04-0.801D-07 0.120D-04-0.230D-04
 Coeff:     -0.943D-04-0.140D-03-0.421D-03-0.637D-02-0.277D-02 0.180D-01
 Coeff:      0.171D-01 0.253D-01 0.607D-01 0.497D+00 0.391D+00
 Gap=     0.133 Goal=   None    Shift=    0.000
 RMSDP=6.13D-07 MaxDP=3.43D-05 DE= 1.73D-08 OVMax= 6.10D-05

 Cycle  18  Pass 1  IDiag  1:
 E= -821.244931821308     Delta-E=       -0.000000007097 Rises=F Damp=F
 DIIS: error= 1.48D-06 at cycle  18 NSaved=  18.
 NSaved=18 IEnMin=16 EnMin= -821.244931831520     IErMin=18 ErrMin= 1.48D-06
 ErrMax= 1.48D-06  0.00D+00 EMaxC= 1.00D-01 BMatC= 1.52D-09 BMatP= 1.77D-08
 IDIUse=1 WtCom= 1.00D+00 WtEn= 0.00D+00
 Coeff-Com:  0.661D-05 0.672D-05 0.848D-07-0.156D-06 0.228D-05-0.314D-04
 Coeff-Com: -0.435D-04-0.927D-04-0.171D-03-0.205D-02-0.101D-02 0.627D-02
 Coeff-Com:  0.527D-02 0.448D-02 0.215D-01 0.206D+00 0.257D+00 0.502D+00
 Coeff:      0.661D-05 0.672D-05 0.848D-07-0.156D-06 0.228D-05-0.314D-04
 Coeff:     -0.435D-04-0.927D-04-0.171D-03-0.205D-02-0.101D-02 0.627D-02
 Coeff:      0.527D-02 0.448D-02 0.215D-01 0.206D+00 0.257D+00 0.502D+00
 Gap=     0.133 Goal=   None    Shift=    0.000
 RMSDP=8.24D-08 MaxDP=3.17D-06 DE=-7.10D-09 OVMax= 8.21D-06

 Cycle  19  Pass 1  IDiag  1:
 E= -821.244931821238     Delta-E=        0.000000000070 Rises=F Damp=F
 DIIS: error= 7.05D-07 at cycle  19 NSaved=  19.
 NSaved=19 IEnMin=16 EnMin= -821.244931831520     IErMin=19 ErrMin= 7.05D-07
 ErrMax= 7.05D-07  0.00D+00 EMaxC= 1.00D-01 BMatC= 3.59D-10 BMatP= 1.52D-09
 IDIUse=1 WtCom= 1.00D+00 WtEn= 0.00D+00
 Coeff-Com:  0.136D-05 0.389D-05 0.765D-06-0.815D-07 0.225D-05-0.163D-04
 Coeff-Com: -0.274D-04 0.215D-04 0.154D-04-0.504D-03-0.391D-03 0.182D-02
 Coeff-Com:  0.119D-02-0.736D-03 0.575D-02 0.478D-01 0.702D-01 0.266D+00
 Coeff-Com:  0.609D+00
 Coeff:      0.136D-05 0.389D-05 0.765D-06-0.815D-07 0.225D-05-0.163D-04
 Coeff:     -0.274D-04 0.215D-04 0.154D-04-0.504D-03-0.391D-03 0.182D-02
 Coeff:      0.119D-02-0.736D-03 0.575D-02 0.478D-01 0.702D-01 0.266D+00
 Coeff:      0.609D+00
 Gap=     0.133 Goal=   None    Shift=    0.000
 RMSDP=1.53D-07 MaxDP=8.97D-06 DE= 7.00D-11 OVMax= 1.58D-05

 Cycle  20  Pass 1  IDiag  1:
 E= -821.244931822555     Delta-E=       -0.000000001318 Rises=F Damp=F
 DIIS: error= 3.69D-07 at cycle  20 NSaved=  20.
 NSaved=20 IEnMin=16 EnMin= -821.244931831520     IErMin=20 ErrMin= 3.69D-07
 ErrMax= 3.69D-07  0.00D+00 EMaxC= 1.00D-01 BMatC= 5.62D-11 BMatP= 3.59D-10
 IDIUse=1 WtCom= 1.00D+00 WtEn= 0.00D+00
 Coeff-Com: -0.138D-06 0.770D-06 0.447D-06-0.270D-07 0.433D-06-0.186D-05
 Coeff-Com: -0.469D-05 0.103D-04-0.124D-04-0.114D-03 0.793D-04 0.190D-03
 Coeff-Com:  0.429D-04-0.287D-03-0.171D-03-0.549D-02-0.840D-02 0.167D-01
 Coeff-Com:  0.158D+00 0.839D+00
 Coeff:     -0.138D-06 0.770D-06 0.447D-06-0.270D-07 0.433D-06-0.186D-05
 Coeff:     -0.469D-05 0.103D-04-0.124D-04-0.114D-03 0.793D-04 0.190D-03
 Coeff:      0.429D-04-0.287D-03-0.171D-03-0.549D-02-0.840D-02 0.167D-01
 Coeff:      0.158D+00 0.839D+00
 Gap=     0.133 Goal=   None    Shift=    0.000
 RMSDP=1.84D-08 MaxDP=1.27D-06 DE=-1.32D-09 OVMax= 1.54D-06

 Cycle  21  Pass 1  IDiag  1:
 E= -821.244931821362     Delta-E=        0.000000001193 Rises=F Damp=F
 DIIS: error= 4.30D-08 at cycle  21 NSaved=  20.
 NSaved=20 IEnMin=15 EnMin= -821.244931831520     IErMin=20 ErrMin= 4.30D-08
 ErrMax= 4.30D-08  0.00D+00 EMaxC= 1.00D-01 BMatC= 1.02D-12 BMatP= 5.62D-11
 IDIUse=1 WtCom= 1.00D+00 WtEn= 0.00D+00
 Coeff-Com:  0.486D-07 0.459D-09 0.385D-07-0.127D-07-0.514D-06-0.603D-06
 Coeff-Com:  0.232D-05-0.182D-05-0.315D-05 0.363D-04-0.139D-04-0.246D-04
 Coeff-Com: -0.333D-04-0.342D-03-0.339D-02-0.462D-02-0.760D-02-0.937D-02
 Coeff-Com:  0.195D+00 0.830D+00
 Coeff:      0.486D-07 0.459D-09 0.385D-07-0.127D-07-0.514D-06-0.603D-06
 Coeff:      0.232D-05-0.182D-05-0.315D-05 0.363D-04-0.139D-04-0.246D-04
 Coeff:     -0.333D-04-0.342D-03-0.339D-02-0.462D-02-0.760D-02-0.937D-02
 Coeff:      0.195D+00 0.830D+00
 Gap=     0.133 Goal=   None    Shift=    0.000
 RMSDP=5.80D-09 MaxDP=3.75D-07 DE= 1.19D-09 OVMax= 5.50D-07

 Cycle  22  Pass 1  IDiag  1:
 E= -821.244931821096     Delta-E=        0.000000000266 Rises=F Damp=F
 DIIS: error= 5.86D-09 at cycle  22 NSaved=  20.
 NSaved=20 IEnMin=14 EnMin= -821.244931831520     IErMin=20 ErrMin= 5.86D-09
 ErrMax= 5.86D-09  0.00D+00 EMaxC= 1.00D-01 BMatC= 2.03D-14 BMatP= 1.02D-12
 IDIUse=1 WtCom= 1.00D+00 WtEn= 0.00D+00
 Coeff-Com:  0.155D-07-0.883D-08-0.499D-08-0.147D-06-0.228D-07 0.705D-06
 Coeff-Com:  0.208D-07 0.397D-05 0.104D-04-0.113D-04-0.132D-04-0.164D-04
 Coeff-Com: -0.128D-03-0.108D-02-0.144D-02-0.272D-02-0.855D-02 0.510D-01
 Coeff-Com:  0.318D+00 0.645D+00
 Coeff:      0.155D-07-0.883D-08-0.499D-08-0.147D-06-0.228D-07 0.705D-06
 Coeff:      0.208D-07 0.397D-05 0.104D-04-0.113D-04-0.132D-04-0.164D-04
 Coeff:     -0.128D-03-0.108D-02-0.144D-02-0.272D-02-0.855D-02 0.510D-01
 Coeff:      0.318D+00 0.645D+00
 Gap=     0.133 Goal=   None    Shift=    0.000
 RMSDP=1.26D-09 MaxDP=7.46D-08 DE= 2.66D-10 OVMax= 1.33D-07

 Error on nuclear    polarization charges =  0.01279
 Error on electronic polarization charges = -0.04288
 SCF Done:  E(RB-P86) =  -821.244931821     A.U. after   22 cycles
            NFock= 22  Conv=0.13D-08     -V/T= 2.5125
 KE= 5.429879791008D+02 PE=-2.775864378924D+03 EE= 9.336696478460D+02
 --------------------------------------------------------------------
 Variational C-PCM results
 =========================
 <psi(f)|   H    |psi(f)>                     (a.u.) =    -821.188360
 <psi(f)|H+V(f)/2|psi(f)>                     (a.u.) =    -821.244932
 Total free energy in solution:
 - with all non electrostatic terms           (a.u.) =    -821.227378
 --------------------------------------------------------------------
 (Polarized solute)-Solvent               (kcal/mol) =     -35.50
 --------------------------------------------------------------------
 Cavitation energy                        (kcal/mol) =      20.51
 Dispersion energy                        (kcal/mol) =     -10.67
 Repulsion energy                         (kcal/mol) =       1.18
 Total non electrostatic                  (kcal/mol) =      11.02
 --------------------------------------------------------------------
 Partition over spheres:
 Sphere  on Atom  Surface  Charge   GEl     GCav    GDR
    1     Pa1      19.88  -0.280   -4.67    1.13   -0.21
    2      O2      17.74   0.221   -3.17    2.59   -1.02
    3      O3      17.39   0.161   -0.42    2.50   -0.91
    4      O4      17.99   0.242   -5.87    2.64   -1.17
    5      H5       9.20  -0.122   -1.81    1.30   -0.84
    6      O6      14.45  -0.022   -1.00    2.09   -0.72
    7      H7       9.20  -0.161   -5.09    1.30   -0.88
    8      H8       9.20  -0.161   -4.58    1.30   -0.89
    9      H9       9.18  -0.108   -0.65    1.30   -0.83
   10      O10     21.48   0.330   -7.55    3.08   -1.25
   11      H11      9.18  -0.100   -0.69    1.30   -0.78
 --------------------------------------------------------------------
 - cavitation energy not included in the total energy.
 - dispersion energy not included in the total energy.
 - repulsion  energy not included in the total energy.
 After PCM corrections, the energy is  -821.244931821     a.u.
 --------------------------------------------------------------------
 Writing COSMO formatted file "pao_oh3_h2o-bp86-cosmors-deftzvp-klamt.cosmo"
 Recomputed dielectric energy= -0.056835 old= -0.056572 diff=-2.63D-04
 Leave Link  502 at Thu Jun 22 13:40:36 2023, MaxMem=  2147483648 cpu:             679.9 elap:             119.6
 (Enter /home/pcmt/gaussian/g16.C.01/g16/l601.exe)
 Copying SCF densities to generalized density rwf, IOpCl= 0 IROHF=0.

 **********************************************************************

            Population analysis using the SCF Density.

 **********************************************************************

 Orbital symmetries:
       Occupied  (A) (A) (A) (A) (A) (A) (A) (A) (A) (A) (A) (A)
                 (A) (A) (A) (A) (A) (A) (A) (A) (A) (A) (A) (A)
                 (A) (A) (A) (A) (A) (A) (A) (A) (A) (A) (A) (A)
                 (A) (A)
       Virtual   (A) (A) (A) (A) (A) (A) (A) (A) (A) (A) (A) (A)
                 (A) (A) (A) (A) (A) (A) (A) (A) (A) (A) (A) (A)
                 (A) (A) (A) (A) (A) (A) (A) (A) (A) (A) (A) (A)
                 (A) (A) (A) (A) (A) (A) (A) (A) (A) (A) (A) (A)
                 (A) (A) (A) (A) (A) (A) (A) (A) (A) (A) (A) (A)
                 (A) (A) (A) (A) (A) (A) (A) (A) (A) (A) (A) (A)
                 (A) (A) (A) (A) (A) (A) (A) (A) (A) (A) (A) (A)
                 (A) (A) (A) (A) (A) (A) (A) (A) (A) (A) (A) (A)
                 (A) (A) (A) (A) (A) (A) (A) (A) (A) (A) (A) (A)
                 (A) (A) (A) (A) (A) (A) (A) (A) (A) (A) (A) (A)
                 (A) (A) (A) (A) (A) (A) (A) (A) (A) (A) (A) (A)
                 (A) (A) (A) (A) (A) (A) (A) (A) (A) (A) (A) (A)
                 (A) (A) (A) (A) (A) (A) (A) (A) (A) (A) (A) (A)
                 (A) (A) (A) (A) (A) (A) (A) (A) (A) (A) (A) (A)
                 (A) (A) (A) (A) (A) (A) (A) (A) (A) (A) (A) (A)
                 (A) (A) (A) (A) (A) (A) (A) (A) (A) (A) (A) (A)
                 (A) (A) (A) (A) (A) (A) (A) (A) (A) (A) (A) (A)
                 (A) (A) (A) (A) (A) (A) (A) (A) (A) (A) (A) (A)
                 (A) (A) (A) (A) (A) (A) (A) (A) (A) (A) (A) (A)
                 (A) (A) (A) (A) (A) (A) (A) (A) (A) (A) (A) (A)
                 (A) (A) (A) (A) (A) (A)
 The electronic state is 1-A.
 Alpha  occ. eigenvalues --  -18.81765 -18.76208 -18.75004 -18.74253 -18.73325
 Alpha  occ. eigenvalues --  -11.07896  -7.14686  -7.14595  -7.13274  -3.50390
 Alpha  occ. eigenvalues --   -3.50355  -3.49728  -3.49664  -3.49105  -1.70232
 Alpha  occ. eigenvalues --   -0.97355  -0.96031  -0.90742  -0.89619  -0.86713
 Alpha  occ. eigenvalues --   -0.78947  -0.78270  -0.67766  -0.52395  -0.42434
 Alpha  occ. eigenvalues --   -0.42051  -0.40495  -0.38869  -0.31910  -0.30903
 Alpha  occ. eigenvalues --   -0.29947  -0.28395  -0.28229  -0.27725  -0.27114
 Alpha  occ. eigenvalues --   -0.25923  -0.25392  -0.23925
 Alpha virt. eigenvalues --   -0.10650  -0.09827  -0.09324  -0.08625  -0.08175
 Alpha virt. eigenvalues --   -0.06812  -0.05899  -0.02587  -0.02013   0.00547
 Alpha virt. eigenvalues --    0.01334   0.02140   0.02523   0.04063   0.05811
 Alpha virt. eigenvalues --    0.06638   0.07803   0.09536   0.10804   0.12001
[...]
               1
     1  Pa   1.526070
     2  O   -0.357335
     3  O   -0.306163
     4  O   -0.420819
     6  O    0.139167
    10  O   -0.580920
 Electronic spatial extent (au):  <R**2>=            976.6754
 Charge=             -0.0000 electrons
 Dipole moment (field-independent basis, Debye):
    X=              7.2040    Y=              4.6840    Z=             -1.3559  Tot=              8.6992
 Quadrupole moment (field-independent basis, Debye-Ang):
   XX=            -50.7163   YY=            -72.6820   ZZ=            -65.6525
   XY=             -4.5678   XZ=             -1.4577   YZ=             -1.7681
 Traceless Quadrupole moment (field-independent basis, Debye-Ang):
   XX=             12.3006   YY=             -9.6651   ZZ=             -2.6355
   XY=             -4.5678   XZ=             -1.4577   YZ=             -1.7681
 Octapole moment (field-independent basis, Debye-Ang**2):
  XXX=             73.6589  YYY=             37.5322  ZZZ=             -8.5894  XYY=              3.3564
  XXY=             14.6697  XXZ=             -6.3475  XZZ=              0.3289  YZZ=            -12.7346
  YYZ=              8.7080  XYZ=              1.3027
 Hexadecapole moment (field-independent basis, Debye-Ang**3):
 XXXX=           -288.0282 YYYY=           -386.3261 ZZZZ=           -222.9135 XXXY=            -38.9105
 XXXZ=            -11.9317 YYYX=             -4.7050 YYYZ=             23.2241 ZZZX=              0.0528
 ZZZY=            -31.4199 XXYY=           -125.5342 XXZZ=           -141.9095 YYZZ=           -108.8752
 XXYZ=             -6.8441 YYXZ=             -2.4838 ZZXY=             -1.7405
 N-N= 4.779618201563D+02 E-N=-2.775864377371D+03  KE= 5.429879791008D+02
 Orbital energies and kinetic energies (alpha):
                                 1                 2
   1         O               -18.817651         29.113754
   2         O               -18.762081         29.112361
   3         O               -18.750043         29.114146
   4         O               -18.742526         29.114123
   5         O               -18.733245         29.110664
   6         O               -11.078959          4.704242
   7         O                -7.146857          5.037303
   8         O                -7.145947          5.036853
   9         O                -7.132737          5.033591
  10         O                -3.503902          6.837387
  11         O                -3.503553          6.837969
  12         O                -3.497276          6.833265
  13         O                -3.496636          6.833292
  14         O                -3.491047          6.829415
  15         O                -1.702321          6.408252
  16         O                -0.973546          2.673077
  17         O                -0.960314          2.274130
  18         O                -0.907425          2.421295
  19         O                -0.896188          2.472705
  20         O                -0.867131          3.081549
  21         O                -0.789473          2.527653
  22         O                -0.782703          2.520274
  23         O                -0.677662          3.175402
  24         O                -0.523948          1.884275
  25         O                -0.424337          2.154123
  26         O                -0.420506          3.049799
  27         O                -0.404949          3.603515
  28         O                -0.388690          2.291904
  29         O                -0.319098          2.296119
  30         O                -0.309035          2.424250
  31         O                -0.299471          2.833815
  32         O                -0.283955          2.479264
  33         O                -0.282291          2.271634
  34         O                -0.277248          2.502214
  35         O                -0.271138          4.070961
  36         O                -0.259229          4.716909
  37         O                -0.253923          4.422352
  38         O                -0.239249          3.390155
  39         V                -0.106504        149.392571
  40         V                -0.098275          7.836276
  41         V                -0.093237          7.746749
  42         V                -0.086253          9.183273
  43         V                -0.081747         87.952940
  44         V                -0.068117         60.663772
  45         V                -0.058990         54.983678
  46         V                -0.025874         23.925284
  47         V                -0.020134         17.886592
  48         V                 0.005474          0.965666
  49         V                 0.013338          2.731429
  50         V                 0.021403          2.702174
  51         V                 0.025233          0.991904
  52         V                 0.040626          1.733983
  53         V                 0.058113          2.209762
  54         V                 0.066383          2.884744
  55         V                 0.078034          6.298133
  56         V                 0.095358          1.596476
  57         V                 0.108038          4.541013
  58         V                 0.120015          2.243895
  59         V                 0.133085          1.064669
  60         V                 0.157016          4.055285
  61         V                 0.199333          1.055678
  62         V                 0.239391          1.300861
  63         V                 0.255013          1.567347
  64         V                 0.265025          1.443418
  65         V                 0.271612          1.361660
  66         V                 0.282772          1.213182
  67         V                 0.288611          1.113829
  68         V                 0.299765          1.663985
  69         V                 0.306432          1.247332
  70         V                 0.325971          1.804478
  71         V                 0.333604          1.108400
  72         V                 0.356461          2.646878
  73         V                 0.372689          1.414584
  74         V                 0.387794          1.334746
  75         V                 0.407377          1.589822
  76         V                 0.418988          1.874729
  77         V                 0.434669          2.005319
  78         V                 0.449493          1.733782
  79         V                 0.462003          1.741322
  80         V                 0.477590          1.578997
  81         V                 0.484496          1.723428
  82         V                 0.505609          1.794853
  83         V                 0.521778          1.559293
  84         V                 0.537305          1.762471
  85         V                 0.540447          1.639625
  86         V                 0.553722          1.548744
  87         V                 0.568313          1.752686
  88         V                 0.581335          1.841891
  89         V                 0.603479          1.543749
  90         V                 0.617344          1.569219
  91         V                 0.626566          4.545564
  92         V                 0.652598          1.598370
  93         V                 0.662057          1.957413
  94         V                 0.677022          1.471780
  95         V                 0.688250          1.577572
  96         V                 0.717940          1.532507
  97         V                 0.734433          1.469367
  98         V                 0.786145          2.071408
  99         V                 0.835239          1.877865
 100         V                 0.885546          2.018562
 101         V                 0.926002          3.033260
 102         V                 1.004300          2.796754
 103         V                 1.028259          2.536320
 104         V                 1.043040          2.602879
 105         V                 1.071078          2.433625
 106         V                 1.079000          2.491763
 107         V                 1.095668          2.684070
 108         V                 1.105598          2.599193
 109         V                 1.135164          2.887140
 110         V                 1.144969          3.006303
 111         V                 1.152696          2.902721
 112         V                 1.169435          2.774151
 113         V                 1.187190          2.614539
 114         V                 1.192929          2.923018
 115         V                 1.207528          2.876958
 116         V                 1.221632          2.751851
 117         V                 1.256109          2.814875
 118         V                 1.259285          3.077475
 119         V                 1.292106          3.037433
 120         V                 1.313970          2.478256
 121         V                 1.326071          2.260604
 122         V                 1.381946          2.444447
 123         V                 1.394146          2.906761
 124         V                 1.406557          3.190236
 125         V                 1.434812          3.135918
 126         V                 1.471285          3.110574
 127         V                 1.498218          2.905805
 128         V                 1.524425          2.984860
 129         V                 1.538047          3.045079
 130         V                 1.554683          3.166799
 131         V                 1.576801          3.194977
 132         V                 1.597269          3.248030
 133         V                 1.625244          3.081522
 134         V                 1.639386          3.233705
 135         V                 1.645117          3.108430
 136         V                 1.659515          2.972060
 137         V                 1.688487          3.103065
 138         V                 1.724634          3.090114
 139         V                 1.740725          3.280307
 140         V                 1.766193          3.152155
 141         V                 1.809310          3.547475
 142         V                 1.825180          3.532668
 143         V                 1.828959          3.628746
 144         V                 1.857272          3.412954
 145         V                 1.867217          3.131028
 146         V                 1.899925          3.713123
 147         V                 1.945022          3.823647
 148         V                 1.988964          3.396072
 149         V                 2.024802          3.028696
 150         V                 2.055968          3.628414
 151         V                 2.085092          3.818766
 152         V                 2.097691          3.391939
 153         V                 2.118233          3.816692
 154         V                 2.133572          3.792719
 155         V                 2.143461          3.585647
 156         V                 2.158554          3.471169
 157         V                 2.188404          4.025755
 158         V                 2.246590          4.048177
 159         V                 2.252050          4.126174
 160         V                 2.275803          4.809934
 161         V                 2.292515          4.938439
 162         V                 2.336168          5.533192
 163         V                 2.427097          4.086523
 164         V                 2.446089          4.304757
 165         V                 2.471183          4.366538
 166         V                 2.482759          4.215419
 167         V                 2.521350          6.616312
 168         V                 2.573175          5.076704
 169         V                 2.580871          6.277972
 170         V                 2.601349          6.705023
 171         V                 2.613389          6.781155
 172         V                 2.623365          6.331258
 173         V                 2.650746          6.034123
 174         V                 2.664734          6.103443
 175         V                 2.676597          5.889923
 176         V                 2.773151          7.057372
 177         V                 2.832891          6.776719
 178         V                 2.865550          6.674553
 179         V                 2.897652          7.048433
 180         V                 2.949701          7.242595
 181         V                 2.967258          6.791426
 182         V                 3.150880          7.453378
 183         V                 3.294241          8.519261
 184         V                 3.390511          8.007674
 185         V                 3.541857          6.519269
 186         V                 3.579073          8.055608
 187         V                 3.684373          7.796406
 188         V                 3.698010          6.903649
 189         V                 3.711617          6.793012
 190         V                 3.733980          9.168129
 191         V                 3.804035          6.814089
 192         V                 3.848409          9.707828
 193         V                 3.863473          9.408382
 194         V                 3.874894          9.150010
 195         V                 3.915883          8.743791
 196         V                 4.038366          9.692772
 197         V                 4.135004          9.595875
 198         V                 4.272002          8.964582
 199         V                 4.961629          6.523615
 200         V                 5.013083          6.445119
 201         V                 5.017599          6.491013
 202         V                 5.022279          6.461058
 203         V                 5.028502          6.506191
 204         V                 5.034968          6.470879
 205         V                 5.036311          6.489051
 206         V                 5.045536          6.478020
 207         V                 5.049338          6.487522
 208         V                 5.076272          6.735814
 209         V                 5.079840          6.624639
 210         V                 5.093347          6.670468
 211         V                 5.094349          6.630448
 212         V                 5.131183          6.661347
 213         V                 5.133032          6.725060
 214         V                 5.166428          6.831273
 215         V                 5.177595          6.846088
 216         V                 5.193431          6.900187
 217         V                 5.208676          6.903977
 218         V                 5.224472          6.967656
 219         V                 5.238827          6.910255
 220         V                 5.250905          6.839697
 221         V                 5.295366          7.616441
 222         V                 5.306601          6.892425
 223         V                 5.324258          6.938763
 224         V                 5.336760          6.984360
 225         V                 5.348460          7.157978
 226         V                 5.395068          7.289345
 227         V                 5.435329          7.109562
 228         V                 5.441116          7.225624
 229         V                 5.841385          8.534161
 230         V                 6.042069         10.143458
 231         V                 6.050967          9.097389
 232         V                 6.079064          8.971416
 233         V                 6.111476          9.076413
 234         V                 6.136692         10.135686
 235         V                 6.164319          9.290091
 236         V                 6.187920          9.346357
 237         V                 6.192629          9.380017
 238         V                 6.198539          9.354716
 239         V                 6.217806          9.429635
 240         V                 6.234457          9.401900
 241         V                 6.250205          9.402782
 242         V                 6.280908          9.400285
 243         V                 6.323607          9.461860
 244         V                 6.339210          9.483904
 245         V                 6.364827          9.522434
 246         V                 6.401039          9.647232
 247         V                 6.439436          9.602457
 248         V                 6.491107          9.882081
 249         V                 6.568487          9.708062
 250         V                 6.600216          9.694569
 251         V                 6.656920         10.530691
 252         V                 6.697829         10.334617
 253         V                 6.743825         10.139507
 254         V                 6.756634          9.583214
 255         V                 6.835445         10.557740
 256         V                 6.860241          9.958169
 257         V                 6.903124          9.662395
 258         V                 6.922075          9.746957
 259         V                 6.992362         10.538176
 260         V                 7.239436         13.181761
 261         V                 7.375583         13.465427
 262         V                 7.465822         13.681827
 263         V                 8.143919         15.783872
 264         V                 8.189286         15.809112
 265         V                 8.237260         15.808729
 266         V                 8.611572         16.040028
 267         V                 8.948174         16.203673
 268         V                29.308206         36.015211
 269         V                29.394217         36.099268
 270         V                29.485371         36.172138
 271         V                43.020131        108.436674
 272         V                43.149889        108.493814
 273         V                43.223360        108.565985
 274         V                43.362477        108.700557
 275         V                43.524260        108.858014
 276         V                54.109093         39.980559
 277         V                70.225553         83.933991
 278         V                70.272987         84.027309
 279         V                70.329880         84.116429
 280         V               142.606215        242.407147
 281         V               142.700336        242.525505
 282         V               142.802207        242.652211
 283         V               202.610837        130.086060
 284         V               626.121758       1034.504554
 Total kinetic energy from orbitals= 5.429879791008D+02
 No NMR shielding tensors so no spin-rotation constants.
 Leave Link  601 at Thu Jun 22 13:40:37 2023, MaxMem=  2147483648 cpu:               3.2 elap:               0.5
 (Enter /home/pcmt/gaussian/g16.C.01/g16/l9999.exe)

 Test job not archived.
 1\1\GINC-U-0-8\SP\RBP86\Gen\H5O5Pa1\ROOT\22-Jun-2023\0\\#p BP86/GEN Ps
 eudo=Read GFInput GFPrint IOP(6/7=3) Symm=(Loose) Int=(UltraFine) Gues
 s=(Harris) SCRF=(COSMORS,Read) Scf=(NoVarAcc,MaxCycle=100,conver=8)\\p
 ao_oh3_h2o-bp86-cosmors-deftzvp-kalmt. SGP in PCM calculation\\0,1\Pa,
 0,-0.1346336414,0.1401145063,0.8209707447\O,0,1.1993763881,1.473242180
 8,-0.2465578232\O,0,-1.7467826852,0.9012213507,-0.3413112002\O,0,-0.59
 68413432,1.4334449292,2.534235477\H,0,-1.8533699815,1.6688092931,-0.91
 78097471\O,0,0.0138052613,-1.6688080942,-0.9705766043\H,0,-0.421009622
 6,-1.6455760162,-1.8328778099\H,0,0.706313581,-2.3400367829,-1.0227774
 377\H,0,2.1541384089,1.5357890507,-0.1295128435\O,0,1.1981168384,-0.82
 24589996,1.7318355056\H,0,-1.261570759,2.1318457068,2.5239539983\\Vers
 ion=ES64L-G16RevC.01\State=1-A\HF=-821.2449318\RMSD=1.257e-09\Dipole=-
 1.2366956,-1.4331232,-2.8513799\Quadrupole=-2.5138967,4.3418084,-1.827
 9117,-0.8251488,-3.9752377,7.2973311\PG=C01 [X(H5O5Pa1)]\\@


 ONE BIG VICE IN A MAN IS APT TO KEEP OUT MANY SMALLER ONES.

                           -- BRET HARTE
 Job cpu time:       0 days  0 hours 11 minutes 49.6 seconds.
 Elapsed time:       0 days  0 hours  2 minutes  3.9 seconds.
 File lengths (MBytes):  RWF=     43 Int=      0 D2E=      0 Chk=      6 Scr=      1
 Normal termination of Gaussian 16 at Thu Jun 22 13:40:37 2023.
