 Entering Gaussian System, Link 0=/home/pcmt/gaussian/g16.C.01/g16/g16
 AtFile(1): /home/shaaban/basis.gaussian/Pa-def-TZVP
 AtFile(1): /home/shaaban/basis.gaussian/Pa-ECP60MWB
 Initial command:
 /home/pcmt/gaussian/g16.C.01/g16/l1.exe "/state/partition2/shaaban/971585.phlam-s-sakura/Gau-9716.inp" -scrdir="/state/partition2/shaaban/971585.phlam-s-sakura/"
 Entering Link 1 = /home/pcmt/gaussian/g16.C.01/g16/l1.exe PID=      9717.
  
 Copyright (c) 1988-2019, Gaussian, Inc.  All Rights Reserved.
  
 This is part of the Gaussian(R) 16 program.  It is based on
 the Gaussian(R) 09 system (copyright 2009, Gaussian, Inc.),
 the Gaussian(R) 03 system (copyright 2003, Gaussian, Inc.),
 the Gaussian(R) 98 system (copyright 1998, Gaussian, Inc.),
 the Gaussian(R) 94 system (copyright 1995, Gaussian, Inc.),
 the Gaussian 92(TM) system (copyright 1992, Gaussian, Inc.),
 the Gaussian 90(TM) system (copyright 1990, Gaussian, Inc.),
 the Gaussian 88(TM) system (copyright 1988, Gaussian, Inc.),
 the Gaussian 86(TM) system (copyright 1986, Carnegie Mellon
 University), and the Gaussian 82(TM) system (copyright 1983,
 Carnegie Mellon University). Gaussian is a federally registered
 trademark of Gaussian, Inc.
  
 This software contains proprietary and confidential information,
 including trade secrets, belonging to Gaussian, Inc.
  
 This software is provided under written license and may be
 used, copied, transmitted, or stored only in accord with that
 written license.
  
 The following legend is applicable only to US Government
 contracts under FAR:
  
                    RESTRICTED RIGHTS LEGEND
  
 Use, reproduction and disclosure by the US Government is
 subject to restrictions as set forth in subparagraphs (a)
 and (c) of the Commercial Computer Software - Restricted
 Rights clause in FAR 52.227-19.
  
 Gaussian, Inc.
 340 Quinnipiac St., Bldg. 40, Wallingford CT 06492
  
  
 ---------------------------------------------------------------
 Warning -- This program may not be used in any manner that
 competes with the business of Gaussian, Inc. or will provide
 assistance to any competitor of Gaussian, Inc.  The licensee
 of this program is prohibited from giving any competitor of
 Gaussian, Inc. access to this program.  By using this program,
 the user acknowledges that Gaussian, Inc. is engaged in the
 business of creating and licensing software in the field of
 computational chemistry and represents and warrants to the
 licensee that it is not a competitor of Gaussian, Inc. and that
 it will not use this program in any manner prohibited above.
 ---------------------------------------------------------------
  

 Cite this work as:
 Gaussian 16, Revision C.01,
 M. J. Frisch, G. W. Trucks, H. B. Schlegel, G. E. Scuseria, 
 M. A. Robb, J. R. Cheeseman, G. Scalmani, V. Barone, 
 G. A. Petersson, H. Nakatsuji, X. Li, M. Caricato, A. V. Marenich, 
 J. Bloino, B. G. Janesko, R. Gomperts, B. Mennucci, H. P. Hratchian, 
 J. V. Ortiz, A. F. Izmaylov, J. L. Sonnenberg, D. Williams-Young, 
 F. Ding, F. Lipparini, F. Egidi, J. Goings, B. Peng, A. Petrone, 
 T. Henderson, D. Ranasinghe, V. G. Zakrzewski, J. Gao, N. Rega, 
 G. Zheng, W. Liang, M. Hada, M. Ehara, K. Toyota, R. Fukuda, 
 J. Hasegawa, M. Ishida, T. Nakajima, Y. Honda, O. Kitao, H. Nakai, 
 T. Vreven, K. Throssell, J. A. Montgomery, Jr., J. E. Peralta, 
 F. Ogliaro, M. J. Bearpark, J. J. Heyd, E. N. Brothers, K. N. Kudin, 
 V. N. Staroverov, T. A. Keith, R. Kobayashi, J. Normand, 
 K. Raghavachari, A. P. Rendell, J. C. Burant, S. S. Iyengar, 
 J. Tomasi, M. Cossi, J. M. Millam, M. Klene, C. Adamo, R. Cammi, 
 J. W. Ochterski, R. L. Martin, K. Morokuma, O. Farkas, 
 J. B. Foresman, and D. J. Fox, Gaussian, Inc., Wallingford CT, 2019.
 
 ******************************************
 Gaussian 16:  ES64L-G16RevC.01  3-Jul-2019
                22-Jun-2023 
 ******************************************
 %mem=16Gb
 %NProc=8
 Will use up to    8 processors via shared memory.
 %chk=pao_oh3_h2o.bp86.gp-sp-deftzvp.chk
 ----------------------------------------------------------------------
 #p BP86/GEN Pseudo=Read GFInput GFPrint IOP(6/7=3) Symm=(Loose) Int=(U
 ltraFine) Guess=(Harris) Scf=(NoVarAcc,MaxCycle=100,conver=8)
 ----------------------------------------------------------------------
 1/38=1,172=1/1;
 2/12=2,17=4,18=3,40=1/2;
 3/5=7,11=2,16=1,17=8,24=110,25=1,30=1,74=404,75=-5/1,2,3;
 4/11=8/1;
 5/5=2,6=8,7=100,38=1/2;
 6/7=3,8=2,9=2,10=2,28=1/1;
 99/5=1,9=1/99;
 Leave Link    1 at Thu Jun 22 10:30:12 2023, MaxMem=  2147483648 cpu:               0.6 elap:               0.1
 (Enter /home/pcmt/gaussian/g16.C.01/g16/l101.exe)
 ----------------------------------------------
 pao_oh3_h2o.bp86.gp-sp-deftzvp SGP calculation
 ----------------------------------------------
 Symbolic Z-matrix:
 Charge =  0 Multiplicity = 1
 Pa                   -0.13463   0.14011   0.82097 
 O                     1.19938   1.47324  -0.24656 
 O                    -1.74678   0.90122  -0.34131 
 O                    -0.59684   1.43344   2.53424 
 H                    -1.85337   1.66881  -0.91781 
 O                     0.01381  -1.66881  -0.97058 
 H                    -0.42101  -1.64558  -1.83288 
 H                     0.70631  -2.34004  -1.02278 
 H                     2.15414   1.53579  -0.12951 
 O                     1.19812  -0.82246   1.73184 
 H                    -1.26157   2.13185   2.52395 
 
 ITRead=  0  0  0  0  0  0  0  0  0  0  0
 MicOpt= -1 -1 -1 -1 -1 -1 -1 -1 -1 -1 -1
 NAtoms=     11 NQM=       11 NQMF=       0 NMMI=      0 NMMIF=      0
                NMic=       0 NMicF=      0.
                    Isotopes and Nuclear Properties:
 (Nuclear quadrupole moments (NQMom) in fm**2, nuclear magnetic moments (NMagM)
  in nuclear magnetons)

  Atom         1           2           3           4           5           6           7           8           9          10
 IAtWgt=         231          16          16          16           1          16           1           1           1          16
 AtmWgt= 231.0359000  15.9949146  15.9949146  15.9949146   1.0078250  15.9949146   1.0078250   1.0078250   1.0078250  15.9949146
 NucSpn=           3           0           0           0           1           0           1           1           1           0
 AtZEff=  -0.0000000  -0.0000000  -0.0000000  -0.0000000  -0.0000000  -0.0000000  -0.0000000  -0.0000000  -0.0000000  -0.0000000
 NQMom= -172.0000000   0.0000000   0.0000000   0.0000000   0.0000000   0.0000000   0.0000000   0.0000000   0.0000000   0.0000000
 NMagM=    2.0100000   0.0000000   0.0000000   0.0000000   2.7928460   0.0000000   2.7928460   2.7928460   2.7928460   0.0000000
 AtZNuc=  91.0000000   8.0000000   8.0000000   8.0000000   1.0000000   8.0000000   1.0000000   1.0000000   1.0000000   8.0000000

  Atom        11
 IAtWgt=           1
 AtmWgt=   1.0078250
 NucSpn=           1
 AtZEff=  -0.0000000
 NQMom=    0.0000000
 NMagM=    2.7928460
 AtZNuc=   1.0000000
 Leave Link  101 at Thu Jun 22 10:30:12 2023, MaxMem=  2147483648 cpu:               1.1 elap:               0.2
 (Enter /home/pcmt/gaussian/g16.C.01/g16/l202.exe)
                          Input orientation:                          
 ---------------------------------------------------------------------
 Center     Atomic      Atomic             Coordinates (Angstroms)
 Number     Number       Type             X           Y           Z
 ---------------------------------------------------------------------
      1         91           0       -0.134634    0.140115    0.820971
      2          8           0        1.199376    1.473242   -0.246558
      3          8           0       -1.746783    0.901221   -0.341311
      4          8           0       -0.596841    1.433445    2.534235
      5          1           0       -1.853370    1.668809   -0.917810
      6          8           0        0.013805   -1.668808   -0.970577
      7          1           0       -0.421010   -1.645576   -1.832878
      8          1           0        0.706314   -2.340037   -1.022777
      9          1           0        2.154138    1.535789   -0.129513
     10          8           0        1.198117   -0.822459    1.731836
     11          1           0       -1.261571    2.131846    2.523954
 ---------------------------------------------------------------------
                    Distance matrix (angstroms):
                    1          2          3          4          5
     1  Pa   0.000000
     2  O    2.167125   0.000000
     3  O    2.128193   3.002672   0.000000
     4  O    2.195818   3.310709   3.142355   0.000000
     5  H    2.883456   3.131786   0.965869   3.681152   0.000000
     6  O    2.550270   3.435442   3.178159   4.720230   3.824764
     7  H    3.211482   3.856046   3.235525   5.346304   3.724803
     8  H    3.202772   3.922592   4.121630   5.346935   4.757504
     9  H    2.844258   0.963941   3.957868   3.830655   4.086469
    10  O    1.879480   3.030559   3.992674   2.992461   4.747485
    11  H    2.852566   3.763742   3.155885   0.964227   3.522835
                    6          7          8          9         10
     6  O    0.000000
     7  H    0.966006   0.000000
     8  H    0.965837   1.552223   0.000000
     9  H    3.944345   4.433275   4.232747   0.000000
    10  O    3.069517   4.000784   3.183207   3.152765   0.000000
    11  H    5.318204   5.827301   6.037351   4.366147   3.924975
                   11
    11  H    0.000000
 Stoichiometry    H5O5Pa
 Framework group  C1[X(H5O5Pa)]
 Deg. of freedom    27
 Full point group                 C1      NOp   1
 Largest Abelian subgroup         C1      NOp   1
 Largest concise Abelian subgroup C1      NOp   1
                         Standard orientation:                         
 ---------------------------------------------------------------------
 Center     Atomic      Atomic             Coordinates (Angstroms)
 Number     Number       Type             X           Y           Z
 ---------------------------------------------------------------------
      1         91           0       -0.067001   -0.055733   -0.104854
      2          8           0        0.001199    0.182382    2.048069
      3          8           0        0.008042    2.062811   -0.292867
      4          8           0       -2.246464   -0.125030   -0.363217
      5          1           0       -0.113420    2.795109    0.325105
      6          8           0        2.470304    0.053830   -0.337147
      7          1           0        3.008792    0.853015   -0.270061
      8          1           0        3.068142   -0.697645   -0.233628
      9          1           0        0.020073   -0.528859    2.698425
     10          8           0        0.132792   -1.924440   -0.126389
     11          1           0       -2.813519    0.653673   -0.405703
 ---------------------------------------------------------------------
 Rotational constants (GHZ):           2.2841036           1.7492608           1.4661962
 Leave Link  202 at Thu Jun 22 10:30:12 2023, MaxMem=  2147483648 cpu:               0.1 elap:               0.1
 (Enter /home/pcmt/gaussian/g16.C.01/g16/l301.exe)
 General basis read from cards:  (5D, 7F)
 Centers:       1
 S 3 1.00
     Exponent=  1.2047376000D+04 Coefficients=  3.4500000000D-04
     Exponent=  1.8116841000D+03 Coefficients=  2.7420000000D-03
     Exponent=  3.4770104000D+02 Coefficients=  1.0053000000D-02
 S 1 1.00
     Exponent=  9.8678010000D+01 Coefficients=  1.0000000000D+00
 S 3 1.00
     Exponent=  5.7507376000D+01 Coefficients=  5.1528000000D-02
     Exponent=  3.3502601000D+01 Coefficients= -2.3692400000D-01
     Exponent=  1.9554451000D+01 Coefficients=  7.1904800000D-01
 S 1 1.00
     Exponent=  9.7164210000D+00 Coefficients=  1.0000000000D+00
 S 1 1.00
     Exponent=  2.6920960000D+00 Coefficients=  1.0000000000D+00
 S 1 1.00
     Exponent=  1.4538470000D+00 Coefficients=  1.0000000000D+00
 S 1 1.00
     Exponent=  5.7435200000D-01 Coefficients=  1.0000000000D+00
 S 1 1.00
     Exponent=  2.6346800000D-01 Coefficients=  1.0000000000D+00
 S 1 1.00
     Exponent=  5.6557000000D-02 Coefficients=  1.0000000000D+00
 S 1 1.00
     Exponent=  2.3169000000D-02 Coefficients=  1.0000000000D+00
 P 5 1.00
     Exponent=  2.9033676000D+03 Coefficients=  3.5000000000D-05
     Exponent=  6.4486356000D+02 Coefficients=  2.0500000000D-04
     Exponent=  2.2025896000D+02 Coefficients=  1.2510000000D-03
     Exponent=  8.0276401000D+01 Coefficients=  2.4570000000D-03
     Exponent=  2.4080211000D+01 Coefficients=  1.1190000000D-02
 P 1 1.00
     Exponent=  1.4077580000D+01 Coefficients=  1.0000000000D+00
 P 1 1.00
     Exponent=  8.2658460000D+00 Coefficients=  1.0000000000D+00
 P 1 1.00
     Exponent=  3.5948000000D+00 Coefficients=  1.0000000000D+00
 P 1 1.00
     Exponent=  1.7531110000D+00 Coefficients=  1.0000000000D+00
 P 1 1.00
     Exponent=  6.5776700000D-01 Coefficients=  1.0000000000D+00
 P 1 1.00
     Exponent=  2.8463900000D-01 Coefficients=  1.0000000000D+00
 P 1 1.00
     Exponent=  1.0054300000D-01 Coefficients=  1.0000000000D+00
 P 1 1.00
     Exponent=  3.0190000000D-02 Coefficients=  1.0000000000D+00
 D 6 1.00
     Exponent=  4.4814991000D+02 Coefficients=  2.6000000000D-05
     Exponent=  1.5446145000D+02 Coefficients=  2.2800000000D-04
     Exponent=  6.0925377000D+01 Coefficients=  9.0400000000D-04
     Exponent=  1.7032091000D+01 Coefficients=  2.5647000000D-02
     Exponent=  1.0018877000D+01 Coefficients= -1.0575100000D-01
     Exponent=  3.4091930000D+00 Coefficients=  4.4743200000D-01
 D 1 1.00
     Exponent=  1.6702130000D+00 Coefficients=  1.0000000000D+00
 D 1 1.00
     Exponent=  7.4109500000D-01 Coefficients=  1.0000000000D+00
 D 1 1.00
     Exponent=  2.6139300000D-01 Coefficients=  1.0000000000D+00
 D 1 1.00
     Exponent=  8.2811000000D-02 Coefficients=  1.0000000000D+00
 F 5 1.00
     Exponent=  8.7991327000D+01 Coefficients=  2.2600000000D-04
     Exponent=  2.8340195000D+01 Coefficients=  2.3230000000D-03
     Exponent=  1.2440994000D+01 Coefficients=  4.5850000000D-03
     Exponent=  3.9572960000D+00 Coefficients=  1.5696100000D-01
     Exponent=  1.8759440000D+00 Coefficients=  3.4497700000D-01
 F 1 1.00
     Exponent=  8.2758900000D-01 Coefficients=  1.0000000000D+00
 F 1 1.00
     Exponent=  3.3274800000D-01 Coefficients=  1.0000000000D+00
 F 1 1.00
     Exponent=  1.1468500000D-01 Coefficients=  1.0000000000D+00
 G 1 1.00
     Exponent=  3.5000000000D-01 Coefficients=  1.0000000000D+00
 ****
 Centers:       2      3      4      6     10
 Def2TZVP
 ****
 Centers:       5      7      8      9     11
 Def2TZVP
 ****
 ======================================================================================================
                                       Pseudopotential Parameters
 ======================================================================================================
  Center     Atomic      Valence      Angular      Power
  Number     Number     Electrons     Momentum     of R      Exponent        Coefficient   SO-Coeffient
 ======================================================================================================
    1         91           31
                                      H and up 
                                                     2        1.0000000        0.00000000    0.00000000
                                      S - H
                                                     2       15.2691737      475.47573283    0.00000000
                                      P - H
                                                     2        9.9577370      207.66485962    0.00000000
                                      D - H
                                                     2        8.9431413      156.67411988    0.00000000
                                      F - H
                                                     2        7.0104666       67.98223685    0.00000000
                                      G - H
                                                     2       12.2010560      -57.63059989    0.00000000
    2          8
                                   No pseudopotential on this center.
    3          8
                                   No pseudopotential on this center.
    4          8
                                   No pseudopotential on this center.
    5          1
                                   No pseudopotential on this center.
    6          8
                                   No pseudopotential on this center.
    7          1
                                   No pseudopotential on this center.
    8          1
                                   No pseudopotential on this center.
    9          1
                                   No pseudopotential on this center.
   10          8
                                   No pseudopotential on this center.
   11          1
                                   No pseudopotential on this center.
 ======================================================================================================
 Ernie: Thresh=  0.10000D-02 Tol=  0.10000D-05 Strict=F.
 AO basis set in the form of general basis input (Overlap normalization):
      1 0
 S   3 1.00       0.000000000000
      0.1204737600D+05  0.2857094961D-01
      0.1811684100D+04  0.2270769386D+00
      0.3477010400D+03  0.8325326273D+00
 S   3 1.00       0.000000000000
      0.5750737600D+02  0.9569327984D-01
      0.3350260100D+02 -0.4399944619D+00
      0.1955445100D+02  0.1335352847D+01
 S   1 1.00       0.000000000000
      0.9867801000D+02  0.1000000000D+01
 S   1 1.00       0.000000000000
      0.9716421000D+01  0.1000000000D+01
 S   1 1.00       0.000000000000
      0.2692096000D+01  0.1000000000D+01
 S   1 1.00       0.000000000000
      0.1453847000D+01  0.1000000000D+01
 S   1 1.00       0.000000000000
      0.5743520000D+00  0.1000000000D+01
 S   1 1.00       0.000000000000
      0.2634680000D+00  0.1000000000D+01
 S   1 1.00       0.000000000000
      0.5655700000D-01  0.1000000000D+01
 S   1 1.00       0.000000000000
      0.2316900000D-01  0.1000000000D+01
 P   5 1.00       0.000000000000
      0.2903367600D+04  0.2594222647D-02
      0.6448635600D+03  0.1519473264D-01
      0.2202589600D+03  0.9272492945D-01
      0.8027640100D+02  0.1821144298D+00
      0.2408021100D+02  0.8294100404D+00
 P   1 1.00       0.000000000000
      0.1407758000D+02  0.1000000000D+01
 P   1 1.00       0.000000000000
      0.8265846000D+01  0.1000000000D+01
 P   1 1.00       0.000000000000
      0.3594800000D+01  0.1000000000D+01
 P   1 1.00       0.000000000000
      0.1753111000D+01  0.1000000000D+01
 P   1 1.00       0.000000000000
      0.6577670000D+00  0.1000000000D+01
 P   1 1.00       0.000000000000
      0.2846390000D+00  0.1000000000D+01
 P   1 1.00       0.000000000000
      0.1005430000D+00  0.1000000000D+01
 P   1 1.00       0.000000000000
      0.3019000000D-01  0.1000000000D+01
 D   6 1.00       0.000000000000
      0.4481499100D+03  0.6556927566D-04
      0.1544614500D+03  0.5749921096D-03
      0.6092537700D+02  0.2279793277D-02
      0.1703209100D+02  0.6467904664D-01
      0.1001887700D+02 -0.2666929411D+00
      0.3409193000D+01  0.1128376621D+01
 D   1 1.00       0.000000000000
      0.1670213000D+01  0.1000000000D+01
 D   1 1.00       0.000000000000
      0.7410950000D+00  0.1000000000D+01
 D   1 1.00       0.000000000000
      0.2613930000D+00  0.1000000000D+01
 D   1 1.00       0.000000000000
      0.8281100000D-01  0.1000000000D+01
 F   5 1.00       0.000000000000
      0.8799132700D+02  0.4766318191D-03
      0.2834019500D+02  0.4899184583D-02
      0.1244099400D+02  0.9669720755D-02
      0.3957296000D+01  0.3310292343D+00
      0.1875944000D+01  0.7275531640D+00
 F   1 1.00       0.000000000000
      0.8275890000D+00  0.1000000000D+01
 F   1 1.00       0.000000000000
      0.3327480000D+00  0.1000000000D+01
 F   1 1.00       0.000000000000
      0.1146850000D+00  0.1000000000D+01
 G   1 1.00       0.000000000000
      0.3500000000D+00  0.1000000000D+01
 ****
      2 0
 S   6 1.00       0.000000000000
      0.2703238263D+05  0.5722733521D-03
      0.4052387139D+04  0.4435323349D-02
      0.9223272271D+03  0.2302010771D-01
      0.2612407099D+03  0.9282249067D-01
      0.8535464135D+02  0.2937850001D+00
      0.3103503524D+02  0.6740160450D+00
 S   2 1.00       0.000000000000
      0.1226086073D+02  0.6383993703D+00
      0.4998707601D+01  0.3953458713D+00
 S   1 1.00       0.000000000000
      0.1170310816D+01  0.1000000000D+01
 S   1 1.00       0.000000000000
      0.4647474099D+00  0.1000000000D+01
 S   1 1.00       0.000000000000
      0.1850453636D+00  0.1000000000D+01
 P   4 1.00       0.000000000000
      0.6327495480D+02  0.1201833222D-01
      0.1462704938D+02  0.8300542179D-01
      0.4450122346D+01  0.3199174393D+00
      0.1527579965D+01  0.7071554292D+00
 P   1 1.00       0.000000000000
      0.5293511794D+00  0.1000000000D+01
 P   1 1.00       0.000000000000
      0.1747842127D+00  0.1000000000D+01
 D   1 1.00       0.000000000000
      0.2314000000D+01  0.1000000000D+01
 D   1 1.00       0.000000000000
      0.6450000000D+00  0.1000000000D+01
 F   1 1.00       0.000000000000
      0.1428000000D+01  0.1000000000D+01
 ****
      3 0
 S   6 1.00       0.000000000000
      0.2703238263D+05  0.5722733521D-03
      0.4052387139D+04  0.4435323349D-02
      0.9223272271D+03  0.2302010771D-01
      0.2612407099D+03  0.9282249067D-01
      0.8535464135D+02  0.2937850001D+00
      0.3103503524D+02  0.6740160450D+00
 S   2 1.00       0.000000000000
      0.1226086073D+02  0.6383993703D+00
      0.4998707601D+01  0.3953458713D+00
 S   1 1.00       0.000000000000
      0.1170310816D+01  0.1000000000D+01
 S   1 1.00       0.000000000000
      0.4647474099D+00  0.1000000000D+01
 S   1 1.00       0.000000000000
      0.1850453636D+00  0.1000000000D+01
 P   4 1.00       0.000000000000
      0.6327495480D+02  0.1201833222D-01
      0.1462704938D+02  0.8300542179D-01
      0.4450122346D+01  0.3199174393D+00
      0.1527579965D+01  0.7071554292D+00
 P   1 1.00       0.000000000000
      0.5293511794D+00  0.1000000000D+01
 P   1 1.00       0.000000000000
      0.1747842127D+00  0.1000000000D+01
 D   1 1.00       0.000000000000
      0.2314000000D+01  0.1000000000D+01
 D   1 1.00       0.000000000000
      0.6450000000D+00  0.1000000000D+01
 F   1 1.00       0.000000000000
      0.1428000000D+01  0.1000000000D+01
 ****
      4 0
 S   6 1.00       0.000000000000
      0.2703238263D+05  0.5722733521D-03
      0.4052387139D+04  0.4435323349D-02
      0.9223272271D+03  0.2302010771D-01
      0.2612407099D+03  0.9282249067D-01
      0.8535464135D+02  0.2937850001D+00
      0.3103503524D+02  0.6740160450D+00
 S   2 1.00       0.000000000000
      0.1226086073D+02  0.6383993703D+00
      0.4998707601D+01  0.3953458713D+00
 S   1 1.00       0.000000000000
      0.1170310816D+01  0.1000000000D+01
 S   1 1.00       0.000000000000
      0.4647474099D+00  0.1000000000D+01
 S   1 1.00       0.000000000000
      0.1850453636D+00  0.1000000000D+01
 P   4 1.00       0.000000000000
      0.6327495480D+02  0.1201833222D-01
      0.1462704938D+02  0.8300542179D-01
      0.4450122346D+01  0.3199174393D+00
      0.1527579965D+01  0.7071554292D+00
 P   1 1.00       0.000000000000
      0.5293511794D+00  0.1000000000D+01
 P   1 1.00       0.000000000000
      0.1747842127D+00  0.1000000000D+01
 D   1 1.00       0.000000000000
      0.2314000000D+01  0.1000000000D+01
 D   1 1.00       0.000000000000
      0.6450000000D+00  0.1000000000D+01
 F   1 1.00       0.000000000000
      0.1428000000D+01  0.1000000000D+01
 ****
      5 0
 S   3 1.00       0.000000000000
      0.3406134100D+02  0.2543930721D-01
      0.5123574600D+01  0.1900859489D+00
      0.1164662600D+01  0.8524411301D+00
 S   1 1.00       0.000000000000
      0.3272304100D+00  0.1000000000D+01
 S   1 1.00       0.000000000000
      0.1030724100D+00  0.1000000000D+01
 P   1 1.00       0.000000000000
      0.8000000000D+00  0.1000000000D+01
 ****
      6 0
 S   6 1.00       0.000000000000
      0.2703238263D+05  0.5722733521D-03
      0.4052387139D+04  0.4435323349D-02
      0.9223272271D+03  0.2302010771D-01
      0.2612407099D+03  0.9282249067D-01
      0.8535464135D+02  0.2937850001D+00
      0.3103503524D+02  0.6740160450D+00
 S   2 1.00       0.000000000000
      0.1226086073D+02  0.6383993703D+00
      0.4998707601D+01  0.3953458713D+00
 S   1 1.00       0.000000000000
      0.1170310816D+01  0.1000000000D+01
 S   1 1.00       0.000000000000
      0.4647474099D+00  0.1000000000D+01
 S   1 1.00       0.000000000000
      0.1850453636D+00  0.1000000000D+01
 P   4 1.00       0.000000000000
      0.6327495480D+02  0.1201833222D-01
      0.1462704938D+02  0.8300542179D-01
      0.4450122346D+01  0.3199174393D+00
      0.1527579965D+01  0.7071554292D+00
 P   1 1.00       0.000000000000
      0.5293511794D+00  0.1000000000D+01
 P   1 1.00       0.000000000000
      0.1747842127D+00  0.1000000000D+01
 D   1 1.00       0.000000000000
      0.2314000000D+01  0.1000000000D+01
 D   1 1.00       0.000000000000
      0.6450000000D+00  0.1000000000D+01
 F   1 1.00       0.000000000000
      0.1428000000D+01  0.1000000000D+01
 ****
      7 0
 S   3 1.00       0.000000000000
      0.3406134100D+02  0.2543930721D-01
      0.5123574600D+01  0.1900859489D+00
      0.1164662600D+01  0.8524411301D+00
 S   1 1.00       0.000000000000
      0.3272304100D+00  0.1000000000D+01
 S   1 1.00       0.000000000000
      0.1030724100D+00  0.1000000000D+01
 P   1 1.00       0.000000000000
      0.8000000000D+00  0.1000000000D+01
 ****
      8 0
 S   3 1.00       0.000000000000
      0.3406134100D+02  0.2543930721D-01
      0.5123574600D+01  0.1900859489D+00
      0.1164662600D+01  0.8524411301D+00
 S   1 1.00       0.000000000000
      0.3272304100D+00  0.1000000000D+01
 S   1 1.00       0.000000000000
      0.1030724100D+00  0.1000000000D+01
 P   1 1.00       0.000000000000
      0.8000000000D+00  0.1000000000D+01
 ****
      9 0
 S   3 1.00       0.000000000000
      0.3406134100D+02  0.2543930721D-01
      0.5123574600D+01  0.1900859489D+00
      0.1164662600D+01  0.8524411301D+00
 S   1 1.00       0.000000000000
      0.3272304100D+00  0.1000000000D+01
 S   1 1.00       0.000000000000
      0.1030724100D+00  0.1000000000D+01
 P   1 1.00       0.000000000000
      0.8000000000D+00  0.1000000000D+01
 ****
     10 0
 S   6 1.00       0.000000000000
      0.2703238263D+05  0.5722733521D-03
      0.4052387139D+04  0.4435323349D-02
      0.9223272271D+03  0.2302010771D-01
      0.2612407099D+03  0.9282249067D-01
      0.8535464135D+02  0.2937850001D+00
      0.3103503524D+02  0.6740160450D+00
 S   2 1.00       0.000000000000
      0.1226086073D+02  0.6383993703D+00
      0.4998707601D+01  0.3953458713D+00
 S   1 1.00       0.000000000000
      0.1170310816D+01  0.1000000000D+01
 S   1 1.00       0.000000000000
      0.4647474099D+00  0.1000000000D+01
 S   1 1.00       0.000000000000
      0.1850453636D+00  0.1000000000D+01
 P   4 1.00       0.000000000000
      0.6327495480D+02  0.1201833222D-01
      0.1462704938D+02  0.8300542179D-01
      0.4450122346D+01  0.3199174393D+00
      0.1527579965D+01  0.7071554292D+00
 P   1 1.00       0.000000000000
      0.5293511794D+00  0.1000000000D+01
 P   1 1.00       0.000000000000
      0.1747842127D+00  0.1000000000D+01
 D   1 1.00       0.000000000000
      0.2314000000D+01  0.1000000000D+01
 D   1 1.00       0.000000000000
      0.6450000000D+00  0.1000000000D+01
 F   1 1.00       0.000000000000
      0.1428000000D+01  0.1000000000D+01
 ****
     11 0
 S   3 1.00       0.000000000000
      0.3406134100D+02  0.2543930721D-01
      0.5123574600D+01  0.1900859489D+00
      0.1164662600D+01  0.8524411301D+00
 S   1 1.00       0.000000000000
      0.3272304100D+00  0.1000000000D+01
 S   1 1.00       0.000000000000
      0.1030724100D+00  0.1000000000D+01
 P   1 1.00       0.000000000000
      0.8000000000D+00  0.1000000000D+01
 ****

 AO basis set (Overlap normalization):
 Atom Pa1      Shell     1 S   3     bf    1 -     1         -0.126612651162         -0.105320286714         -0.198145698032
      0.1204737600D+05  0.2857094961D-01
      0.1811684100D+04  0.2270769386D+00
      0.3477010400D+03  0.8325326273D+00
 Atom Pa1      Shell     2 S   3     bf    2 -     2         -0.126612651162         -0.105320286714         -0.198145698032
      0.5750737600D+02  0.9569327984D-01
      0.3350260100D+02 -0.4399944619D+00
      0.1955445100D+02  0.1335352847D+01
 Atom Pa1      Shell     3 S   1     bf    3 -     3         -0.126612651162         -0.105320286714         -0.198145698032
      0.9867801000D+02  0.1000000000D+01
 Atom Pa1      Shell     4 S   1     bf    4 -     4         -0.126612651162         -0.105320286714         -0.198145698032
      0.9716421000D+01  0.1000000000D+01
 Atom Pa1      Shell     5 S   1     bf    5 -     5         -0.126612651162         -0.105320286714         -0.198145698032
      0.2692096000D+01  0.1000000000D+01
 Atom Pa1      Shell     6 S   1     bf    6 -     6         -0.126612651162         -0.105320286714         -0.198145698032
      0.1453847000D+01  0.1000000000D+01
 Atom Pa1      Shell     7 S   1     bf    7 -     7         -0.126612651162         -0.105320286714         -0.198145698032
      0.5743520000D+00  0.1000000000D+01
 Atom Pa1      Shell     8 S   1     bf    8 -     8         -0.126612651162         -0.105320286714         -0.198145698032
      0.2634680000D+00  0.1000000000D+01
 Atom Pa1      Shell     9 S   1     bf    9 -     9         -0.126612651162         -0.105320286714         -0.198145698032
      0.5655700000D-01  0.1000000000D+01
 Atom Pa1      Shell    10 S   1     bf   10 -    10         -0.126612651162         -0.105320286714         -0.198145698032
      0.2316900000D-01  0.1000000000D+01
 Atom Pa1      Shell    11 P   5     bf   11 -    13         -0.126612651162         -0.105320286714         -0.198145698032
      0.2903367600D+04  0.2594222647D-02
      0.6448635600D+03  0.1519473264D-01
      0.2202589600D+03  0.9272492945D-01
      0.8027640100D+02  0.1821144298D+00
      0.2408021100D+02  0.8294100404D+00
 Atom Pa1      Shell    12 P   1     bf   14 -    16         -0.126612651162         -0.105320286714         -0.198145698032
      0.1407758000D+02  0.1000000000D+01
 Atom Pa1      Shell    13 P   1     bf   17 -    19         -0.126612651162         -0.105320286714         -0.198145698032
      0.8265846000D+01  0.1000000000D+01
 Atom Pa1      Shell    14 P   1     bf   20 -    22         -0.126612651162         -0.105320286714         -0.198145698032
      0.3594800000D+01  0.1000000000D+01
 Atom Pa1      Shell    15 P   1     bf   23 -    25         -0.126612651162         -0.105320286714         -0.198145698032
      0.1753111000D+01  0.1000000000D+01
 Atom Pa1      Shell    16 P   1     bf   26 -    28         -0.126612651162         -0.105320286714         -0.198145698032
      0.6577670000D+00  0.1000000000D+01
 Atom Pa1      Shell    17 P   1     bf   29 -    31         -0.126612651162         -0.105320286714         -0.198145698032
      0.2846390000D+00  0.1000000000D+01
 Atom Pa1      Shell    18 P   1     bf   32 -    34         -0.126612651162         -0.105320286714         -0.198145698032
      0.1005430000D+00  0.1000000000D+01
 Atom Pa1      Shell    19 P   1     bf   35 -    37         -0.126612651162         -0.105320286714         -0.198145698032
      0.3019000000D-01  0.1000000000D+01
 Atom Pa1      Shell    20 D   6     bf   38 -    42         -0.126612651162         -0.105320286714         -0.198145698032
      0.4481499100D+03  0.6556927566D-04
      0.1544614500D+03  0.5749921096D-03
      0.6092537700D+02  0.2279793277D-02
      0.1703209100D+02  0.6467904664D-01
      0.1001887700D+02 -0.2666929411D+00
      0.3409193000D+01  0.1128376621D+01
 Atom Pa1      Shell    21 D   1     bf   43 -    47         -0.126612651162         -0.105320286714         -0.198145698032
      0.1670213000D+01  0.1000000000D+01
 Atom Pa1      Shell    22 D   1     bf   48 -    52         -0.126612651162         -0.105320286714         -0.198145698032
      0.7410950000D+00  0.1000000000D+01
 Atom Pa1      Shell    23 D   1     bf   53 -    57         -0.126612651162         -0.105320286714         -0.198145698032
      0.2613930000D+00  0.1000000000D+01
 Atom Pa1      Shell    24 D   1     bf   58 -    62         -0.126612651162         -0.105320286714         -0.198145698032
      0.8281100000D-01  0.1000000000D+01
 Atom Pa1      Shell    25 F   5     bf   63 -    69         -0.126612651162         -0.105320286714         -0.198145698032
      0.8799132700D+02  0.4766318191D-03
      0.2834019500D+02  0.4899184583D-02
      0.1244099400D+02  0.9669720755D-02
      0.3957296000D+01  0.3310292343D+00
      0.1875944000D+01  0.7275531640D+00
 Atom Pa1      Shell    26 F   1     bf   70 -    76         -0.126612651162         -0.105320286714         -0.198145698032
      0.8275890000D+00  0.1000000000D+01
 Atom Pa1      Shell    27 F   1     bf   77 -    83         -0.126612651162         -0.105320286714         -0.198145698032
      0.3327480000D+00  0.1000000000D+01
 Atom Pa1      Shell    28 F   1     bf   84 -    90         -0.126612651162         -0.105320286714         -0.198145698032
      0.1146850000D+00  0.1000000000D+01
 Atom Pa1      Shell    29 G   1     bf   91 -    99         -0.126612651162         -0.105320286714         -0.198145698032
      0.3500000000D+00  0.1000000000D+01
 Atom O2       Shell    30 S   6     bf  100 -   100          0.002265993719          0.344651997627          3.870290005144
      0.2703238263D+05  0.5722733521D-03
      0.4052387139D+04  0.4435323349D-02
      0.9223272271D+03  0.2302010771D-01
      0.2612407099D+03  0.9282249067D-01
      0.8535464135D+02  0.2937850001D+00
      0.3103503524D+02  0.6740160450D+00
 Atom O2       Shell    31 S   2     bf  101 -   101          0.002265993719          0.344651997627          3.870290005144
      0.1226086073D+02  0.6383993703D+00
      0.4998707601D+01  0.3953458713D+00
 Atom O2       Shell    32 S   1     bf  102 -   102          0.002265993719          0.344651997627          3.870290005144
      0.1170310816D+01  0.1000000000D+01
 Atom O2       Shell    33 S   1     bf  103 -   103          0.002265993719          0.344651997627          3.870290005144
      0.4647474099D+00  0.1000000000D+01
 Atom O2       Shell    34 S   1     bf  104 -   104          0.002265993719          0.344651997627          3.870290005144
      0.1850453636D+00  0.1000000000D+01
 Atom O2       Shell    35 P   4     bf  105 -   107          0.002265993719          0.344651997627          3.870290005144
      0.6327495480D+02  0.1201833222D-01
      0.1462704938D+02  0.8300542179D-01
      0.4450122346D+01  0.3199174393D+00
      0.1527579965D+01  0.7071554292D+00
 Atom O2       Shell    36 P   1     bf  108 -   110          0.002265993719          0.344651997627          3.870290005144
      0.5293511794D+00  0.1000000000D+01
 Atom O2       Shell    37 P   1     bf  111 -   113          0.002265993719          0.344651997627          3.870290005144
      0.1747842127D+00  0.1000000000D+01
 Atom O2       Shell    38 D   1     bf  114 -   118          0.002265993719          0.344651997627          3.870290005144
      0.2314000000D+01  0.1000000000D+01
 Atom O2       Shell    39 D   1     bf  119 -   123          0.002265993719          0.344651997627          3.870290005144
      0.6450000000D+00  0.1000000000D+01
 Atom O2       Shell    40 F   1     bf  124 -   130          0.002265993719          0.344651997627          3.870290005144
      0.1428000000D+01  0.1000000000D+01
 Atom O3       Shell    41 S   6     bf  131 -   131          0.015197704618          3.898147086101         -0.553437642662
      0.2703238263D+05  0.5722733521D-03
      0.4052387139D+04  0.4435323349D-02
      0.9223272271D+03  0.2302010771D-01
      0.2612407099D+03  0.9282249067D-01
      0.8535464135D+02  0.2937850001D+00
      0.3103503524D+02  0.6740160450D+00
 Atom O3       Shell    42 S   2     bf  132 -   132          0.015197704618          3.898147086101         -0.553437642662
      0.1226086073D+02  0.6383993703D+00
      0.4998707601D+01  0.3953458713D+00
 Atom O3       Shell    43 S   1     bf  133 -   133          0.015197704618          3.898147086101         -0.553437642662
      0.1170310816D+01  0.1000000000D+01
 Atom O3       Shell    44 S   1     bf  134 -   134          0.015197704618          3.898147086101         -0.553437642662
      0.4647474099D+00  0.1000000000D+01
 Atom O3       Shell    45 S   1     bf  135 -   135          0.015197704618          3.898147086101         -0.553437642662
      0.1850453636D+00  0.1000000000D+01
 Atom O3       Shell    46 P   4     bf  136 -   138          0.015197704618          3.898147086101         -0.553437642662
      0.6327495480D+02  0.1201833222D-01
      0.1462704938D+02  0.8300542179D-01
      0.4450122346D+01  0.3199174393D+00
      0.1527579965D+01  0.7071554292D+00
 Atom O3       Shell    47 P   1     bf  139 -   141          0.015197704618          3.898147086101         -0.553437642662
      0.5293511794D+00  0.1000000000D+01
 Atom O3       Shell    48 P   1     bf  142 -   144          0.015197704618          3.898147086101         -0.553437642662
      0.1747842127D+00  0.1000000000D+01
 Atom O3       Shell    49 D   1     bf  145 -   149          0.015197704618          3.898147086101         -0.553437642662
      0.2314000000D+01  0.1000000000D+01
 Atom O3       Shell    50 D   1     bf  150 -   154          0.015197704618          3.898147086101         -0.553437642662
      0.6450000000D+00  0.1000000000D+01
 Atom O3       Shell    51 F   1     bf  155 -   161          0.015197704618          3.898147086101         -0.553437642662
      0.1428000000D+01  0.1000000000D+01
 Atom O4       Shell    52 S   6     bf  162 -   162         -4.245202260068         -0.236272539699         -0.686380233851
      0.2703238263D+05  0.5722733521D-03
      0.4052387139D+04  0.4435323349D-02
      0.9223272271D+03  0.2302010771D-01
      0.2612407099D+03  0.9282249067D-01
      0.8535464135D+02  0.2937850001D+00
      0.3103503524D+02  0.6740160450D+00
 Atom O4       Shell    53 S   2     bf  163 -   163         -4.245202260068         -0.236272539699         -0.686380233851
      0.1226086073D+02  0.6383993703D+00
      0.4998707601D+01  0.3953458713D+00
 Atom O4       Shell    54 S   1     bf  164 -   164         -4.245202260068         -0.236272539699         -0.686380233851
      0.1170310816D+01  0.1000000000D+01
 Atom O4       Shell    55 S   1     bf  165 -   165         -4.245202260068         -0.236272539699         -0.686380233851
      0.4647474099D+00  0.1000000000D+01
 Atom O4       Shell    56 S   1     bf  166 -   166         -4.245202260068         -0.236272539699         -0.686380233851
      0.1850453636D+00  0.1000000000D+01
 Atom O4       Shell    57 P   4     bf  167 -   169         -4.245202260068         -0.236272539699         -0.686380233851
      0.6327495480D+02  0.1201833222D-01
      0.1462704938D+02  0.8300542179D-01
      0.4450122346D+01  0.3199174393D+00
      0.1527579965D+01  0.7071554292D+00
 Atom O4       Shell    58 P   1     bf  170 -   172         -4.245202260068         -0.236272539699         -0.686380233851
      0.5293511794D+00  0.1000000000D+01
 Atom O4       Shell    59 P   1     bf  173 -   175         -4.245202260068         -0.236272539699         -0.686380233851
      0.1747842127D+00  0.1000000000D+01
 Atom O4       Shell    60 D   1     bf  176 -   180         -4.245202260068         -0.236272539699         -0.686380233851
      0.2314000000D+01  0.1000000000D+01
 Atom O4       Shell    61 D   1     bf  181 -   185         -4.245202260068         -0.236272539699         -0.686380233851
      0.6450000000D+00  0.1000000000D+01
 Atom O4       Shell    62 F   1     bf  186 -   192         -4.245202260068         -0.236272539699         -0.686380233851
      0.1428000000D+01  0.1000000000D+01
 Atom H5       Shell    63 S   3     bf  193 -   193         -0.214332557988          5.281990413340          0.614359186794
      0.3406134100D+02  0.2543930721D-01
      0.5123574600D+01  0.1900859489D+00
      0.1164662600D+01  0.8524411301D+00
 Atom H5       Shell    64 S   1     bf  194 -   194         -0.214332557988          5.281990413340          0.614359186794
      0.3272304100D+00  0.1000000000D+01
 Atom H5       Shell    65 S   1     bf  195 -   195         -0.214332557988          5.281990413340          0.614359186794
      0.1030724100D+00  0.1000000000D+01
 Atom H5       Shell    66 P   1     bf  196 -   198         -0.214332557988          5.281990413340          0.614359186794
      0.8000000000D+00  0.1000000000D+01
 Atom O6       Shell    67 S   6     bf  199 -   199          4.668197457223          0.101723487317         -0.637116354527
      0.2703238263D+05  0.5722733521D-03
      0.4052387139D+04  0.4435323349D-02
      0.9223272271D+03  0.2302010771D-01
      0.2612407099D+03  0.9282249067D-01
      0.8535464135D+02  0.2937850001D+00
      0.3103503524D+02  0.6740160450D+00
 Atom O6       Shell    68 S   2     bf  200 -   200          4.668197457223          0.101723487317         -0.637116354527
      0.1226086073D+02  0.6383993703D+00
      0.4998707601D+01  0.3953458713D+00
 Atom O6       Shell    69 S   1     bf  201 -   201          4.668197457223          0.101723487317         -0.637116354527
      0.1170310816D+01  0.1000000000D+01
 Atom O6       Shell    70 S   1     bf  202 -   202          4.668197457223          0.101723487317         -0.637116354527
      0.4647474099D+00  0.1000000000D+01
 Atom O6       Shell    71 S   1     bf  203 -   203          4.668197457223          0.101723487317         -0.637116354527
      0.1850453636D+00  0.1000000000D+01
 Atom O6       Shell    72 P   4     bf  204 -   206          4.668197457223          0.101723487317         -0.637116354527
      0.6327495480D+02  0.1201833222D-01
      0.1462704938D+02  0.8300542179D-01
      0.4450122346D+01  0.3199174393D+00
      0.1527579965D+01  0.7071554292D+00
 Atom O6       Shell    73 P   1     bf  207 -   209          4.668197457223          0.101723487317         -0.637116354527
      0.5293511794D+00  0.1000000000D+01
 Atom O6       Shell    74 P   1     bf  210 -   212          4.668197457223          0.101723487317         -0.637116354527
      0.1747842127D+00  0.1000000000D+01
 Atom O6       Shell    75 D   1     bf  213 -   217          4.668197457223          0.101723487317         -0.637116354527
      0.2314000000D+01  0.1000000000D+01
 Atom O6       Shell    76 D   1     bf  218 -   222          4.668197457223          0.101723487317         -0.637116354527
      0.6450000000D+00  0.1000000000D+01
 Atom O6       Shell    77 F   1     bf  223 -   229          4.668197457223          0.101723487317         -0.637116354527
      0.1428000000D+01  0.1000000000D+01
 Atom H7       Shell    78 S   3     bf  230 -   230          5.685792166061          1.611964916498         -0.510341053415
      0.3406134100D+02  0.2543930721D-01
      0.5123574600D+01  0.1900859489D+00
      0.1164662600D+01  0.8524411301D+00
 Atom H7       Shell    79 S   1     bf  231 -   231          5.685792166061          1.611964916498         -0.510341053415
      0.3272304100D+00  0.1000000000D+01
 Atom H7       Shell    80 S   1     bf  232 -   232          5.685792166061          1.611964916498         -0.510341053415
      0.1030724100D+00  0.1000000000D+01
 Atom H7       Shell    81 P   1     bf  233 -   235          5.685792166061          1.611964916498         -0.510341053415
      0.8000000000D+00  0.1000000000D+01
 Atom H8       Shell    82 S   3     bf  236 -   236          5.797947519096         -1.318357627029         -0.441492050342
      0.3406134100D+02  0.2543930721D-01
      0.5123574600D+01  0.1900859489D+00
      0.1164662600D+01  0.8524411301D+00
 Atom H8       Shell    83 S   1     bf  237 -   237          5.797947519096         -1.318357627029         -0.441492050342
      0.3272304100D+00  0.1000000000D+01
 Atom H8       Shell    84 S   1     bf  238 -   238          5.797947519096         -1.318357627029         -0.441492050342
      0.1030724100D+00  0.1000000000D+01
 Atom H8       Shell    85 P   1     bf  239 -   241          5.797947519096         -1.318357627029         -0.441492050342
      0.8000000000D+00  0.1000000000D+01
 Atom H9       Shell    86 S   3     bf  242 -   242          0.037932309078         -0.999398123435          5.099284266893
      0.3406134100D+02  0.2543930721D-01
      0.5123574600D+01  0.1900859489D+00
      0.1164662600D+01  0.8524411301D+00
 Atom H9       Shell    87 S   1     bf  243 -   243          0.037932309078         -0.999398123435          5.099284266893
      0.3272304100D+00  0.1000000000D+01
 Atom H9       Shell    88 S   1     bf  244 -   244          0.037932309078         -0.999398123435          5.099284266893
      0.1030724100D+00  0.1000000000D+01
 Atom H9       Shell    89 P   1     bf  245 -   247          0.037932309078         -0.999398123435          5.099284266893
      0.8000000000D+00  0.1000000000D+01
 Atom O10      Shell    90 S   6     bf  248 -   248          0.250940204224         -3.636664523676         -0.238841212559
      0.2703238263D+05  0.5722733521D-03
      0.4052387139D+04  0.4435323349D-02
      0.9223272271D+03  0.2302010771D-01
      0.2612407099D+03  0.9282249067D-01
      0.8535464135D+02  0.2937850001D+00
      0.3103503524D+02  0.6740160450D+00
 Atom O10      Shell    91 S   2     bf  249 -   249          0.250940204224         -3.636664523676         -0.238841212559
      0.1226086073D+02  0.6383993703D+00
      0.4998707601D+01  0.3953458713D+00
 Atom O10      Shell    92 S   1     bf  250 -   250          0.250940204224         -3.636664523676         -0.238841212559
      0.1170310816D+01  0.1000000000D+01
 Atom O10      Shell    93 S   1     bf  251 -   251          0.250940204224         -3.636664523676         -0.238841212559
      0.4647474099D+00  0.1000000000D+01
 Atom O10      Shell    94 S   1     bf  252 -   252          0.250940204224         -3.636664523676         -0.238841212559
      0.1850453636D+00  0.1000000000D+01
 Atom O10      Shell    95 P   4     bf  253 -   255          0.250940204224         -3.636664523676         -0.238841212559
      0.6327495480D+02  0.1201833222D-01
      0.1462704938D+02  0.8300542179D-01
      0.4450122346D+01  0.3199174393D+00
      0.1527579965D+01  0.7071554292D+00
 Atom O10      Shell    96 P   1     bf  256 -   258          0.250940204224         -3.636664523676         -0.238841212559
      0.5293511794D+00  0.1000000000D+01
 Atom O10      Shell    97 P   1     bf  259 -   261          0.250940204224         -3.636664523676         -0.238841212559
      0.1747842127D+00  0.1000000000D+01
 Atom O10      Shell    98 D   1     bf  262 -   266          0.250940204224         -3.636664523676         -0.238841212559
      0.2314000000D+01  0.1000000000D+01
 Atom O10      Shell    99 D   1     bf  267 -   271          0.250940204224         -3.636664523676         -0.238841212559
      0.6450000000D+00  0.1000000000D+01
 Atom O10      Shell   100 F   1     bf  272 -   278          0.250940204224         -3.636664523676         -0.238841212559
      0.1428000000D+01  0.1000000000D+01
 Atom H11      Shell   101 S   3     bf  279 -   279         -5.316780978235          1.235262450229         -0.766668321388
      0.3406134100D+02  0.2543930721D-01
      0.5123574600D+01  0.1900859489D+00
      0.1164662600D+01  0.8524411301D+00
 Atom H11      Shell   102 S   1     bf  280 -   280         -5.316780978235          1.235262450229         -0.766668321388
      0.3272304100D+00  0.1000000000D+01
 Atom H11      Shell   103 S   1     bf  281 -   281         -5.316780978235          1.235262450229         -0.766668321388
      0.1030724100D+00  0.1000000000D+01
 Atom H11      Shell   104 P   1     bf  282 -   284         -5.316780978235          1.235262450229         -0.766668321388
      0.8000000000D+00  0.1000000000D+01
 Effective core potential in the form of general ECP input:
      1 0
 Pa1-ECP   5 60
 H component
  1
  2        1.0000000        0.00000000    0.00000000
 S-H projection
  1
  2       15.2691737      475.47573283    0.00000000
 P-H projection
  1
  2        9.9577370      207.66485962    0.00000000
 D-H projection
  1
  2        8.9431413      156.67411988    0.00000000
 F-H projection
  1
  2        7.0104666       67.98223685    0.00000000
 G-H projection
  1
  2       12.2010560      -57.63059989    0.00000000
 
 There are   332 symmetry adapted cartesian basis functions of A   symmetry.
 There are   284 symmetry adapted basis functions of A   symmetry.
   284 basis functions,   503 primitive gaussians,   332 cartesian basis functions
    38 alpha electrons       38 beta electrons
       nuclear repulsion energy       477.9618201563 Hartrees.
 IExCor=  404 DFT=T Ex=B Corr=P86 ExCW=0 ScaHFX=  0.000000
 ScaDFX=  1.000000  1.000000  1.000000  1.000000 ScalE2=  1.000000  1.000000
 IRadAn=      5 IRanWt=     -1 IRanGd=            0 ICorTp=0 IEmpDi=  4
 NAtoms=   11 NActive=   11 NUniq=   11 SFac= 1.00D+00 NAtFMM=   60 NAOKFM=F Big=F
 Integral buffers will be    131072 words long.
 Raffenetti 2 integral format.
 Two-electron integral symmetry is turned on.
 Leave Link  301 at Thu Jun 22 10:30:12 2023, MaxMem=  2147483648 cpu:               1.0 elap:               0.2
 (Enter /home/pcmt/gaussian/g16.C.01/g16/l302.exe)
 NPDir=0 NMtPBC=     1 NCelOv=     1 NCel=       1 NClECP=     1 NCelD=      1
         NCelK=      1 NCelE2=     1 NClLst=     1 CellRange=     0.0.
 One-electron integrals computed using PRISM.
 One-electron integral symmetry used in STVInt
   1 Symmetry operations used in ECPInt.
 ECPInt:  NShTT=    5460 NPrTT=   15742 LenC2=    5273 LenP2D=   11828.
 LDataN:  DoStor=T MaxTD1= 9 Len=  602
 NBasis=   284 RedAO= T EigKep=  6.76D-04  NBF=   284
 NBsUse=   284 1.00D-06 EigRej= -1.00D+00 NBFU=   284
 Precomputing XC quadrature grid using
 IXCGrd= 4 IRadAn=           5 IRanWt=          -1 IRanGd=           0 AccXCQ= 0.00D+00.
 Defaulting to unpruned grid for atomic number  91.
 Generated NRdTot=       0 NPtTot=           0 NUsed=           0 NTot=          32
 NSgBfM=   328   328   328   328   328 MxSgAt=    11 MxSgA2=    11.
 Leave Link  302 at Thu Jun 22 10:30:13 2023, MaxMem=  2147483648 cpu:               6.2 elap:               0.8
 (Enter /home/pcmt/gaussian/g16.C.01/g16/l303.exe)
 DipDrv:  MaxL=1.
 Leave Link  303 at Thu Jun 22 10:30:13 2023, MaxMem=  2147483648 cpu:               0.4 elap:               0.1
 (Enter /home/pcmt/gaussian/g16.C.01/g16/l401.exe)
 ExpMin= 2.32D-02 ExpMax= 2.70D+04 ExpMxC= 1.20D+04 IAcc=3 IRadAn=         5 AccDes= 0.00D+00
 Harris functional with IExCor=  404 and IRadAn=       5 diagonalized for initial guess.
 HarFok:  IExCor=  404 AccDes= 0.00D+00 IRadAn=         5 IDoV= 1 UseB2=F ITyADJ=14
 ICtDFT=  3500011 ScaDFX=  1.000000  1.000000  1.000000  1.000000
 Defaulting to unpruned grid for atomic number  91.
 FoFCou: FMM=F IPFlag=           0 FMFlag=      100000 FMFlg1=           0
         NFxFlg=           0 DoJE=T BraDBF=F KetDBF=T FulRan=T
         wScrn=  0.000000 ICntrl=       500 IOpCl=  0 I1Cent=   200000004 NGrid=           0
         NMat0=    1 NMatS0=      1 NMatT0=    0 NMatD0=    1 NMtDS0=    0 NMtDT0=    0
 Petite list used in FoFCou.
 Harris En= -822.691252208538    
 JPrj=0 DoOrth=F DoCkMO=F.
 Leave Link  401 at Thu Jun 22 10:30:15 2023, MaxMem=  2147483648 cpu:              14.3 elap:               1.8
 (Enter /home/pcmt/gaussian/g16.C.01/g16/l502.exe)
 Keep J ints in memory in canonical form, NReq=837395269.
 FoFCou: FMM=F IPFlag=           0 FMFlag=           0 FMFlg1=           0
         NFxFlg=           0 DoJE=F BraDBF=F KetDBF=F FulRan=T
         wScrn=  0.000000 ICntrl=       600 IOpCl=  0 I1Cent=           0 NGrid=           0
         NMat0=    1 NMatS0=  40470 NMatT0=    0 NMatD0=    1 NMtDS0=    0 NMtDT0=    0
 Symmetry not used in FoFCou.
 Two-electron integral symmetry not used.
 Closed shell SCF:
 Using DIIS extrapolation, IDIIS=  1040.
 NGot=  2147483648 LenX=  1328326719 LenY=  1328216054
 Requested convergence on RMS density matrix=1.00D-08 within 100 cycles.
 Requested convergence on MAX density matrix=1.00D-06.
 Requested convergence on             energy=1.00D-06.
 No special actions if energy rises.

 Cycle   1  Pass 1  IDiag  1:
 Defaulting to unpruned grid for atomic number  91.
 Defaulting to unpruned grid for atomic number  91.
 Defaulting to unpruned grid for atomic number  91.
 Defaulting to unpruned grid for atomic number  91.
 Defaulting to unpruned grid for atomic number  91.
 Defaulting to unpruned grid for atomic number  91.
 Defaulting to unpruned grid for atomic number  91.
 Defaulting to unpruned grid for atomic number  91.
 E= -820.029925731383    
 DIIS: error= 5.11D-02 at cycle   1 NSaved=   1.
 NSaved= 1 IEnMin= 1 EnMin= -820.029925731383     IErMin= 1 ErrMin= 5.11D-02
 ErrMax= 5.11D-02  0.00D+00 EMaxC= 1.00D-01 BMatC= 1.65D+00 BMatP= 1.65D+00
 IDIUse=3 WtCom= 4.89D-01 WtEn= 5.11D-01
 Coeff-Com:  0.100D+01
 Coeff-En:   0.100D+01
 Coeff:      0.100D+01
 Gap=    -0.006 Goal=   None    Shift=    0.000
 GapD=   -0.006 DampG=0.250 DampE=0.250 DampFc=0.1250 IDamp=-1.
 Damping current iteration by 1.25D-01
 RMSDP=1.38D-02 MaxDP=1.26D+00              OVMax= 9.89D-01

 Cycle   2  Pass 1  IDiag  1:
 E= -820.158634422957     Delta-E=       -0.128708691574 Rises=F Damp=T
 DIIS: error= 1.99D-02 at cycle   2 NSaved=   2.
 NSaved= 2 IEnMin= 2 EnMin= -820.158634422957     IErMin= 2 ErrMin= 1.99D-02
 ErrMax= 1.99D-02  0.00D+00 EMaxC= 1.00D-01 BMatC= 2.27D-01 BMatP= 1.65D+00
 IDIUse=3 WtCom= 8.01D-01 WtEn= 1.99D-01
 Coeff-Com: -0.776D-01 0.108D+01
 Coeff-En:   0.444D+00 0.556D+00
 Coeff:      0.264D-01 0.974D+00
 Gap=    -0.032 Goal=   None    Shift=    0.000
 RMSDP=1.74D-02 MaxDP=1.83D+00 DE=-1.29D-01 OVMax= 9.85D-01

 Cycle   3  Pass 1  IDiag  1:
 E= -818.707526118941     Delta-E=        1.451108304016 Rises=F Damp=F
 DIIS: error= 6.88D-02 at cycle   3 NSaved=   3.
 NSaved= 3 IEnMin= 2 EnMin= -820.158634422957     IErMin= 2 ErrMin= 1.99D-02
 ErrMax= 6.88D-02  0.00D+00 EMaxC= 1.00D-01 BMatC= 2.00D+00 BMatP= 2.27D-01
 IDIUse=2 WtCom= 0.00D+00 WtEn= 1.00D+00
 EnCoef did     3 forward-backward iterations
 Coeff-En:   0.322D+00 0.487D+00 0.192D+00
 Coeff:      0.322D+00 0.487D+00 0.192D+00
 Gap=    -0.129 Goal=   None    Shift=    0.000
 RMSDP=1.85D-02 MaxDP=1.83D+00 DE= 1.45D+00 OVMax= 9.41D-01

 Cycle   4  Pass 1  IDiag  1:
 E= -800.069345851696     Delta-E=       18.638180267245 Rises=F Damp=F
 DIIS: error= 3.22D-01 at cycle   4 NSaved=   4.
 NSaved= 4 IEnMin= 2 EnMin= -820.158634422957     IErMin= 2 ErrMin= 1.99D-02
 ErrMax= 3.22D-01  0.00D+00 EMaxC= 1.00D-01 BMatC= 4.18D+01 BMatP= 2.27D-01
 IDIUse=2 WtCom= 0.00D+00 WtEn= 1.00D+00
 EnCoef did   100 forward-backward iterations
 Coeff-En:   0.667D+00 0.212D-01 0.191D+00 0.120D+00
 Coeff:      0.667D+00 0.212D-01 0.191D+00 0.120D+00
 Gap=    -0.012 Goal=   None    Shift=    0.000
 RMSDP=4.79D-03 MaxDP=2.80D-01 DE= 1.86D+01 OVMax= 7.76D-01

 Cycle   5  Pass 1  IDiag  1:
 E= -820.242585590772     Delta-E=      -20.173239739077 Rises=F Damp=F
 DIIS: error= 7.08D-02 at cycle   5 NSaved=   5.
 NSaved= 5 IEnMin= 5 EnMin= -820.242585590772     IErMin= 2 ErrMin= 1.99D-02
 ErrMax= 7.08D-02  0.00D+00 EMaxC= 1.00D-01 BMatC= 1.60D+00 BMatP= 2.27D-01
 IDIUse=2 WtCom= 0.00D+00 WtEn= 1.00D+00
 EnCoef did   100 forward-backward iterations
 Coeff-En:   0.465D+00 0.600D-02 0.126D-03 0.000D+00 0.528D+00
 Coeff:      0.465D+00 0.600D-02 0.126D-03 0.000D+00 0.528D+00
 Gap=     0.164 Goal=   None    Shift=    0.000
 RMSDP=2.64D-03 MaxDP=1.33D-01 DE=-2.02D+01 OVMax= 2.89D-01

 Cycle   6  Pass 1  IDiag  1:
 E= -820.989684088688     Delta-E=       -0.747098497915 Rises=F Damp=F
 DIIS: error= 1.97D-02 at cycle   6 NSaved=   6.
 NSaved= 6 IEnMin= 6 EnMin= -820.989684088688     IErMin= 6 ErrMin= 1.97D-02
 ErrMax= 1.97D-02  0.00D+00 EMaxC= 1.00D-01 BMatC= 2.39D-01 BMatP= 2.27D-01
 IDIUse=3 WtCom= 8.03D-01 WtEn= 1.97D-01
 Coeff-Com:  0.138D-01 0.411D+00 0.586D-01-0.189D-01 0.214D+00 0.322D+00
 Coeff-En:   0.000D+00 0.000D+00 0.000D+00 0.000D+00 0.239D+00 0.761D+00
 Coeff:      0.111D-01 0.330D+00 0.470D-01-0.152D-01 0.219D+00 0.408D+00
 Gap=     0.212 Goal=   None    Shift=    0.000
 RMSDP=1.48D-03 MaxDP=4.62D-02 DE=-7.47D-01 OVMax= 1.06D-01

 Cycle   7  Pass 1  IDiag  1:
 E= -821.068806668946     Delta-E=       -0.079122580258 Rises=F Damp=F
 DIIS: error= 1.67D-02 at cycle   7 NSaved=   7.
 NSaved= 7 IEnMin= 7 EnMin= -821.068806668946     IErMin= 7 ErrMin= 1.67D-02
 ErrMax= 1.67D-02  0.00D+00 EMaxC= 1.00D-01 BMatC= 1.63D-01 BMatP= 2.27D-01
 IDIUse=3 WtCom= 8.33D-01 WtEn= 1.67D-01
 EnCoef did     1 forward-backward iterations
 Coeff-Com: -0.114D+00 0.268D+00 0.964D-02-0.650D-02 0.119D+00 0.288D+00
 Coeff-Com:  0.436D+00
 Coeff-En:   0.000D+00 0.000D+00 0.000D+00 0.000D+00 0.177D+00 0.269D+00
 Coeff-En:   0.554D+00
 Coeff:     -0.952D-01 0.223D+00 0.803D-02-0.542D-02 0.129D+00 0.285D+00
 Coeff:      0.456D+00
 Gap=     0.143 Goal=   None    Shift=    0.000
 RMSDP=7.33D-04 MaxDP=3.54D-02 DE=-7.91D-02 OVMax= 6.61D-02

 Cycle   8  Pass 1  IDiag  1:
 E= -821.172801351938     Delta-E=       -0.103994682991 Rises=F Damp=F
 DIIS: error= 6.84D-03 at cycle   8 NSaved=   8.
 NSaved= 8 IEnMin= 8 EnMin= -821.172801351938     IErMin= 8 ErrMin= 6.84D-03
 ErrMax= 6.84D-03  0.00D+00 EMaxC= 1.00D-01 BMatC= 2.69D-02 BMatP= 1.63D-01
 IDIUse=3 WtCom= 9.32D-01 WtEn= 6.84D-02
 Coeff-Com: -0.915D-01 0.123D+00-0.176D-01-0.209D-02 0.881D-01 0.162D+00
 Coeff-Com:  0.313D+00 0.425D+00
 Coeff-En:   0.000D+00 0.000D+00 0.000D+00 0.000D+00 0.299D-01 0.000D+00
 Coeff-En:   0.000D+00 0.970D+00
 Coeff:     -0.852D-01 0.114D+00-0.164D-01-0.195D-02 0.841D-01 0.151D+00
 Coeff:      0.292D+00 0.462D+00
 Gap=     0.136 Goal=   None    Shift=    0.000
 RMSDP=3.42D-04 MaxDP=1.92D-02 DE=-1.04D-01 OVMax= 3.04D-02

 Cycle   9  Pass 1  IDiag  1:
 E= -821.189201646921     Delta-E=       -0.016400294984 Rises=F Damp=F
 DIIS: error= 3.24D-03 at cycle   9 NSaved=   9.
 NSaved= 9 IEnMin= 9 EnMin= -821.189201646921     IErMin= 9 ErrMin= 3.24D-03
 ErrMax= 3.24D-03  0.00D+00 EMaxC= 1.00D-01 BMatC= 6.14D-03 BMatP= 2.69D-02
 IDIUse=3 WtCom= 9.68D-01 WtEn= 3.24D-02
 Coeff-Com: -0.268D-01 0.281D-01-0.119D-01 0.914D-03 0.303D-01-0.187D-01
 Coeff-Com: -0.795D-04 0.273D+00 0.725D+00
 Coeff-En:   0.000D+00 0.000D+00 0.000D+00 0.000D+00 0.000D+00 0.000D+00
 Coeff-En:   0.000D+00 0.000D+00 0.100D+01
 Coeff:     -0.259D-01 0.272D-01-0.115D-01 0.884D-03 0.294D-01-0.181D-01
 Coeff:     -0.770D-04 0.264D+00 0.734D+00
 Gap=     0.127 Goal=   None    Shift=    0.000
 RMSDP=2.67D-04 MaxDP=1.93D-02 DE=-1.64D-02 OVMax= 2.21D-02

 Cycle  10  Pass 1  IDiag  1:
 E= -821.194220369335     Delta-E=       -0.005018722414 Rises=F Damp=F
 DIIS: error= 1.09D-03 at cycle  10 NSaved=  10.
 NSaved=10 IEnMin=10 EnMin= -821.194220369335     IErMin=10 ErrMin= 1.09D-03
 ErrMax= 1.09D-03  0.00D+00 EMaxC= 1.00D-01 BMatC= 1.32D-03 BMatP= 6.14D-03
 IDIUse=3 WtCom= 9.89D-01 WtEn= 1.09D-02
 Coeff-Com:  0.197D-01-0.176D-01-0.198D-02 0.870D-03-0.206D-02-0.763D-01
 Coeff-Com: -0.126D+00 0.467D-02 0.594D+00 0.604D+00
 Coeff-En:   0.000D+00 0.000D+00 0.000D+00 0.000D+00 0.000D+00 0.000D+00
 Coeff-En:   0.000D+00 0.000D+00 0.000D+00 0.100D+01
 Coeff:      0.195D-01-0.174D-01-0.196D-02 0.860D-03-0.203D-02-0.755D-01
 Coeff:     -0.124D+00 0.462D-02 0.588D+00 0.608D+00
 Gap=     0.123 Goal=   None    Shift=    0.000
 RMSDP=2.96D-04 MaxDP=1.69D-02 DE=-5.02D-03 OVMax= 2.85D-02

 Cycle  11  Pass 1  IDiag  1:
 E= -821.195442240125     Delta-E=       -0.001221870790 Rises=F Damp=F
 DIIS: error= 2.34D-03 at cycle  11 NSaved=  11.
 NSaved=11 IEnMin=11 EnMin= -821.195442240125     IErMin=10 ErrMin= 1.09D-03
 ErrMax= 2.34D-03  0.00D+00 EMaxC= 1.00D-01 BMatC= 3.17D-03 BMatP= 1.32D-03
 IDIUse=3 WtCom= 9.89D-01 WtEn= 1.09D-02
 Coeff-Com:  0.202D-01-0.164D-01 0.693D-03 0.532D-03-0.223D-02-0.621D-01
 Coeff-Com: -0.986D-01 0.207D-01 0.493D+00 0.416D+00 0.228D+00
 Coeff-En:   0.000D+00 0.000D+00 0.000D+00 0.000D+00 0.000D+00 0.000D+00
 Coeff-En:   0.000D+00 0.000D+00 0.000D+00 0.189D+00 0.811D+00
 Coeff:      0.200D-01-0.162D-01 0.686D-03 0.527D-03-0.221D-02-0.614D-01
 Coeff:     -0.975D-01 0.205D-01 0.488D+00 0.413D+00 0.235D+00
 Gap=     0.120 Goal=   None    Shift=    0.000
 RMSDP=3.33D-05 MaxDP=4.13D-03 DE=-1.22D-03 OVMax= 1.79D-03

 Cycle  12  Pass 1  IDiag  1:
 E= -821.195504749901     Delta-E=       -0.000062509777 Rises=F Damp=F
 DIIS: error= 2.18D-03 at cycle  12 NSaved=  12.
 NSaved=12 IEnMin=12 EnMin= -821.195504749901     IErMin=10 ErrMin= 1.09D-03
 ErrMax= 2.18D-03  0.00D+00 EMaxC= 1.00D-01 BMatC= 2.51D-03 BMatP= 1.32D-03
 IDIUse=3 WtCom= 9.89D-01 WtEn= 1.09D-02
 Coeff-Com: -0.577D-02 0.187D-02 0.307D-02 0.306D-04-0.801D-02 0.713D-02
 Coeff-Com:  0.472D-01 0.170D+00 0.147D+00-0.534D+00-0.180D+01 0.297D+01
 Coeff-En:   0.000D+00 0.000D+00 0.000D+00 0.000D+00 0.000D+00 0.000D+00
 Coeff-En:   0.000D+00 0.000D+00 0.000D+00 0.141D+00 0.000D+00 0.859D+00
 Coeff:     -0.571D-02 0.185D-02 0.304D-02 0.302D-04-0.792D-02 0.705D-02
 Coeff:      0.467D-01 0.168D+00 0.145D+00-0.527D+00-0.178D+01 0.295D+01
 Gap=     0.125 Goal=   None    Shift=    0.000
 RMSDP=1.49D-04 MaxDP=1.62D-02 DE=-6.25D-05 OVMax= 1.19D-02

 Cycle  13  Pass 1  IDiag  1:
 E= -821.196364888170     Delta-E=       -0.000860138269 Rises=F Damp=F
 DIIS: error= 5.05D-04 at cycle  13 NSaved=  13.
 NSaved=13 IEnMin=13 EnMin= -821.196364888170     IErMin=13 ErrMin= 5.05D-04
 ErrMax= 5.05D-04  0.00D+00 EMaxC= 1.00D-01 BMatC= 2.33D-04 BMatP= 1.32D-03
 IDIUse=3 WtCom= 9.95D-01 WtEn= 5.05D-03
 Coeff-Com: -0.225D-02-0.477D-02 0.225D-02-0.672D-04-0.939D-02 0.160D-01
 Coeff-Com:  0.401D-01 0.723D-01-0.739D-01-0.432D+00-0.132D+01 0.211D+01
 Coeff-Com:  0.602D+00
 Coeff-En:   0.000D+00 0.000D+00 0.000D+00 0.000D+00 0.000D+00 0.000D+00
 Coeff-En:   0.000D+00 0.000D+00 0.000D+00 0.000D+00 0.000D+00 0.192D+00
 Coeff-En:   0.808D+00
 Coeff:     -0.224D-02-0.475D-02 0.224D-02-0.668D-04-0.935D-02 0.159D-01
 Coeff:      0.399D-01 0.719D-01-0.735D-01-0.430D+00-0.131D+01 0.210D+01
 Coeff:      0.603D+00
 Gap=     0.119 Goal=   None    Shift=    0.000
 RMSDP=1.90D-04 MaxDP=1.09D-02 DE=-8.60D-04 OVMax= 2.29D-02

 Cycle  14  Pass 1  IDiag  1:
 E= -821.196422841036     Delta-E=       -0.000057952866 Rises=F Damp=F
 DIIS: error= 8.23D-04 at cycle  14 NSaved=  14.
 NSaved=14 IEnMin=14 EnMin= -821.196422841036     IErMin=13 ErrMin= 5.05D-04
 ErrMax= 8.23D-04  0.00D+00 EMaxC= 1.00D-01 BMatC= 5.58D-04 BMatP= 2.33D-04
 IDIUse=3 WtCom= 9.95D-01 WtEn= 5.05D-03
 Coeff-Com: -0.694D-03-0.196D-03-0.206D-03 0.327D-05-0.205D-02 0.654D-02
 Coeff-Com:  0.548D-02 0.135D-01 0.237D-02-0.106D+00-0.689D+00 0.792D+00
 Coeff-Com:  0.549D+00 0.429D+00
 Coeff-En:   0.000D+00 0.000D+00 0.000D+00 0.000D+00 0.000D+00 0.000D+00
 Coeff-En:   0.000D+00 0.000D+00 0.000D+00 0.000D+00 0.000D+00 0.000D+00
 Coeff-En:   0.469D+00 0.531D+00
 Coeff:     -0.691D-03-0.195D-03-0.205D-03 0.325D-05-0.204D-02 0.650D-02
 Coeff:      0.545D-02 0.134D-01 0.236D-02-0.106D+00-0.686D+00 0.788D+00
 Coeff:      0.549D+00 0.429D+00
 Gap=     0.122 Goal=   None    Shift=    0.000
 RMSDP=9.93D-05 MaxDP=6.62D-03 DE=-5.80D-05 OVMax= 1.14D-02

 Cycle  15  Pass 1  IDiag  1:
 E= -821.196790786214     Delta-E=       -0.000367945178 Rises=F Damp=F
 DIIS: error= 7.07D-05 at cycle  15 NSaved=  15.
 NSaved=15 IEnMin=15 EnMin= -821.196790786214     IErMin=15 ErrMin= 7.07D-05
 ErrMax= 7.07D-05  0.00D+00 EMaxC= 1.00D-01 BMatC= 5.47D-06 BMatP= 2.33D-04
 IDIUse=1 WtCom= 1.00D+00 WtEn= 0.00D+00
 Coeff-Com:  0.169D-03-0.529D-03-0.106D-03 0.175D-04-0.109D-02 0.239D-02
 Coeff-Com:  0.106D-02-0.161D-03-0.751D-02-0.369D-01-0.300D+00 0.301D+00
 Coeff-Com:  0.273D+00 0.248D+00 0.520D+00
 Coeff:      0.169D-03-0.529D-03-0.106D-03 0.175D-04-0.109D-02 0.239D-02
 Coeff:      0.106D-02-0.161D-03-0.751D-02-0.369D-01-0.300D+00 0.301D+00
 Coeff:      0.273D+00 0.248D+00 0.520D+00
 Gap=     0.119 Goal=   None    Shift=    0.000
 RMSDP=1.90D-05 MaxDP=1.08D-03 DE=-3.68D-04 OVMax= 2.24D-03

 Cycle  16  Pass 1  IDiag  1:
 E= -821.196795765166     Delta-E=       -0.000004978952 Rises=F Damp=F
 DIIS: error= 8.19D-05 at cycle  16 NSaved=  16.
 NSaved=16 IEnMin=16 EnMin= -821.196795765166     IErMin=15 ErrMin= 7.07D-05
 ErrMax= 8.19D-05  0.00D+00 EMaxC= 1.00D-01 BMatC= 5.47D-06 BMatP= 5.47D-06
 IDIUse=1 WtCom= 1.00D+00 WtEn= 0.00D+00
 Coeff-Com:  0.692D-04 0.993D-05-0.105D-03 0.159D-04-0.313D-03 0.875D-03
 Coeff-Com:  0.462D-05-0.995D-03-0.223D-02-0.119D-01-0.144D+00 0.115D+00
 Coeff-Com:  0.132D+00 0.126D+00 0.394D+00 0.390D+00
 Coeff:      0.692D-04 0.993D-05-0.105D-03 0.159D-04-0.313D-03 0.875D-03
 Coeff:      0.462D-05-0.995D-03-0.223D-02-0.119D-01-0.144D+00 0.115D+00
 Coeff:      0.132D+00 0.126D+00 0.394D+00 0.390D+00
 Gap=     0.119 Goal=   None    Shift=    0.000
 RMSDP=7.68D-06 MaxDP=6.44D-04 DE=-4.98D-06 OVMax= 7.06D-04

 Cycle  17  Pass 1  IDiag  1:
 E= -821.196798462438     Delta-E=       -0.000002697272 Rises=F Damp=F
 DIIS: error= 1.58D-05 at cycle  17 NSaved=  17.
 NSaved=17 IEnMin=17 EnMin= -821.196798462438     IErMin=17 ErrMin= 1.58D-05
 ErrMax= 1.58D-05  0.00D+00 EMaxC= 1.00D-01 BMatC= 2.08D-07 BMatP= 5.47D-06
 IDIUse=1 WtCom= 1.00D+00 WtEn= 0.00D+00
 Coeff-Com:  0.624D-04-0.302D-04-0.257D-04 0.521D-05-0.102D-03 0.281D-03
 Coeff-Com:  0.119D-03-0.105D-02-0.375D-02-0.384D-02-0.430D-01 0.260D-01
 Coeff-Com:  0.417D-01 0.329D-01 0.178D+00 0.250D+00 0.523D+00
 Coeff:      0.624D-04-0.302D-04-0.257D-04 0.521D-05-0.102D-03 0.281D-03
 Coeff:      0.119D-03-0.105D-02-0.375D-02-0.384D-02-0.430D-01 0.260D-01
 Coeff:      0.417D-01 0.329D-01 0.178D+00 0.250D+00 0.523D+00
 Gap=     0.119 Goal=   None    Shift=    0.000
 RMSDP=3.07D-06 MaxDP=1.75D-04 DE=-2.70D-06 OVMax= 3.71D-04

 Cycle  18  Pass 1  IDiag  1:
 E= -821.196798370373     Delta-E=        0.000000092065 Rises=F Damp=F
 DIIS: error= 1.69D-05 at cycle  18 NSaved=  18.
 NSaved=18 IEnMin=17 EnMin= -821.196798462438     IErMin=17 ErrMin= 1.58D-05
 ErrMax= 1.69D-05  0.00D+00 EMaxC= 1.00D-01 BMatC= 2.28D-07 BMatP= 2.08D-07
 IDIUse=1 WtCom= 1.00D+00 WtEn= 0.00D+00
 Coeff-Com:  0.148D-04 0.147D-04-0.504D-05 0.254D-06-0.534D-05 0.353D-05
 Coeff-Com: -0.104D-04-0.209D-03-0.606D-03-0.770D-03-0.975D-02 0.598D-02
 Coeff-Com:  0.824D-02-0.493D-02 0.449D-01 0.352D-01 0.317D+00 0.605D+00
 Coeff:      0.148D-04 0.147D-04-0.504D-05 0.254D-06-0.534D-05 0.353D-05
 Coeff:     -0.104D-04-0.209D-03-0.606D-03-0.770D-03-0.975D-02 0.598D-02
 Coeff:      0.824D-02-0.493D-02 0.449D-01 0.352D-01 0.317D+00 0.605D+00
 Gap=     0.119 Goal=   None    Shift=    0.000
 RMSDP=2.04D-06 MaxDP=1.21D-04 DE= 9.21D-08 OVMax= 2.33D-04

 Cycle  19  Pass 1  IDiag  1:
 E= -821.196798587473     Delta-E=       -0.000000217100 Rises=F Damp=F
 DIIS: error= 2.16D-06 at cycle  19 NSaved=  19.
 NSaved=19 IEnMin=19 EnMin= -821.196798587473     IErMin=19 ErrMin= 2.16D-06
 ErrMax= 2.16D-06  0.00D+00 EMaxC= 1.00D-01 BMatC= 3.19D-09 BMatP= 2.08D-07
 IDIUse=1 WtCom= 1.00D+00 WtEn= 0.00D+00
 Coeff-Com:  0.331D-05 0.130D-04-0.812D-06-0.256D-07 0.318D-06-0.239D-04
 Coeff-Com: -0.387D-04-0.141D-04 0.178D-03-0.208D-03-0.321D-02 0.335D-02
 Coeff-Com:  0.221D-02-0.381D-02 0.997D-02-0.614D-02 0.961D-01 0.210D+00
 Coeff-Com:  0.692D+00
 Coeff:      0.331D-05 0.130D-04-0.812D-06-0.256D-07 0.318D-06-0.239D-04
 Coeff:     -0.387D-04-0.141D-04 0.178D-03-0.208D-03-0.321D-02 0.335D-02
 Coeff:      0.221D-02-0.381D-02 0.997D-02-0.614D-02 0.961D-01 0.210D+00
 Coeff:      0.692D+00
 Gap=     0.119 Goal=   None    Shift=    0.000
 RMSDP=5.25D-07 MaxDP=3.04D-05 DE=-2.17D-07 OVMax= 6.45D-05

 Cycle  20  Pass 1  IDiag  1:
 E= -821.196798593178     Delta-E=       -0.000000005705 Rises=F Damp=F
 DIIS: error= 1.61D-06 at cycle  20 NSaved=  20.
 NSaved=20 IEnMin=20 EnMin= -821.196798593178     IErMin=20 ErrMin= 1.61D-06
 ErrMax= 1.61D-06  0.00D+00 EMaxC= 1.00D-01 BMatC= 1.49D-09 BMatP= 3.19D-09
 IDIUse=1 WtCom= 1.00D+00 WtEn= 0.00D+00
 Coeff-Com:  0.103D-05 0.364D-05 0.692D-08-0.604D-07 0.246D-06-0.707D-05
 Coeff-Com: -0.138D-04 0.963D-06 0.310D-04-0.165D-03-0.131D-02 0.176D-02
 Coeff-Com:  0.879D-03-0.805D-03 0.280D-02-0.280D-02 0.231D-01 0.555D-01
 Coeff-Com:  0.341D+00 0.580D+00
 Coeff:      0.103D-05 0.364D-05 0.692D-08-0.604D-07 0.246D-06-0.707D-05
 Coeff:     -0.138D-04 0.963D-06 0.310D-04-0.165D-03-0.131D-02 0.176D-02
 Coeff:      0.879D-03-0.805D-03 0.280D-02-0.280D-02 0.231D-01 0.555D-01
 Coeff:      0.341D+00 0.580D+00
 Gap=     0.119 Goal=   None    Shift=    0.000
 RMSDP=1.03D-07 MaxDP=7.22D-06 DE=-5.71D-09 OVMax= 1.07D-05

 Cycle  21  Pass 1  IDiag  1:
 E= -821.196798594126     Delta-E=       -0.000000000948 Rises=F Damp=F
 DIIS: error= 3.49D-07 at cycle  21 NSaved=  20.
 NSaved=20 IEnMin=20 EnMin= -821.196798594126     IErMin=20 ErrMin= 3.49D-07
 ErrMax= 3.49D-07  0.00D+00 EMaxC= 1.00D-01 BMatC= 5.05D-11 BMatP= 1.49D-09
 IDIUse=1 WtCom= 1.00D+00 WtEn= 0.00D+00
 Coeff-Com:  0.384D-06 0.455D-06 0.466D-07-0.983D-07-0.148D-05-0.381D-05
 Coeff-Com: -0.102D-05-0.129D-04-0.677D-04-0.418D-03 0.617D-03 0.309D-03
 Coeff-Com:  0.941D-04 0.519D-03-0.216D-03 0.235D-02 0.618D-02 0.772D-01
 Coeff-Com:  0.225D+00 0.689D+00
 Coeff:      0.384D-06 0.455D-06 0.466D-07-0.983D-07-0.148D-05-0.381D-05
 Coeff:     -0.102D-05-0.129D-04-0.677D-04-0.418D-03 0.617D-03 0.309D-03
 Coeff:      0.941D-04 0.519D-03-0.216D-03 0.235D-02 0.618D-02 0.772D-01
 Coeff:      0.225D+00 0.689D+00
 Gap=     0.119 Goal=   None    Shift=    0.000
 RMSDP=2.50D-08 MaxDP=2.02D-06 DE=-9.48D-10 OVMax= 2.35D-06

 Cycle  22  Pass 1  IDiag  1:
 E= -821.196798594150     Delta-E=       -0.000000000024 Rises=F Damp=F
 DIIS: error= 9.20D-08 at cycle  22 NSaved=  20.
 NSaved=20 IEnMin=20 EnMin= -821.196798594150     IErMin=20 ErrMin= 9.20D-08
 ErrMax= 9.20D-08  0.00D+00 EMaxC= 1.00D-01 BMatC= 5.74D-12 BMatP= 5.05D-11
 IDIUse=1 WtCom= 1.00D+00 WtEn= 0.00D+00
 Coeff-Com:  0.159D-06 0.125D-06 0.490D-08-0.868D-06-0.185D-05-0.435D-06
 Coeff-Com: -0.230D-05-0.143D-04-0.114D-03 0.188D-03 0.937D-04 0.785D-04
 Coeff-Com: -0.328D-04-0.150D-03-0.529D-03-0.170D-02 0.630D-02 0.627D-01
 Coeff-Com:  0.341D+00 0.593D+00
 Coeff:      0.159D-06 0.125D-06 0.490D-08-0.868D-06-0.185D-05-0.435D-06
 Coeff:     -0.230D-05-0.143D-04-0.114D-03 0.188D-03 0.937D-04 0.785D-04
 Coeff:     -0.328D-04-0.150D-03-0.529D-03-0.170D-02 0.630D-02 0.627D-01
 Coeff:      0.341D+00 0.593D+00
 Gap=     0.119 Goal=   None    Shift=    0.000
 RMSDP=1.30D-08 MaxDP=7.59D-07 DE=-2.41D-11 OVMax= 1.63D-06

 Cycle  23  Pass 1  IDiag  1:
 E= -821.196798594203     Delta-E=       -0.000000000052 Rises=F Damp=F
 DIIS: error= 2.33D-08 at cycle  23 NSaved=  20.
 NSaved=20 IEnMin=20 EnMin= -821.196798594203     IErMin=20 ErrMin= 2.33D-08
 ErrMax= 2.33D-08  0.00D+00 EMaxC= 1.00D-01 BMatC= 3.21D-13 BMatP= 5.74D-12
 IDIUse=1 WtCom= 1.00D+00 WtEn= 0.00D+00
 Coeff-Com:  0.391D-07-0.858D-09-0.111D-06-0.993D-07-0.753D-07-0.122D-05
 Coeff-Com:  0.943D-06-0.981D-05 0.170D-04 0.123D-04 0.181D-04-0.457D-04
 Coeff-Com: -0.580D-04-0.355D-03-0.150D-02-0.756D-02 0.159D-02 0.468D-01
 Coeff-Com:  0.220D+00 0.741D+00
 Coeff:      0.391D-07-0.858D-09-0.111D-06-0.993D-07-0.753D-07-0.122D-05
 Coeff:      0.943D-06-0.981D-05 0.170D-04 0.123D-04 0.181D-04-0.457D-04
 Coeff:     -0.580D-04-0.355D-03-0.150D-02-0.756D-02 0.159D-02 0.468D-01
 Coeff:      0.220D+00 0.741D+00
 Gap=     0.119 Goal=   None    Shift=    0.000
 RMSDP=3.42D-09 MaxDP=1.95D-07 DE=-5.23D-11 OVMax= 4.12D-07

 SCF Done:  E(RB-P86) =  -821.196798594     A.U. after   23 cycles
            NFock= 23  Conv=0.34D-08     -V/T= 2.5110
 KE= 5.434662175547D+02 PE=-2.776489082196D+03 EE= 9.338642458912D+02
 Leave Link  502 at Thu Jun 22 10:32:05 2023, MaxMem=  2147483648 cpu:             589.9 elap:             109.6
 (Enter /home/pcmt/gaussian/g16.C.01/g16/l601.exe)
 Copying SCF densities to generalized density rwf, IOpCl= 0 IROHF=0.

 **********************************************************************

            Population analysis using the SCF Density.

 **********************************************************************

 Orbital symmetries:
       Occupied  (A) (A) (A) (A) (A) (A) (A) (A) (A) (A) (A) (A)
                 (A) (A) (A) (A) (A) (A) (A) (A) (A) (A) (A) (A)
                 (A) (A) (A) (A) (A) (A) (A) (A) (A) (A) (A) (A)
                 (A) (A)
       Virtual   (A) (A) (A) (A) (A) (A) (A) (A) (A) (A) (A) (A)
                 (A) (A) (A) (A) (A) (A) (A) (A) (A) (A) (A) (A)
                 (A) (A) (A) (A) (A) (A) (A) (A) (A) (A) (A) (A)
                 (A) (A) (A) (A) (A) (A) (A) (A) (A) (A) (A) (A)
                 (A) (A) (A) (A) (A) (A) (A) (A) (A) (A) (A) (A)
                 (A) (A) (A) (A) (A) (A) (A) (A) (A) (A) (A) (A)
                 (A) (A) (A) (A) (A) (A) (A) (A) (A) (A) (A) (A)
                 (A) (A) (A) (A) (A) (A) (A) (A) (A) (A) (A) (A)
                 (A) (A) (A) (A) (A) (A) (A) (A) (A) (A) (A) (A)
                 (A) (A) (A) (A) (A) (A) (A) (A) (A) (A) (A) (A)
                 (A) (A) (A) (A) (A) (A) (A) (A) (A) (A) (A) (A)
                 (A) (A) (A) (A) (A) (A) (A) (A) (A) (A) (A) (A)
                 (A) (A) (A) (A) (A) (A) (A) (A) (A) (A) (A) (A)
                 (A) (A) (A) (A) (A) (A) (A) (A) (A) (A) (A) (A)
                 (A) (A) (A) (A) (A) (A) (A) (A) (A) (A) (A) (A)
                 (A) (A) (A) (A) (A) (A) (A) (A) (A) (A) (A) (A)
                 (A) (A) (A) (A) (A) (A) (A) (A) (A) (A) (A) (A)
                 (A) (A) (A) (A) (A) (A) (A) (A) (A) (A) (A) (A)
                 (A) (A) (A) (A) (A) (A) (A) (A) (A) (A) (A) (A)
                 (A) (A) (A) (A) (A) (A) (A) (A) (A) (A) (A) (A)
                 (A) (A) (A) (A) (A) (A)
 The electronic state is 1-A.
 Alpha  occ. eigenvalues --  -18.85535 -18.75828 -18.73537 -18.72278 -18.71330
 Alpha  occ. eigenvalues --  -11.06095  -7.12936  -7.12863  -7.11421  -3.48711
 Alpha  occ. eigenvalues --   -3.48672  -3.47960  -3.47912  -3.47302  -1.68726
 Alpha  occ. eigenvalues --   -1.01329  -0.94643  -0.89233  -0.87928  -0.85711
 Alpha  occ. eigenvalues --   -0.77639  -0.76839  -0.65817  -0.56629  -0.44761
 Alpha  occ. eigenvalues --   -0.41782  -0.39215  -0.37654  -0.35288  -0.29690
 Alpha  occ. eigenvalues --   -0.28555  -0.26722  -0.26282  -0.25755  -0.25228
 Alpha  occ. eigenvalues --   -0.23654  -0.23177  -0.21602
 Alpha virt. eigenvalues --   -0.09679  -0.08345  -0.07948  -0.07514  -0.07059
 Alpha virt. eigenvalues --   -0.05560  -0.04880  -0.04093  -0.00801  -0.00366
 Alpha virt. eigenvalues --    0.01296   0.02273   0.03146   0.03858   0.04354
 Alpha virt. eigenvalues --    0.07242   0.08047   0.08633   0.10093   0.11806
 Alpha virt. eigenvalues --    0.13395   0.15698   0.20709   0.24017   0.25909
 Alpha virt. eigenvalues --    0.26956   0.28117   0.28695   0.29283   0.30053
 Alpha virt. eigenvalues --    0.31276   0.32826   0.33353   0.36826   0.37697
 Alpha virt. eigenvalues --    0.39349   0.40399   0.41098   0.43165   0.44724
 Alpha virt. eigenvalues --    0.46045   0.47059   0.47610   0.49801   0.52577
 Alpha virt. eigenvalues --    0.53508   0.54887   0.55804   0.57841   0.60189
 Alpha virt. eigenvalues --    0.62198   0.64016   0.65109   0.65844   0.66732
 Alpha virt. eigenvalues --    0.68151   0.70039   0.73817   0.74741   0.78415
 Alpha virt. eigenvalues --    0.84926   0.89380   0.93731   1.02197   1.03310
 Alpha virt. eigenvalues --    1.04604   1.05707   1.08789   1.10654   1.11518
 Alpha virt. eigenvalues --    1.13914   1.14784   1.15576   1.17301   1.19490
 Alpha virt. eigenvalues --    1.20463   1.21677   1.22951   1.26229   1.26787
 Alpha virt. eigenvalues --    1.30079   1.32272   1.34070   1.38043   1.39686
 Alpha virt. eigenvalues --    1.40567   1.42744   1.47732   1.48677   1.52541
 Alpha virt. eigenvalues --    1.54587   1.54895   1.56756   1.59586   1.62755
 Alpha virt. eigenvalues --    1.63706   1.65156   1.66790   1.69346   1.72240
 Alpha virt. eigenvalues --    1.74882   1.76091   1.81043   1.83183   1.83568
 Alpha virt. eigenvalues --    1.86640   1.87955   1.90002   1.94355   1.97184
 Alpha virt. eigenvalues --    1.98531   2.03535   2.10268   2.10910   2.12918
 Alpha virt. eigenvalues --    2.14895   2.15450   2.17002   2.19195   2.24746
 Alpha virt. eigenvalues --    2.26644   2.26889   2.30835   2.34062   2.41957
 Alpha virt. eigenvalues --    2.45298   2.46408   2.47413   2.48505   2.52846
 Alpha virt. eigenvalues --    2.55616   2.60660   2.62621   2.63481   2.66255
 Alpha virt. eigenvalues --    2.66997   2.68849   2.79316   2.84760   2.88453
 Alpha virt. eigenvalues --    2.89760   2.96000   2.97281   3.17729   3.30949
 Alpha virt. eigenvalues --    3.40099   3.50434   3.58501   3.69099   3.71100
 Alpha virt. eigenvalues --    3.72423   3.74046   3.77604   3.86193   3.87386
 Alpha virt. eigenvalues --    3.88878   3.92472   4.05153   4.14869   4.28857
 Alpha virt. eigenvalues --    4.92802   5.01939   5.02359   5.04132   5.04626
 Alpha virt. eigenvalues --    5.05601   5.05843   5.06825   5.07077   5.07628
 Alpha virt. eigenvalues --    5.09425   5.10661   5.11240   5.13873   5.15213
 Alpha virt. eigenvalues --    5.17553   5.19141   5.19645   5.20999   5.22306
 Alpha virt. eigenvalues --    5.23494   5.24787   5.29776   5.31496   5.32541
 Alpha virt. eigenvalues --    5.34302   5.35810   5.40252   5.45463   5.45705
 Alpha virt. eigenvalues --    5.80041   6.01521   6.05542   6.09170   6.11570
 Alpha virt. eigenvalues --    6.14888   6.17237   6.17695   6.18161   6.20890
 Alpha virt. eigenvalues --    6.21429   6.25050   6.26215   6.29135   6.33909
 Alpha virt. eigenvalues --    6.35758   6.38435   6.40539   6.45232   6.47196
 Alpha virt. eigenvalues --    6.59069   6.61997   6.67365   6.70519   6.73307
 Alpha virt. eigenvalues --    6.76447   6.81581   6.84838   6.92143   6.94088
 Alpha virt. eigenvalues --    6.99778   7.25464   7.39167   7.48153   8.15871
 Alpha virt. eigenvalues --    8.20540   8.25303   8.62623   8.96461  29.32629
 Alpha virt. eigenvalues --   29.41220  29.50410  42.98544  43.16614  43.23984
 Alpha virt. eigenvalues --   43.36652  43.54491  54.12772  70.24461  70.29187
 Alpha virt. eigenvalues --   70.34892 142.62569 142.71975 142.82182 202.62964
 Alpha virt. eigenvalues --  626.14168
     Molecular Orbital Coefficients:
                           1         2         3         4         5
                           O         O         O         O         O
     Eigenvalues --   -18.85535 -18.75828 -18.73537 -18.72278 -18.71330
   1 1   Pa 1S         -0.00000  -0.00000  -0.00000  -0.00000  -0.00000
   2        2S         -0.00002  -0.00016  -0.00006  -0.00006  -0.00015
   3        3S          0.00000   0.00001   0.00000   0.00000   0.00001
   4        4S          0.00005   0.00035   0.00013   0.00013   0.00034
   5        5S         -0.00016  -0.00135  -0.00052  -0.00049  -0.00142
   6        6S          0.00026   0.00260   0.00100   0.00090   0.00305
   7        7S         -0.00041  -0.00378  -0.00121  -0.00100  -0.00504
   8        8S          0.00125   0.00415   0.00135   0.00127   0.00343
   9        9S         -0.00441  -0.00650  -0.00622  -0.00609  -0.00614
  10       10S          0.00102   0.00102   0.00157   0.00116   0.00106
  11       11PX         0.00001   0.00000   0.00000  -0.00003   0.00000
  12       11PY         0.00000   0.00002   0.00000  -0.00000  -0.00002
  13       11PZ        -0.00000  -0.00000   0.00002  -0.00000  -0.00000
  14       12PX        -0.00011  -0.00001  -0.00001   0.00020  -0.00002
  15       12PY        -0.00001  -0.00016  -0.00001   0.00001   0.00019
  16       12PZ         0.00001   0.00003  -0.00018   0.00002   0.00000
[...]
    10  O   -0.462120
    11  H    0.298989
 Sum of Mulliken charges =  -0.00000
 Mulliken charges with hydrogens summed into heavy atoms:
               1
     1  Pa   1.362615
     2  O   -0.322820
     3  O   -0.303437
     4  O   -0.361493
     6  O    0.087255
    10  O   -0.462120
 Electronic spatial extent (au):  <R**2>=            976.7413
 Charge=             -0.0000 electrons
 Dipole moment (field-independent basis, Debye):
    X=              5.7438    Y=              3.2948    Z=             -0.8227  Tot=              6.6726
 Quadrupole moment (field-independent basis, Debye-Ang):
   XX=            -52.1594   YY=            -71.3187   ZZ=            -65.6613
   XY=             -3.7870   XZ=             -1.3602   YZ=             -1.4127
 Traceless Quadrupole moment (field-independent basis, Debye-Ang):
   XX=             10.8871   YY=             -8.2722   ZZ=             -2.6148
   XY=             -3.7870   XZ=             -1.3602   YZ=             -1.4127
 Octapole moment (field-independent basis, Debye-Ang**2):
  XXX=             60.8251  YYY=             28.1722  ZZZ=             -6.9933  XYY=              1.9963
  XXY=             11.4565  XXZ=             -5.2523  XZZ=             -0.7750  YZZ=            -12.3627
  YYZ=              8.2322  XYZ=              1.0770
 Hexadecapole moment (field-independent basis, Debye-Ang**3):
 XXXX=           -312.8165 YYYY=           -377.0416 ZZZZ=           -223.2587 XXXY=            -33.8133
 XXXZ=             -9.2363 YYYX=             -3.4672 YYYZ=             22.4574 ZZZX=             -0.5656
 ZZZY=            -28.3673 XXYY=           -126.7578 XXZZ=           -142.0031 YYZZ=           -108.1368
 XXYZ=             -5.7595 YYXZ=             -2.2497 ZZXY=             -1.2304
 N-N= 4.779618201563D+02 E-N=-2.776489079018D+03  KE= 5.434662175547D+02
 Orbital energies and kinetic energies (alpha):
                                 1                 2
   1         O               -18.855353         29.113359
   2         O               -18.758283         29.112288
   3         O               -18.735373         29.114258
   4         O               -18.722775         29.114237
   5         O               -18.713302         29.111025
   6         O               -11.060952          4.703858
   7         O                -7.129361          5.036717
   8         O                -7.128627          5.036217
   9         O                -7.114215          5.033085
  10         O                -3.487110          6.835638
  11         O                -3.486718          6.836122
  12         O                -3.479599          6.831724
  13         O                -3.479116          6.831755
  14         O                -3.473020          6.827811
  15         O                -1.687263          6.377793
  16         O                -1.013293          2.674124
  17         O                -0.946426          2.274941
  18         O                -0.892329          2.411667
  19         O                -0.879275          2.429544
  20         O                -0.857111          3.021134
  21         O                -0.776386          2.545966
  22         O                -0.768386          2.525270
  23         O                -0.658172          3.231048
  24         O                -0.566295          1.866850
  25         O                -0.447608          2.540145
  26         O                -0.417819          2.510185
  27         O                -0.392150          3.419390
  28         O                -0.376538          2.405036
  29         O                -0.352881          2.287303
  30         O                -0.296899          2.523675
  31         O                -0.285545          2.612143
  32         O                -0.267222          2.392905
  33         O                -0.262823          2.407925
  34         O                -0.257552          3.565424
  35         O                -0.252281          3.154342
  36         O                -0.236539          3.812791
  37         O                -0.231769          5.805172
  38         O                -0.216021          3.400244
  39         V                -0.096792        112.584475
  40         V                -0.083447          7.203021
  41         V                -0.079476          6.569240
  42         V                -0.075135          6.251194
  43         V                -0.070594         46.212640
  44         V                -0.055595          5.857242
  45         V                -0.048798        195.082090
  46         V                -0.040927          3.815382
  47         V                -0.008015         21.091829
  48         V                -0.003664          9.795799
  49         V                 0.012957          2.777616
  50         V                 0.022727          5.083883
  51         V                 0.031456          1.997646
  52         V                 0.038576          1.355230
  53         V                 0.043540          1.352201
  54         V                 0.072421          2.962110
  55         V                 0.080467          7.753173
  56         V                 0.086332          1.938514
  57         V                 0.100932          2.901681
  58         V                 0.118063          4.552191
  59         V                 0.133948          1.055151
  60         V                 0.156978          4.598463
  61         V                 0.207090          1.032552
  62         V                 0.240166          1.268616
  63         V                 0.259087          1.354586
  64         V                 0.269557          1.230548
  65         V                 0.281173          1.221909
  66         V                 0.286950          1.437227
  67         V                 0.292826          1.150919
  68         V                 0.300528          1.530151
  69         V                 0.312764          1.613727
  70         V                 0.328260          1.203564
  71         V                 0.333531          1.717781
  72         V                 0.368255          3.014247
  73         V                 0.376974          1.440660
  74         V                 0.393495          1.520698
  75         V                 0.403988          1.643270
  76         V                 0.410980          1.613766
  77         V                 0.431652          2.012437
  78         V                 0.447236          1.684603
  79         V                 0.460449          1.851615
  80         V                 0.470593          1.724349
  81         V                 0.476096          1.576534
  82         V                 0.498014          1.705319
  83         V                 0.525772          1.941505
  84         V                 0.535082          1.708253
  85         V                 0.548868          1.605650
  86         V                 0.558042          1.574067
  87         V                 0.578415          1.789423
  88         V                 0.601885          1.861407
  89         V                 0.621981          1.671252
  90         V                 0.640160          3.601141
  91         V                 0.651090          2.142677
  92         V                 0.658439          1.492157
  93         V                 0.667324          1.962373
  94         V                 0.681507          1.490003
  95         V                 0.700386          1.561825
  96         V                 0.738175          1.523315
  97         V                 0.747408          1.487821
  98         V                 0.784149          2.217686
  99         V                 0.849256          1.878968
 100         V                 0.893795          2.030639
 101         V                 0.937307          2.940770
 102         V                 1.021971          2.690111
 103         V                 1.033099          2.648327
 104         V                 1.046040          2.659172
 105         V                 1.057070          2.272446
 106         V                 1.087895          2.445029
 107         V                 1.106539          2.662108
 108         V                 1.115185          2.605449
 109         V                 1.139136          2.898202
 110         V                 1.147835          3.215402
 111         V                 1.155764          2.984483
 112         V                 1.173011          2.645556
 113         V                 1.194905          2.562507
 114         V                 1.204634          2.793645
 115         V                 1.216770          3.033779
 116         V                 1.229507          2.798720
 117         V                 1.262287          3.038423
 118         V                 1.267866          2.883745
 119         V                 1.300794          3.044064
 120         V                 1.322720          2.457562
 121         V                 1.340699          2.273151
 122         V                 1.380430          2.581991
 123         V                 1.396861          2.395484
 124         V                 1.405673          3.234700
 125         V                 1.427442          3.322360
 126         V                 1.477322          3.101683
 127         V                 1.486768          2.853890
 128         V                 1.525405          3.055931
 129         V                 1.545868          3.032133
 130         V                 1.548953          3.152483
 131         V                 1.567558          3.267618
 132         V                 1.595856          3.225273
 133         V                 1.627547          2.914602
 134         V                 1.637056          3.420645
 135         V                 1.651557          3.240132
 136         V                 1.667904          2.847444
 137         V                 1.693455          3.170474
 138         V                 1.722395          3.122724
 139         V                 1.748815          3.166283
 140         V                 1.760906          3.419918
 141         V                 1.810425          3.465141
 142         V                 1.831825          3.741606
 143         V                 1.835678          3.556255
 144         V                 1.866403          3.406115
 145         V                 1.879554          3.123490
 146         V                 1.900023          3.671129
 147         V                 1.943553          3.672993
 148         V                 1.971842          3.462205
 149         V                 1.985313          3.105345
 150         V                 2.035349          3.548143
 151         V                 2.102683          3.600617
 152         V                 2.109100          3.529976
 153         V                 2.129182          3.923520
 154         V                 2.148954          3.684784
 155         V                 2.154500          3.566792
 156         V                 2.170015          3.562192
 157         V                 2.191949          3.971908
 158         V                 2.247461          4.472812
 159         V                 2.266444          4.125108
 160         V                 2.268888          4.341959
 161         V                 2.308351          4.849998
 162         V                 2.340624          5.551721
 163         V                 2.419566          3.984853
 164         V                 2.452982          4.354580
 165         V                 2.464083          4.298991
 166         V                 2.474131          4.272311
 167         V                 2.485050          6.602541
 168         V                 2.528459          4.917339
 169         V                 2.556161          5.898102
 170         V                 2.606599          6.877825
 171         V                 2.626212          6.708734
 172         V                 2.634807          6.625232
 173         V                 2.662545          6.136655
 174         V                 2.669973          6.246218
 175         V                 2.688489          5.887705
 176         V                 2.793163          7.069183
 177         V                 2.847602          6.891348
 178         V                 2.884532          6.694692
 179         V                 2.897596          7.227212
 180         V                 2.959995          7.105584
 181         V                 2.972809          6.669103
 182         V                 3.177290          7.473357
 183         V                 3.309493          8.516823
 184         V                 3.400993          7.922949
 185         V                 3.504340          6.415787
 186         V                 3.585007          8.229378
 187         V                 3.690988          7.612218
 188         V                 3.710998          6.894390
 189         V                 3.724227          6.825188
 190         V                 3.740462          8.563635
 191         V                 3.776041          7.236045
 192         V                 3.861935          9.708262
 193         V                 3.873865          9.573163
 194         V                 3.888776          9.206911
 195         V                 3.924716          8.997779
 196         V                 4.051527          9.726225
 197         V                 4.148694          9.588995
 198         V                 4.288567          8.972360
 199         V                 4.928019          6.530638
 200         V                 5.019385          6.452298
 201         V                 5.023594          6.495479
 202         V                 5.041323          6.455865
 203         V                 5.046258          6.532927
 204         V                 5.056015          6.566052
 205         V                 5.058428          6.463232
 206         V                 5.068250          6.495929
 207         V                 5.070766          6.527781
 208         V                 5.076276          6.553024
 209         V                 5.094250          6.787325
 210         V                 5.106605          6.608554
 211         V                 5.112401          6.611436
 212         V                 5.138732          6.694517
 213         V                 5.152129          6.652937
 214         V                 5.175535          6.814812
 215         V                 5.191406          6.838774
 216         V                 5.196446          6.890754
 217         V                 5.209985          6.889115
 218         V                 5.223065          6.876133
 219         V                 5.234943          6.887169
 220         V                 5.247869          6.957035
 221         V                 5.297759          7.021364
 222         V                 5.314959          7.424727
 223         V                 5.325415          6.886968
 224         V                 5.343017          6.973223
 225         V                 5.358103          7.292421
 226         V                 5.402525          7.288421
 227         V                 5.454632          7.217464
 228         V                 5.457047          7.119581
 229         V                 5.800407          8.527886
 230         V                 6.015209          9.108456
 231         V                 6.055425         10.106308
 232         V                 6.091699          8.998573
 233         V                 6.115700          9.114253
 234         V                 6.148882         10.035073
 235         V                 6.172371          9.317860
 236         V                 6.176945          9.337893
 237         V                 6.181610          9.469833
 238         V                 6.208896          9.343858
 239         V                 6.214289          9.389306
 240         V                 6.250499          9.396861
 241         V                 6.262149          9.386468
 242         V                 6.291350          9.401475
 243         V                 6.339094          9.458347
 244         V                 6.357581          9.489276
 245         V                 6.384346          9.523284
 246         V                 6.405391          9.692896
 247         V                 6.452325          9.627248
 248         V                 6.471960          9.793229
 249         V                 6.590686          9.717763
 250         V                 6.619971          9.689710
 251         V                 6.673649         10.501762
 252         V                 6.705194         10.039421
 253         V                 6.733074          9.722744
 254         V                 6.764469         10.165127
 255         V                 6.815805          9.815181
 256         V                 6.848378         10.850110
 257         V                 6.921425          9.686226
 258         V                 6.940880          9.726583
 259         V                 6.997780         10.569322
 260         V                 7.254637         13.183009
 261         V                 7.391673         13.460483
 262         V                 7.481530         13.696620
 263         V                 8.158713         15.787205
 264         V                 8.205397         15.811256
 265         V                 8.253034         15.812112
 266         V                 8.626226         16.043438
 267         V                 8.964615         16.205050
 268         V                29.326291         36.015392
 269         V                29.412199         36.099455
 270         V                29.504097         36.172279
 271         V                42.985442        108.439834
 272         V                43.166140        108.493830
 273         V                43.239840        108.562303
 274         V                43.366518        108.700823
 275         V                43.544912        108.856618
 276         V                54.127724         39.980530
 277         V                70.244607         83.934261
 278         V                70.291867         84.027574
 279         V                70.348922         84.116910
 280         V               142.625689        242.406709
 281         V               142.719746        242.525069
 282         V               142.821817        242.651607
 283         V               202.629643        130.086438
 284         V               626.141683       1034.502379
 Total kinetic energy from orbitals= 5.434662175547D+02
 No NMR shielding tensors so no spin-rotation constants.
 Leave Link  601 at Thu Jun 22 10:32:05 2023, MaxMem=  2147483648 cpu:               3.0 elap:               0.4
 (Enter /home/pcmt/gaussian/g16.C.01/g16/l9999.exe)

 Test job not archived.
 1\1\GINC-U-0-8\SP\RBP86\Gen\H5O5Pa1\ROOT\22-Jun-2023\0\\#p BP86/GEN Ps
 eudo=Read GFInput GFPrint IOP(6/7=3) Symm=(Loose) Int=(UltraFine) Gues
 s=(Harris) Scf=(NoVarAcc,MaxCycle=100,conver=8)\\pao_oh3_h2o.bp86.gp-s
 p-deftzvp SGP calculation\\0,1\Pa,0,-0.1346336414,0.1401145063,0.82097
 07447\O,0,1.1993763881,1.4732421808,-0.2465578232\O,0,-1.7467826852,0.
 9012213507,-0.3413112002\O,0,-0.5968413432,1.4334449292,2.534235477\H,
 0,-1.8533699815,1.6688092931,-0.9178097471\O,0,0.0138052613,-1.6688080
 942,-0.9705766043\H,0,-0.4210096226,-1.6455760162,-1.8328778099\H,0,0.
 706313581,-2.3400367829,-1.0227774377\H,0,2.1541384089,1.5357890507,-0
 .1295128435\O,0,1.1981168384,-0.8224589996,1.7318355056\H,0,-1.2615707
 59,2.1318457068,2.5239539983\\Version=ES64L-G16RevC.01\State=1-A\HF=-8
 21.1967986\RMSD=3.416e-09\Dipole=-0.7936487,-1.1578054,-2.2183901\Quad
 rupole=-2.383844,3.7969442,-1.4131002,-0.7707342,-3.2775182,6.4210201\
 PG=C01 [X(H5O5Pa1)]\\@


 IF IT'S NOT TRUE, IT'S WELL INVENTED -- DANTE
 Job cpu time:       0 days  0 hours 10 minutes 17.3 seconds.
 Elapsed time:       0 days  0 hours  1 minutes 53.4 seconds.
 File lengths (MBytes):  RWF=     34 Int=      0 D2E=      0 Chk=      6 Scr=      1
 Normal termination of Gaussian 16 at Thu Jun 22 10:32:05 2023.
