

 Parallel Execution: Process Information
 ==============================================================================
 Rank   Node Name                              NodeID   MyNodeRank  NodeMaster
    0   u-0-5.local                               0          0          0
    1   u-0-5.local                               0          1         -1
    2   u-0-5.local                               1          0          1
    3   u-0-5.local                               1          1         -1
    4   u-0-5.local                               2          0          2
    5   u-0-5.local                               2          1         -1
    6   u-0-5.local                               3          0          3
    7   u-0-5.local                               3          1         -1
 ==============================================================================


May use up to 31228MB of RAM as shared memory on node 0
May use up to 31250MB of RAM as shared memory on node 3
May use up to 31250MB of RAM as shared memory on node 1
May use up to 31250MB of RAM as shared memory on node 2

 *******************************************************************************
 *                                                                             *
 *  --------------------------------                                           *
 *   Amsterdam Modeling Suite (AMS)              2022.103                      *
 *  --------------------------------                                           *
 *                                               r104886 2022-06-17            *
 *                                                                             *
 *                                                                             *
 *                              =================                              *
 *                              |               |                              *
 *                              |     A M S     |                              *
 *                              |               |                              *
 *                              =================                              *
 *                                                                             *
 *                                                                             *
 *   Online information and documentation:  https://www.scm.com/support/       *
 *   E-mail:  support@scm.com   info@scm.com                                   *
 *                                                                             *
 *   Scientific publications using AMS results must be properly referenced     *
 *   See the User Manuals (or the web site) for recommended citations          *
 *   The terms and conditions of the End User License Agreement apply to       *
 *   the use of AMS, https://www.scm.com/license-terms/                        *
 *                                                                             *
 **********************  x86_64_linux_intel / intelmpi  ************************
 
 Licensed to: Dr. Val?rie Vallet / Laboratoire PhLAM UMR 8523 / Villeneuve d'Ascq Cedex / FRANCE 2023-02-21 11:49:39
 SCM User ID: u10325
  
 AMS 2022.103  RunTime: Mar01-2023 06:26:34  ShM Nodes: 4  Procs: 8

 AMS jobname: pa_oh4_so4.SR.b3lyp.tz2p.opt-freq-B21-solvation
 AMS jobid  : 1567349214

 Start   directory: /home/shaaban/ams/PhD/sulfate/pa_oh4_so4/solvation/B21/
 Results directory: /home/shaaban/ams/PhD/sulfate/pa_oh4_so4/solvation/B21/pa_oh4_so4.SR.b3lyp.tz2p.opt-freq-B21-solvation.results/
 Scratch directory: /state/partition2/shaaban/929855.phlam-s-sakura/amstmp_pa_oh4_so4.SR.b3lyp.tz2p.opt-freq-B21-solvation_kid0.1567349214/


 Communication costs MPI_COMM_WORLD:      2.813 usec per message,   0.0091 usec per 8-byte item
 Communication costs for intra-node:      0.572 usec per message,   0.0026 usec per 8-byte item

 RNG seed: 1206642915 302921088 2010724388 -1468310635 -751360653 -1102587148 84957929 -1889655258



                      ************************************************************************
                      *  ADF 2022.103  RunTime: Mar01-2023 06:26:35  ShM Nodes: 4  Procs: 8  *
                      ************************************************************************
  
       ***************************
       *  GEOMETRY OPTIMIZATION  *
       ***************************

Optimization Method                    Quasi Newton
Optimization Coordinates               Delocalized Coordinates
Optimize lattice                       F
 
 ------------------------------------------------------
 Convergence criteria (Hartree,Angstrom)
 ------------------------------------------------------
 Maximum gradient               0.000100000000
 Maximum rms gradient           0.000066666667
 Maximum step allowed           0.001000000000
 Maximum rms step allowed       0.000666666667
 Maximum energy change allowe   0.000014000000
 Maximum stress energy allowe   0.000500000000
 
Initial model Hessian                  Automatic Hessian
 
------------------------------------
Quasi-Newton Optimizer Parameters
------------------------------------
Hessian Update Method                  BFGS
Maximum number of steps                  250
First GDIIS cycle                          0
Maximum GDIIS vectors                      0
Trust radius (bohr)                        0.200000
Trust radius varies                        T
Constraints converged at all steps         T
Use projector                              T
 
 Rigid motions settings for: old optimizer
 Atomic rotations (x,y,z):     T T T
 Atomic translations (x,y,z):  T T T
 Tolerance:                   1.000000000000000E-006
 
--------
Geometry
--------
Formula: H4O8PaS
Atoms
  Index Symbol   x (angstrom)   y (angstrom)   z (angstrom)
      1     Pa     0.41295961    -0.19012156    -0.29090605       adf.R=2.200
      2      O     1.02969144     1.45361328    -1.51100002       adf.R=1.517
      3      H     1.92980476     1.78584466    -1.60102272       adf.R=1.350
      4      O    -1.13498198     1.02400170     0.59905540       adf.R=1.517
      5      H    -1.35885914     1.93999693     0.41553862       adf.R=1.350
      6      O    -0.66202197    -1.10279688    -1.92745370       adf.R=1.517
      7      H    -1.12559641    -1.94462197    -1.90832900       adf.R=1.350
      8      O    -0.08494260    -1.85525293     0.95397386       adf.R=1.517
      9      H     0.54545369    -2.36379280     1.47727400       adf.R=1.350
     10      O     2.14563465     0.29609617     1.17524441       adf.R=1.517
     11      O     2.49261304    -1.16702069    -0.62445167       adf.R=1.517
     12      S     3.28485291    -0.57836380     0.57758175       adf.R=1.792
     13      O     4.36430113     0.25985899     0.10480358       adf.R=1.517
     14      O     3.64304771    -1.63186249     1.50248507       adf.R=1.517
 
Total System Charge            -1.00000
Bonding info available!
 
 
----------------
ADF Engine Input
----------------
 
 Basis
 Type TZ2P
 Core None
 End
 XC
 Hybrid B3LYP
 End
 Solvation
 Surf Delley
 Solv name=Water cav0=0.0 cav1=0.0067639
 Charged method=CONJ
 C-Mat POT
 SCF VAR ALL
 CSMRSP
 End
 NumericalQuality Good
 

 Title: *** (NO TITLE) ***

 Using automatic Hessian for delocalized coordinates.
 *** GO1_GOStep1 ***

 SOLVATION
-------------------------------------------

  The Delley construction of COSMO surface surface is calculated

       Division Level for Surface Triangles (NDIV)                  3
       Final Division Level for Triangles (NFDIV)                   1
       Radius of the Solvent (RSOL)                           1.93000 angstr
  Dielectric Constant (EPSL)                                 78.39000

       COSMO equation is solved iteratively-               conjugate-gradient

       Maximun of Iterations for Charges (NCIX)                  1000
       Criterion for Charge convergence (CCNV)                1.0E-08

  COSMO charges included variationally in SCF

       COSMO included at every SCF cycle

  Geometry-dependent empirical factor                         0.00000

  C-Matrix calculated in cspmtx

  In cspmtx, C-Matrix calculated using fitted potential

-------------------------------------------



 -------------------------------------------
  COSMO surface
  Area             =          605.154
  Volume           =         1050.510
  Number of Points =         1645
 -------------------------------------------



 ======================
 RI Hartree-Fock Scheme
 ======================
  
 Fit Set Quality     : GOOD
 Threshold Quality   : GOOD
 Integration Quality : GOOD
 Response Quality    : DEFAULT
 Is Range Separated  :  F
 
 RIHartreeFock Dependency: number of modified vectors:           5
 cosmo_calcen: 0.5 (esolb+esolc) (Hartrees) =   -0.103269

 Solvation energy (screening term,uncorrected) =    -64.802529 kcal/mol

 Solvation energy (dispersion and cavitation terms) =      1.131591 kcal/mol
 Solvation Energy Contributions (Hartrees)
          esola   esolb+esolc
     0.10326939   -0.20653878
 esol last cycle   -0.10326939
  
 Hartree-Fock exchange energy:   -559.064760278706     
 cosmo_calcen: 0.5 (esolb+esolc) (Hartrees) =   -0.103269

 Solvation energy (screening term,uncorrected) =    -64.802528 kcal/mol

 Solvation energy (dispersion and cavitation terms) =      1.131591 kcal/mol
 Solvation Energy Contributions (Hartrees)
          esola   esolb+esolc
     0.10326939   -0.20653878
 esol last cycle   -0.10326939

 Energy gradients wrt nuclear displacements
 ==========================================

     Atom      Cartesian (a.u./angstrom)
                 X         Y         Z
 ----------------------------------------
     1 Pa    0.036195 -0.006566  0.011738
     2 O     0.002527  0.007534 -0.002512
     3 H    -0.003513 -0.005009  0.002824
     4 O    -0.006524  0.012021 -0.000963
     5 H     0.002191 -0.007090  0.001491
     6 O    -0.007827 -0.009503 -0.003138
     7 H     0.003970  0.006121  0.000518
     8 O    -0.001079 -0.006549  0.001861
     9 H     0.000394  0.005349 -0.003662
    10 O    -0.023019  0.005429 -0.004566
    11 O    -0.022083  0.000991 -0.009331
    12 S     0.035229 -0.004751  0.010623
    13 O    -0.008878 -0.000561 -0.001235
    14 O    -0.007582  0.002585 -0.003648
 ----------------------------------------
 Mulliken charges used for AMS results%charges...
 
----------------------------------------------------------------------
Geometry Convergence after Step   1       (Hartree/Angstrom,Angstrom)
----------------------------------------------------------------------
current energy                               -4.17858457 Hartree
energy change                      -4.17858457     0.00001400    F
constrained gradient max            0.03619870     0.00010000    F
constrained gradient rms            0.01074182     0.00006667    F
gradient max                        0.03619870
gradient rms                        0.01074182
cart. step max                      0.02237710     0.00100000    F
cart. step rms                      0.00794069     0.00066667    F
 
 
--------
Geometry
--------
Formula: H4O8PaS
Atoms
  Index Symbol   x (angstrom)   y (angstrom)   z (angstrom)
      1     Pa     0.41182058    -0.18975975    -0.29145897       adf.R=2.200
      2      O     1.02522344     1.44783005    -1.52013389       adf.R=1.517
      3      H     1.92143976     1.79497662    -1.62104956       adf.R=1.350
      4      O    -1.13446309     1.01575512     0.60546891       adf.R=1.517
      5      H    -1.36344082     1.93520176     0.42522344       adf.R=1.350
      6      O    -0.65675593    -1.09559709    -1.93236877       adf.R=1.517
      7      H    -1.12405768    -1.93977855    -1.91998291       adf.R=1.350
      8      O    -0.09352266    -1.84767195     0.96001064       adf.R=1.517
      9      H     0.52307659    -2.37039490     1.49009895       adf.R=1.350
     10      O     2.15406133     0.29315600     1.17738895       adf.R=1.517
     11      O     2.50109806    -1.16681284    -0.62115427       adf.R=1.517
     12      S     3.28461829    -0.57785442     0.57711478       adf.R=1.792
     13      O     4.37454182     0.25590315     0.11103394       adf.R=1.517
     14      O     3.65831712    -1.62937458     1.50260228       adf.R=1.517
 
Total System Charge            -1.00000
Bonding info available!
 
 *** GO1_GOStep2 ***

 SOLVATION
-------------------------------------------

  The Delley construction of COSMO surface surface is calculated

       Division Level for Surface Triangles (NDIV)                  3
       Final Division Level for Triangles (NFDIV)                   1
       Radius of the Solvent (RSOL)                           1.93000 angstr
  Dielectric Constant (EPSL)                                 78.39000

       COSMO equation is solved iteratively-               conjugate-gradient

       Maximun of Iterations for Charges (NCIX)                  1000
       Criterion for Charge convergence (CCNV)                1.0E-08

  COSMO charges included variationally in SCF

       COSMO included at every SCF cycle

  Geometry-dependent empirical factor                         0.00000

  C-Matrix calculated in cspmtx

  In cspmtx, C-Matrix calculated using fitted potential

-------------------------------------------



 -------------------------------------------
  COSMO surface
  Area             =          606.100
  Volume           =         1050.710
  Number of Points =         1645
 -------------------------------------------



 ======================
 RI Hartree-Fock Scheme
 ======================
  
 Fit Set Quality     : GOOD
 Threshold Quality   : GOOD
 Integration Quality : GOOD
 Response Quality    : DEFAULT
 Is Range Separated  :  F
 
 RIHartreeFock Dependency: number of modified vectors:           5
 cosmo_calcen: 0.5 (esolb+esolc) (Hartrees) =   -0.104713

 Solvation energy (screening term,uncorrected) =    -65.708399 kcal/mol

 Solvation energy (dispersion and cavitation terms) =      1.133361 kcal/mol
 Solvation Energy Contributions (Hartrees)
          esola   esolb+esolc
     0.10471299   -0.20942598
 esol last cycle   -0.10471299
  
 Hartree-Fock exchange energy:   -559.061176075948     
 cosmo_calcen: 0.5 (esolb+esolc) (Hartrees) =   -0.104713

 Solvation energy (screening term,uncorrected) =    -65.708407 kcal/mol

 Solvation energy (dispersion and cavitation terms) =      1.133361 kcal/mol
 Solvation Energy Contributions (Hartrees)
          esola   esolb+esolc
     0.10471300   -0.20942600
 esol last cycle   -0.10471300

 Energy gradients wrt nuclear displacements
 ==========================================

     Atom      Cartesian (a.u./angstrom)
                 X         Y         Z
 ----------------------------------------
     1 Pa    0.033806 -0.005740  0.010730
     2 O    -0.001967  0.006073 -0.002930
     3 H     0.001285 -0.002938  0.002056
     4 O    -0.004639  0.004334  0.000530
     5 H     0.000557 -0.000260  0.000177
     6 O    -0.004187 -0.002829 -0.003266
     7 H     0.000650  0.000016  0.000591
     8 O    -0.004411 -0.004714  0.000556
     9 H     0.003121  0.002599 -0.000915
    10 O    -0.016866  0.002197 -0.005431
    11 O    -0.016898  0.002595 -0.004912
    12 S     0.015793 -0.002171  0.004656
    13 O    -0.003473 -0.000682 -0.000074
    14 O    -0.002770  0.001523 -0.001769
 ----------------------------------------
 Mulliken charges used for AMS results%charges...

 dE(predicted):    -0.53573E-03, dE(actual):    -0.88897E-03, Trust radius:    0.200000, all in a.u.
 
----------------------------------------------------------------------
Geometry Convergence after Step   2       (Hartree/Angstrom,Angstrom)
----------------------------------------------------------------------
current energy                               -4.17947354 Hartree
energy change                      -0.00088897     0.00001400    F
constrained gradient max            0.03381046     0.00010000    F
constrained gradient rms            0.00760436     0.00006667    F
gradient max                        0.03381046
gradient rms                        0.00760436
cart. step max                      0.06584789     0.00100000    F
cart. step rms                      0.02100483     0.00066667    F
 
 
--------
Geometry
--------
Formula: H4O8PaS
Atoms
  Index Symbol   x (angstrom)   y (angstrom)   z (angstrom)
      1     Pa     0.40989104    -0.18887874    -0.29218704       adf.R=2.200
      2      O     1.01561400     1.42946763    -1.54254785       adf.R=1.517
      3      H     1.89161370     1.81984636    -1.67400230       adf.R=1.350
      4      O    -1.12906954     0.99519141     0.62263767       adf.R=1.517
      5      H    -1.37173006     1.91559969     0.45033916       adf.R=1.350
      6      O    -0.63954708    -1.07819834    -1.94306446       adf.R=1.517
      7      H    -1.11549733    -1.92070925    -1.94873076       adf.R=1.350
      8      O    -0.11301695    -1.82566305     0.97561729       adf.R=1.517
      9      H     0.45722869    -2.38772583     1.51958341       adf.R=1.350
     10      O     2.17933991     0.28833314     1.18417923       adf.R=1.517
     11      O     2.52550176    -1.17011488    -0.61111849       adf.R=1.517
     12      S     3.28882670    -0.57709380     0.57769732       adf.R=1.792
     13      O     4.39435184     0.25018585     0.11900373       adf.R=1.517
     14      O     3.68845014    -1.62466157     1.50538663       adf.R=1.517
 
Total System Charge            -1.00000
Bonding info available!
 
 *** GO1_GOStep3 ***

 SOLVATION
-------------------------------------------

  The Delley construction of COSMO surface surface is calculated

       Division Level for Surface Triangles (NDIV)                  3
       Final Division Level for Triangles (NFDIV)                   1
       Radius of the Solvent (RSOL)                           1.93000 angstr
  Dielectric Constant (EPSL)                                 78.39000

       COSMO equation is solved iteratively-               conjugate-gradient

       Maximun of Iterations for Charges (NCIX)                  1000
       Criterion for Charge convergence (CCNV)                1.0E-08

  COSMO charges included variationally in SCF

       COSMO included at every SCF cycle

  Geometry-dependent empirical factor                         0.00000

  C-Matrix calculated in cspmtx

  In cspmtx, C-Matrix calculated using fitted potential

-------------------------------------------



 -------------------------------------------
  COSMO surface
  Area             =          611.822
  Volume           =         1058.204
  Number of Points =         1667
 -------------------------------------------



 ======================
 RI Hartree-Fock Scheme
 ======================
  
 Fit Set Quality     : GOOD
 Threshold Quality   : GOOD
 Integration Quality : GOOD
 Response Quality    : DEFAULT
 Is Range Separated  :  F
 
 RIHartreeFock Dependency: number of modified vectors:           5
 cosmo_calcen: 0.5 (esolb+esolc) (Hartrees) =   -0.108475

 Solvation energy (screening term,uncorrected) =    -68.068899 kcal/mol

 Solvation energy (dispersion and cavitation terms) =      1.144060 kcal/mol
 Solvation Energy Contributions (Hartrees)
          esola   esolb+esolc
     0.10847468   -0.21694937
 esol last cycle   -0.10847468
  
 Hartree-Fock exchange energy:   -559.067083771801     
 cosmo_calcen: 0.5 (esolb+esolc) (Hartrees) =   -0.108475

 Solvation energy (screening term,uncorrected) =    -68.068905 kcal/mol

 Solvation energy (dispersion and cavitation terms) =      1.144060 kcal/mol
 Solvation Energy Contributions (Hartrees)
          esola   esolb+esolc
     0.10847469   -0.21694939
 esol last cycle   -0.10847469

 Energy gradients wrt nuclear displacements
 ==========================================

     Atom      Cartesian (a.u./angstrom)
                 X         Y         Z
 ----------------------------------------
     1 Pa    0.023965 -0.003234  0.007227
     2 O    -0.004599  0.004293 -0.003940
     3 H     0.004363 -0.000881  0.000877
     4 O    -0.001847 -0.003368  0.001330
     5 H    -0.000468  0.004298 -0.000678
     6 O    -0.000341  0.003619 -0.002356
     7 H    -0.001547 -0.004153  0.000565
     8 O    -0.006738 -0.003177  0.000873
     9 H     0.004249  0.000050  0.001474
    10 O    -0.000509 -0.005488 -0.006995
    11 O    -0.002816  0.005987  0.005978
    12 S    -0.021311  0.003009 -0.006597
    13 O     0.003787 -0.000810  0.001442
    14 O     0.003814 -0.000145  0.000799
 ----------------------------------------
 Mulliken charges used for AMS results%charges...

 dE(predicted):    -0.91495E-03, dE(actual):    -0.11345E-02, Trust radius:    0.400000, all in a.u.
 
----------------------------------------------------------------------
Geometry Convergence after Step   3       (Hartree/Angstrom,Angstrom)
----------------------------------------------------------------------
current energy                               -4.18060805 Hartree
energy change                      -0.00113451     0.00001400    F
constrained gradient max            0.02396969     0.00010000    F
constrained gradient rms            0.00609722     0.00006667    F
gradient max                        0.02396969
gradient rms                        0.00609722
cart. step max                      0.03351320     0.00100000    F
cart. step rms                      0.00958205     0.00066667    F
 
 
--------
Geometry
--------
Formula: H4O8PaS
Atoms
  Index Symbol   x (angstrom)   y (angstrom)   z (angstrom)
      1     Pa     0.40918524    -0.18861210    -0.29216630       adf.R=2.200
      2      O     1.01270642     1.41996802    -1.54952036       adf.R=1.517
      3      H     1.87330142     1.83678068    -1.69562700       adf.R=1.350
      4      O    -1.12373673     0.98942779     0.62927160       adf.R=1.517
      5      H    -1.37428829     1.90745329     0.45817438       adf.R=1.350
      6      O    -0.63048922    -1.07400867    -1.94544836       adf.R=1.517
      7      H    -1.11273559    -1.91222597    -1.95912509       adf.R=1.350
      8      O    -0.11856380    -1.81537537     0.98104954       adf.R=1.517
      9      H     0.42371549    -2.40055984     1.52789744       adf.R=1.350
     10      O     2.19165013     0.28969525     1.18848900       adf.R=1.517
     11      O     2.53666222    -1.17599988    -0.60677635       adf.R=1.517
     12      S     3.29516392    -0.57743764     0.57942537       adf.R=1.792
     13      O     4.40126871     0.24949880     0.11713153       adf.R=1.517
     14      O     3.69811687    -1.62302576     1.51001812       adf.R=1.517
 
Total System Charge            -1.00000
Bonding info available!
 
 *** GO1_GOStep4 ***

 SOLVATION
-------------------------------------------

  The Delley construction of COSMO surface surface is calculated

       Division Level for Surface Triangles (NDIV)                  3
       Final Division Level for Triangles (NFDIV)                   1
       Radius of the Solvent (RSOL)                           1.93000 angstr
  Dielectric Constant (EPSL)                                 78.39000

       COSMO equation is solved iteratively-               conjugate-gradient

       Maximun of Iterations for Charges (NCIX)                  1000
       Criterion for Charge convergence (CCNV)                1.0E-08

  COSMO charges included variationally in SCF

       COSMO included at every SCF cycle

  Geometry-dependent empirical factor                         0.00000

  C-Matrix calculated in cspmtx

  In cspmtx, C-Matrix calculated using fitted potential

-------------------------------------------



 -------------------------------------------
  COSMO surface
  Area             =          614.297
  Volume           =         1061.284
  Number of Points =         1670
 -------------------------------------------



 ======================
 RI Hartree-Fock Scheme
 ======================
  
 Fit Set Quality     : GOOD
 Threshold Quality   : GOOD
 Integration Quality : GOOD
 Response Quality    : DEFAULT
 Is Range Separated  :  F
 
 RIHartreeFock Dependency: number of modified vectors:           5
 cosmo_calcen: 0.5 (esolb+esolc) (Hartrees) =   -0.109978

 Solvation energy (screening term,uncorrected) =    -69.011994 kcal/mol

 Solvation energy (dispersion and cavitation terms) =      1.148688 kcal/mol
 Solvation Energy Contributions (Hartrees)
          esola   esolb+esolc
     0.10997760   -0.21995520
 esol last cycle   -0.10997760
  
 Hartree-Fock exchange energy:   -559.068985099293     
 cosmo_calcen: 0.5 (esolb+esolc) (Hartrees) =   -0.109978

 Solvation energy (screening term,uncorrected) =    -69.012001 kcal/mol

 Solvation energy (dispersion and cavitation terms) =      1.148688 kcal/mol
 Solvation Energy Contributions (Hartrees)
          esola   esolb+esolc
     0.10997761   -0.21995522
 esol last cycle   -0.10997761

 Energy gradients wrt nuclear displacements
 ==========================================

     Atom      Cartesian (a.u./angstrom)
                 X         Y         Z
 ----------------------------------------
     1 Pa    0.017088 -0.001805  0.004945
     2 O    -0.003800  0.003559 -0.003790
     3 H     0.003467 -0.000835  0.000624
     4 O    -0.000673 -0.004051  0.000801
     5 H    -0.000213  0.003362 -0.000567
     6 O     0.000314  0.003884 -0.001286
     7 H    -0.001089 -0.003258  0.000538
     8 O    -0.005871 -0.002980  0.001482
     9 H     0.003284  0.000199  0.001263
    10 O     0.003393 -0.005615 -0.005083
    11 O     0.001367  0.004985  0.006474
    12 S    -0.025114  0.003562 -0.007731
    13 O     0.004174  0.000002  0.000864
    14 O     0.003672 -0.001009  0.001467
 ----------------------------------------
 Mulliken charges used for AMS results%charges...

 dE(predicted):    -0.23214E-03, dE(actual):    -0.38875E-03, Trust radius:    0.400000, all in a.u.
 
----------------------------------------------------------------------
Geometry Convergence after Step   4       (Hartree/Angstrom,Angstrom)
----------------------------------------------------------------------
current energy                               -4.18099680 Hartree
energy change                      -0.00038875     0.00001400    F
constrained gradient max            0.02512781     0.00010000    F
constrained gradient rms            0.00570265     0.00006667    F
gradient max                        0.02512781
gradient rms                        0.00570265
cart. step max                      0.06806921     0.00100000    F
cart. step rms                      0.01890149     0.00066667    F
 
 
--------
Geometry
--------
Formula: H4O8PaS
Atoms
  Index Symbol   x (angstrom)   y (angstrom)   z (angstrom)
      1     Pa     0.40732143    -0.18810626    -0.29165873       adf.R=2.200
      2      O     1.01006712     1.40201057    -1.55619780       adf.R=1.517
      3      H     1.83117874     1.87844209    -1.73104318       adf.R=1.350
      4      O    -1.11090721     0.98691374     0.63887475       adf.R=1.517
      5      H    -1.37952883     1.89759607     0.46581316       adf.R=1.350
      6      O    -0.61387534    -1.07402985    -1.94573395       adf.R=1.517
      7      H    -1.11258146    -1.90004592    -1.97373359       adf.R=1.350
      8      O    -0.12296462    -1.79754734     0.98705110       adf.R=1.517
      9      H     0.35564628    -2.43385558     1.53272253       adf.R=1.350
     10      O     2.21579004     0.29679012     1.19610603       adf.R=1.517
     11      O     2.55642076    -1.19231909    -0.59675271       adf.R=1.517
     12      S     3.31355000    -0.57898827     0.58493846       adf.R=1.792
     13      O     4.41541394     0.24682101     0.10879069       adf.R=1.517
     14      O     3.71642597    -1.61810268     1.52361679       adf.R=1.517
 
Total System Charge            -1.00000
Bonding info available!
 
 *** GO1_GOStep5 ***

 SOLVATION
-------------------------------------------

  The Delley construction of COSMO surface surface is calculated

       Division Level for Surface Triangles (NDIV)                  3
       Final Division Level for Triangles (NFDIV)                   1
       Radius of the Solvent (RSOL)                           1.93000 angstr
  Dielectric Constant (EPSL)                                 78.39000

       COSMO equation is solved iteratively-               conjugate-gradient

       Maximun of Iterations for Charges (NCIX)                  1000
       Criterion for Charge convergence (CCNV)                1.0E-08

  COSMO charges included variationally in SCF

       COSMO included at every SCF cycle

  Geometry-dependent empirical factor                         0.00000

  C-Matrix calculated in cspmtx

  In cspmtx, C-Matrix calculated using fitted potential

-------------------------------------------



 -------------------------------------------
  COSMO surface
  Area             =          619.159
  Volume           =         1065.480
  Number of Points =         1677
 -------------------------------------------



 ======================
 RI Hartree-Fock Scheme
 ======================
  
 Fit Set Quality     : GOOD
 Threshold Quality   : GOOD
 Integration Quality : GOOD
 Response Quality    : DEFAULT
 Is Range Separated  :  F
 
 RIHartreeFock Dependency: number of modified vectors:           5
 cosmo_calcen: 0.5 (esolb+esolc) (Hartrees) =   -0.112604

 Solvation energy (screening term,uncorrected) =    -70.660285 kcal/mol

 Solvation energy (dispersion and cavitation terms) =      1.157780 kcal/mol
 Solvation Energy Contributions (Hartrees)
          esola   esolb+esolc
     0.11260432   -0.22520864
 esol last cycle   -0.11260432
  
 Hartree-Fock exchange energy:   -559.069655908044     
 cosmo_calcen: 0.5 (esolb+esolc) (Hartrees) =   -0.112604

 Solvation energy (screening term,uncorrected) =    -70.660289 kcal/mol

 Solvation energy (dispersion and cavitation terms) =      1.157780 kcal/mol
 Solvation Energy Contributions (Hartrees)
          esola   esolb+esolc
     0.11260433   -0.22520865
 esol last cycle   -0.11260433

 Energy gradients wrt nuclear displacements
 ==========================================

     Atom      Cartesian (a.u./angstrom)
                 X         Y         Z
 ----------------------------------------
     1 Pa    0.002398  0.000937  0.000113
     2 O    -0.001621  0.002021 -0.002573
     3 H     0.000809 -0.001494  0.000482
     4 O     0.001357 -0.003615 -0.000706
     5 H     0.000545  0.000246 -0.000139
     6 O     0.000933  0.002777  0.001130
     7 H     0.000379 -0.000338  0.000500
     8 O    -0.002975 -0.002482  0.001999
     9 H     0.001122  0.001336  0.000130
    10 O     0.005129 -0.001894  0.000756
    11 O     0.004985  0.000562  0.002356
    12 S    -0.015798  0.002254 -0.004783
    13 O     0.001772  0.001025 -0.000451
    14 O     0.000965 -0.001335  0.001186
 ----------------------------------------
 Mulliken charges used for AMS results%charges...

 dE(predicted):    -0.46016E-03, dE(actual):    -0.61567E-03, Trust radius:    0.400000, all in a.u.
 
----------------------------------------------------------------------
Geometry Convergence after Step   5       (Hartree/Angstrom,Angstrom)
----------------------------------------------------------------------
current energy                               -4.18161247 Hartree
energy change                      -0.00061567     0.00001400    F
constrained gradient max            0.01581387     0.00010000    F
constrained gradient rms            0.00315659     0.00006667    F
gradient max                        0.01581387
gradient rms                        0.00315659
cart. step max                      0.03408620     0.00100000    F
cart. step rms                      0.01048663     0.00066667    F
 
 
--------
Geometry
--------
Formula: H4O8PaS
Atoms
  Index Symbol   x (angstrom)   y (angstrom)   z (angstrom)
      1     Pa     0.40589343    -0.18815673    -0.29098083       adf.R=2.200
      2      O     1.01121832     1.39560360    -1.55313587       adf.R=1.517
      3      H     1.80708294     1.90737352    -1.74043991       adf.R=1.350
      4      O    -1.10382355     0.99479512     0.63988431       adf.R=1.517
      5      H    -1.38272229     1.90069701     0.46188512       adf.R=1.350
      6      O    -0.60831471    -1.08241460    -1.94242794       adf.R=1.517
      7      H    -1.11772249    -1.90089247    -1.97550109       adf.R=1.350
      8      O    -0.12095603    -1.79220689     0.98614899       adf.R=1.517
      9      H     0.32156008    -2.45823270     1.52575914       adf.R=1.350
     10      O     2.22750816     0.30197030     1.19666125       adf.R=1.517
     11      O     2.56348509    -1.20215869    -0.58927097       adf.R=1.517
     12      S     3.32606261    -0.58028259     0.58849636       adf.R=1.792
     13      O     4.42478439     0.24275378     0.10248588       adf.R=1.517
     14      O     3.72790085    -1.61327003     1.53322908       adf.R=1.517
 
Total System Charge            -1.00000
Bonding info available!
 
 *** GO1_GOStep6 ***

 SOLVATION
-------------------------------------------

  The Delley construction of COSMO surface surface is calculated

       Division Level for Surface Triangles (NDIV)                  3
       Final Division Level for Triangles (NFDIV)                   1
       Radius of the Solvent (RSOL)                           1.93000 angstr
  Dielectric Constant (EPSL)                                 78.39000

       COSMO equation is solved iteratively-               conjugate-gradient

       Maximun of Iterations for Charges (NCIX)                  1000
       Criterion for Charge convergence (CCNV)                1.0E-08

  COSMO charges included variationally in SCF

       COSMO included at every SCF cycle

  Geometry-dependent empirical factor                         0.00000

  C-Matrix calculated in cspmtx

  In cspmtx, C-Matrix calculated using fitted potential

-------------------------------------------



 -------------------------------------------
  COSMO surface
  Area             =          619.071
  Volume           =         1063.805
  Number of Points =         1679
 -------------------------------------------



 ======================
 RI Hartree-Fock Scheme
 ======================
  
 Fit Set Quality     : GOOD
 Threshold Quality   : GOOD
 Integration Quality : GOOD
 Response Quality    : DEFAULT
 Is Range Separated  :  F
 
 RIHartreeFock Dependency: number of modified vectors:           5
 cosmo_calcen: 0.5 (esolb+esolc) (Hartrees) =   -0.113683

 Solvation energy (screening term,uncorrected) =    -71.337393 kcal/mol

 Solvation energy (dispersion and cavitation terms) =      1.157614 kcal/mol
 Solvation Energy Contributions (Hartrees)
          esola   esolb+esolc
     0.11368336   -0.22736672
 esol last cycle   -0.11368336
  
 Hartree-Fock exchange energy:   -559.067056013790     
 cosmo_calcen: 0.5 (esolb+esolc) (Hartrees) =   -0.113683

 Solvation energy (screening term,uncorrected) =    -71.337401 kcal/mol

 Solvation energy (dispersion and cavitation terms) =      1.157614 kcal/mol
 Solvation Energy Contributions (Hartrees)
          esola   esolb+esolc
     0.11368337   -0.22736675
 esol last cycle   -0.11368337

 Energy gradients wrt nuclear displacements
 ==========================================

     Atom      Cartesian (a.u./angstrom)
                 X         Y         Z
 ----------------------------------------
     1 Pa   -0.004110  0.001788 -0.001800
     2 O    -0.000966  0.001300 -0.001364
     3 H     0.000012 -0.001665  0.000433
     4 O     0.001837 -0.002595 -0.001258
     5 H     0.000669 -0.000830  0.000049
     6 O     0.000874  0.001785  0.001932
     7 H     0.000753  0.000597  0.000374
     8 O    -0.001709 -0.001753  0.001062
     9 H     0.000588  0.001477 -0.000066
    10 O     0.003289  0.000687  0.002987
    11 O     0.003993 -0.001636 -0.000782
    12 S    -0.004279  0.000622 -0.001191
    13 O    -0.000296  0.000790 -0.000654
    14 O    -0.000655 -0.000568  0.000281
 ----------------------------------------
 Mulliken charges used for AMS results%charges...

 dE(predicted):    -0.15651E-03, dE(actual):    -0.23270E-03, Trust radius:    0.400000, all in a.u.
 
----------------------------------------------------------------------
Geometry Convergence after Step   6       (Hartree/Angstrom,Angstrom)
----------------------------------------------------------------------
current energy                               -4.18184517 Hartree
energy change                      -0.00023270     0.00001400    F
constrained gradient max            0.00429341     0.00010000    F
constrained gradient rms            0.00171470     0.00006667    F
gradient max                        0.00429341
gradient rms                        0.00171470
cart. step max                      0.02935478     0.00100000    F
cart. step rms                      0.01003898     0.00066667    F
 
 
--------
Geometry
--------
Formula: H4O8PaS
Atoms
  Index Symbol   x (angstrom)   y (angstrom)   z (angstrom)
      1     Pa     0.40468470    -0.18865377    -0.29008606       adf.R=2.200
      2      O     1.01416086     1.39273451    -1.54668123       adf.R=1.517
      3      H     1.78635324     1.93672830    -1.74158212       adf.R=1.350
      4      O    -1.09834522     1.00779743     0.63814903       adf.R=1.517
      5      H    -1.38563086     1.90968595     0.45378323       adf.R=1.350
      6      O    -0.60591092    -1.09533888    -1.93819567       adf.R=1.517
      7      H    -1.12498065    -1.90748987    -1.97362016       adf.R=1.350
      8      O    -0.11653077    -1.79055573     0.98398406       adf.R=1.517
      9      H     0.29527329    -2.48303255     1.51434423       adf.R=1.350
     10      O     2.23605455     0.30620459     1.19348020       adf.R=1.517
     11      O     2.56638991    -1.21001229    -0.58093498       adf.R=1.517
     12      S     3.33668518    -0.58153683     0.59123767       adf.R=1.792
     13      O     4.43446485     0.23669298     0.09671296       adf.R=1.517
     14      O     3.73928867    -1.60764523     1.54220237       adf.R=1.517
 
Total System Charge            -1.00000
Bonding info available!
 
 *** GO1_GOStep7 ***

 SOLVATION
-------------------------------------------

  The Delley construction of COSMO surface surface is calculated

       Division Level for Surface Triangles (NDIV)                  3
       Final Division Level for Triangles (NFDIV)                   1
       Radius of the Solvent (RSOL)                           1.93000 angstr
  Dielectric Constant (EPSL)                                 78.39000

       COSMO equation is solved iteratively-               conjugate-gradient

       Maximun of Iterations for Charges (NCIX)                  1000
       Criterion for Charge convergence (CCNV)                1.0E-08

  COSMO charges included variationally in SCF

       COSMO included at every SCF cycle

  Geometry-dependent empirical factor                         0.00000

  C-Matrix calculated in cspmtx

  In cspmtx, C-Matrix calculated using fitted potential

-------------------------------------------



 -------------------------------------------
  COSMO surface
  Area             =          620.102
  Volume           =         1065.050
  Number of Points =         1674
 -------------------------------------------



 ======================
 RI Hartree-Fock Scheme
 ======================
  
 Fit Set Quality     : GOOD
 Threshold Quality   : GOOD
 Integration Quality : GOOD
 Response Quality    : DEFAULT
 Is Range Separated  :  F
 
 RIHartreeFock Dependency: number of modified vectors:           5
 cosmo_calcen: 0.5 (esolb+esolc) (Hartrees) =   -0.114425

 Solvation energy (screening term,uncorrected) =    -71.803004 kcal/mol

 Solvation energy (dispersion and cavitation terms) =      1.159542 kcal/mol
 Solvation Energy Contributions (Hartrees)
          esola   esolb+esolc
     0.11442536   -0.22885072
 esol last cycle   -0.11442536
  
 Hartree-Fock exchange energy:   -559.063131010762     
 cosmo_calcen: 0.5 (esolb+esolc) (Hartrees) =   -0.114425

 Solvation energy (screening term,uncorrected) =    -71.803009 kcal/mol

 Solvation energy (dispersion and cavitation terms) =      1.159542 kcal/mol
 Solvation Energy Contributions (Hartrees)
          esola   esolb+esolc
     0.11442537   -0.22885073
 esol last cycle   -0.11442537

 Energy gradients wrt nuclear displacements
 ==========================================

     Atom      Cartesian (a.u./angstrom)
                 X         Y         Z
 ----------------------------------------
     1 Pa   -0.007243  0.001771 -0.002558
     2 O    -0.000952  0.000807 -0.000209
     3 H     0.000111 -0.001301  0.000210
     4 O     0.001505 -0.001280 -0.001161
     5 H     0.000372 -0.000817  0.000100
     6 O     0.000488  0.000717  0.001805
     7 H     0.000530  0.000650  0.000128
     8 O    -0.000867 -0.001092 -0.000200
     9 H     0.000513  0.001154  0.000137
    10 O     0.001112  0.001761  0.003049
    11 O     0.002030 -0.002196 -0.002051
    12 S     0.004730 -0.000557  0.001572
    13 O    -0.001206  0.000229 -0.000421
    14 O    -0.001123  0.000154 -0.000402
 ----------------------------------------
 Mulliken charges used for AMS results%charges...

 dE(predicted):    -0.10211E-03, dE(actual):    -0.16336E-03, Trust radius:    0.400000, all in a.u.
 
----------------------------------------------------------------------
Geometry Convergence after Step   7       (Hartree/Angstrom,Angstrom)
----------------------------------------------------------------------
current energy                               -4.18200853 Hartree
energy change                      -0.00016336     0.00001400    F
constrained gradient max            0.00723854     0.00010000    F
constrained gradient rms            0.00179236     0.00006667    F
gradient max                        0.00723854
gradient rms                        0.00179236
cart. step max                      0.01950510     0.00100000    F
cart. step rms                      0.00645729     0.00066667    F
 
 
--------
Geometry
--------
Formula: H4O8PaS
Atoms
  Index Symbol   x (angstrom)   y (angstrom)   z (angstrom)
      1     Pa     0.40462693    -0.18934151    -0.28922902       adf.R=2.200
      2      O     1.01725174     1.39187715    -1.54202167       adf.R=1.517
      3      H     1.77428728     1.95623340    -1.73909780       adf.R=1.350
      4      O    -1.09534761     1.01747928     0.63673658       adf.R=1.517
      5      H    -1.38653116     1.91747817     0.44826253       adf.R=1.350
      6      O    -0.60451621    -1.10514875    -1.93589236       adf.R=1.517
      7      H    -1.12836876    -1.91446150    -1.97158838       adf.R=1.350
      8      O    -0.11342187    -1.79002480     0.98383726       adf.R=1.517
      9      H     0.28031031    -2.49912750     1.50609406       adf.R=1.350
     10      O     2.24004217     0.30839854     1.18936210       adf.R=1.517
     11      O     2.56613076    -1.21401616    -0.57552657       adf.R=1.517
     12      S     3.34129971    -0.58221145     0.59186121       adf.R=1.792
     13      O     4.44013250     0.23197269     0.09292360       adf.R=1.517
     14      O     3.74606103    -1.60352893     1.54707199       adf.R=1.517
 
Total System Charge            -1.00000
Bonding info available!
 
 *** GO1_GOStep8 ***

 SOLVATION
-------------------------------------------

  The Delley construction of COSMO surface surface is calculated

       Division Level for Surface Triangles (NDIV)                  3
       Final Division Level for Triangles (NFDIV)                   1
       Radius of the Solvent (RSOL)                           1.93000 angstr
  Dielectric Constant (EPSL)                                 78.39000

       COSMO equation is solved iteratively-               conjugate-gradient

       Maximun of Iterations for Charges (NCIX)                  1000
       Criterion for Charge convergence (CCNV)                1.0E-08

  COSMO charges included variationally in SCF

       COSMO included at every SCF cycle

  Geometry-dependent empirical factor                         0.00000

  C-Matrix calculated in cspmtx

  In cspmtx, C-Matrix calculated using fitted potential

-------------------------------------------



 -------------------------------------------
  COSMO surface
  Area             =          620.774
  Volume           =         1065.039
  Number of Points =         1675
 -------------------------------------------



 ======================
 RI Hartree-Fock Scheme
 ======================
  
 Fit Set Quality     : GOOD
 Threshold Quality   : GOOD
 Integration Quality : GOOD
 Response Quality    : DEFAULT
 Is Range Separated  :  F
 
 RIHartreeFock Dependency: number of modified vectors:           5
 cosmo_calcen: 0.5 (esolb+esolc) (Hartrees) =   -0.114801

 Solvation energy (screening term,uncorrected) =    -72.038952 kcal/mol

 Solvation energy (dispersion and cavitation terms) =      1.160799 kcal/mol
 Solvation Energy Contributions (Hartrees)
          esola   esolb+esolc
     0.11480137   -0.22960273
 esol last cycle   -0.11480137
  
 Hartree-Fock exchange energy:   -559.060616822722     
 cosmo_calcen: 0.5 (esolb+esolc) (Hartrees) =   -0.114801

 Solvation energy (screening term,uncorrected) =    -72.038959 kcal/mol

 Solvation energy (dispersion and cavitation terms) =      1.160799 kcal/mol
 Solvation Energy Contributions (Hartrees)
          esola   esolb+esolc
     0.11480138   -0.22960275
 esol last cycle   -0.11480138

 Energy gradients wrt nuclear displacements
 ==========================================

     Atom      Cartesian (a.u./angstrom)
                 X         Y         Z
 ----------------------------------------
     1 Pa   -0.007065  0.001194 -0.002365
     2 O    -0.000991  0.000860  0.000289
     3 H     0.000411 -0.000878  0.000003
     4 O     0.000824 -0.000325 -0.000692
     5 H    -0.000002 -0.000313  0.000077
     6 O     0.000095  0.000105  0.001151
     7 H     0.000109  0.000214 -0.000059
     8 O    -0.000551 -0.000852 -0.000863
     9 H     0.000571  0.000736  0.000386
    10 O     0.000370  0.001310  0.001884
    11 O     0.000915 -0.001450 -0.001416
    12 S     0.006628 -0.000900  0.002097
    13 O    -0.000769 -0.000051 -0.000083
    14 O    -0.000547  0.000349 -0.000408
 ----------------------------------------
 Mulliken charges used for AMS results%charges...

 dE(predicted):    -0.43116E-04, dE(actual):    -0.88246E-04, Trust radius:    0.400000, all in a.u.
 
----------------------------------------------------------------------
Geometry Convergence after Step   8       (Hartree/Angstrom,Angstrom)
----------------------------------------------------------------------
current energy                               -4.18209677 Hartree
energy change                      -0.00008825     0.00001400    F
constrained gradient max            0.00706060     0.00010000    F
constrained gradient rms            0.00173125     0.00006667    F
gradient max                        0.00706060
gradient rms                        0.00173125
cart. step max                      0.01750785     0.00100000    F
cart. step rms                      0.00557668     0.00066667    F
 
 
--------
Geometry
--------
Formula: H4O8PaS
Atoms
  Index Symbol   x (angstrom)   y (angstrom)   z (angstrom)
      1     Pa     0.40573920    -0.19024768    -0.28796896       adf.R=2.200
      2      O     1.02103601     1.39028424    -1.53898926       adf.R=1.517
      3      H     1.76349327     1.97374124    -1.73649559       adf.R=1.350
      4      O    -1.09244569     1.02501372     0.63663132       adf.R=1.517
      5      H    -1.38566550     1.92395067     0.44524758       adf.R=1.350
      6      O    -0.60134824    -1.11337348    -1.93489419       adf.R=1.517
      7      H    -1.12782651    -1.92123106    -1.97049198       adf.R=1.350
      8      O    -0.11125086    -1.78829637     0.98636784       adf.R=1.517
      9      H     0.26595380    -2.51293413     1.49964041       adf.R=1.350
     10      O     2.24260429     0.31036630     1.18506559       adf.R=1.517
     11      O     2.56473997    -1.21727662    -0.57135123       adf.R=1.517
     12      S     3.34309843    -0.58250279     0.59126772       adf.R=1.792
     13      O     4.44343036     0.22784087     0.08863850       adf.R=1.517
     14      O     3.75039827    -1.59975631     1.55012578       adf.R=1.517
 
Total System Charge            -1.00000
Bonding info available!
 
 *** GO1_GOStep9 ***

 SOLVATION
-------------------------------------------

  The Delley construction of COSMO surface surface is calculated

       Division Level for Surface Triangles (NDIV)                  3
       Final Division Level for Triangles (NFDIV)                   1
       Radius of the Solvent (RSOL)                           1.93000 angstr
  Dielectric Constant (EPSL)                                 78.39000

       COSMO equation is solved iteratively-               conjugate-gradient

       Maximun of Iterations for Charges (NCIX)                  1000
       Criterion for Charge convergence (CCNV)                1.0E-08

  COSMO charges included variationally in SCF

       COSMO included at every SCF cycle

  Geometry-dependent empirical factor                         0.00000

  C-Matrix calculated in cspmtx

  In cspmtx, C-Matrix calculated using fitted potential

-------------------------------------------



 -------------------------------------------
  COSMO surface
  Area             =          620.427
  Volume           =         1063.795
  Number of Points =         1679
 -------------------------------------------



 ======================
 RI Hartree-Fock Scheme
 ======================
  
 Fit Set Quality     : GOOD
 Threshold Quality   : GOOD
 Integration Quality : GOOD
 Response Quality    : DEFAULT
 Is Range Separated  :  F
 
 RIHartreeFock Dependency: number of modified vectors:           5
 cosmo_calcen: 0.5 (esolb+esolc) (Hartrees) =   -0.115103

 Solvation energy (screening term,uncorrected) =    -72.228004 kcal/mol

 Solvation energy (dispersion and cavitation terms) =      1.160150 kcal/mol
 Solvation Energy Contributions (Hartrees)
          esola   esolb+esolc
     0.11510264   -0.23020528
 esol last cycle   -0.11510264
  
 Hartree-Fock exchange energy:   -559.059342501361     
 cosmo_calcen: 0.5 (esolb+esolc) (Hartrees) =   -0.115103

 Solvation energy (screening term,uncorrected) =    -72.228010 kcal/mol

 Solvation energy (dispersion and cavitation terms) =      1.160150 kcal/mol
 Solvation Energy Contributions (Hartrees)
          esola   esolb+esolc
     0.11510265   -0.23020530
 esol last cycle   -0.11510265

 Energy gradients wrt nuclear displacements
 ==========================================

     Atom      Cartesian (a.u./angstrom)
                 X         Y         Z
 ----------------------------------------
     1 Pa   -0.005440  0.000398 -0.001784
     2 O    -0.000936  0.001045  0.000497
     3 H     0.000675 -0.000479 -0.000186
     4 O     0.000030  0.000512 -0.000130
     5 H    -0.000324  0.000155  0.000067
     6 O    -0.000299 -0.000411  0.000353
     7 H    -0.000242 -0.000175 -0.000204
     8 O    -0.000436 -0.000700 -0.001224
     9 H     0.000618  0.000330  0.000622
    10 O     0.000364  0.000344  0.000508
    11 O     0.000473 -0.000376 -0.000102
    12 S     0.005195 -0.000693  0.001580
    13 O     0.000061 -0.000205  0.000189
    14 O     0.000260  0.000257 -0.000185
 ----------------------------------------
 Mulliken charges used for AMS results%charges...

 dE(predicted):    -0.32805E-04, dE(actual):    -0.71360E-04, Trust radius:    0.400000, all in a.u.
 
----------------------------------------------------------------------
Geometry Convergence after Step   9       (Hartree/Angstrom,Angstrom)
----------------------------------------------------------------------
current energy                               -4.18216813 Hartree
energy change                      -0.00007136     0.00001400    F
constrained gradient max            0.00543607     0.00010000    F
constrained gradient rms            0.00129948     0.00006667    F
gradient max                        0.00543607
gradient rms                        0.00129948
cart. step max                      0.02257997     0.00100000    F
cart. step rms                      0.00746434     0.00066667    F
 
 
--------
Geometry
--------
Formula: H4O8PaS
Atoms
  Index Symbol   x (angstrom)   y (angstrom)   z (angstrom)
      1     Pa     0.40870603    -0.19162072    -0.28551848       adf.R=2.200
      2      O     1.02678695     1.38610854    -1.53698517       adf.R=1.517
      3      H     1.74727103     1.99632121    -1.73509050       adf.R=1.350
      4      O    -1.08752106     1.03232262     0.63866322       adf.R=1.517
      5      H    -1.38183450     1.93046553     0.44447278       adf.R=1.350
      6      O    -0.59371265    -1.12214597    -1.93479344       adf.R=1.517
      7      H    -1.12175818    -1.92917343    -1.97051862       adf.R=1.350
      8      O    -0.10913526    -1.78384890     0.99300386       adf.R=1.517
      9      H     0.24343476    -2.53007523     1.49268862       adf.R=1.350
     10      O     2.24536329     0.31340525     1.17995900       adf.R=1.517
     11      O     2.56233502    -1.22183851    -0.56721281       adf.R=1.517
     12      S     3.34342373    -0.58265492     0.58948704       adf.R=1.792
     13      O     4.44508933     0.22328595     0.08172116       adf.R=1.517
     14      O     3.75350834    -1.59497280     1.55291687       adf.R=1.517
 
Total System Charge            -1.00000
Bonding info available!
 
 *** GO1_GOStep10 ***

 SOLVATION
-------------------------------------------

  The Delley construction of COSMO surface surface is calculated

       Division Level for Surface Triangles (NDIV)                  3
       Final Division Level for Triangles (NFDIV)                   1
       Radius of the Solvent (RSOL)                           1.93000 angstr
  Dielectric Constant (EPSL)                                 78.39000

       COSMO equation is solved iteratively-               conjugate-gradient

       Maximun of Iterations for Charges (NCIX)                  1000
       Criterion for Charge convergence (CCNV)                1.0E-08

  COSMO charges included variationally in SCF

       COSMO included at every SCF cycle

  Geometry-dependent empirical factor                         0.00000

  C-Matrix calculated in cspmtx

  In cspmtx, C-Matrix calculated using fitted potential

-------------------------------------------



 -------------------------------------------
  COSMO surface
  Area             =          620.921
  Volume           =         1063.303
  Number of Points =         1675
 -------------------------------------------



 ======================
 RI Hartree-Fock Scheme
 ======================
  
 Fit Set Quality     : GOOD
 Threshold Quality   : GOOD
 Integration Quality : GOOD
 Response Quality    : DEFAULT
 Is Range Separated  :  F
 
 RIHartreeFock Dependency: number of modified vectors:           5
 cosmo_calcen: 0.5 (esolb+esolc) (Hartrees) =   -0.115509

 Solvation energy (screening term,uncorrected) =    -72.482916 kcal/mol

 Solvation energy (dispersion and cavitation terms) =      1.161074 kcal/mol
 Solvation Energy Contributions (Hartrees)
          esola   esolb+esolc
     0.11550887   -0.23101773
 esol last cycle   -0.11550887
  
 Hartree-Fock exchange energy:   -559.059131764664     
 cosmo_calcen: 0.5 (esolb+esolc) (Hartrees) =   -0.115509

 Solvation energy (screening term,uncorrected) =    -72.482917 kcal/mol

 Solvation energy (dispersion and cavitation terms) =      1.161074 kcal/mol
 Solvation Energy Contributions (Hartrees)
          esola   esolb+esolc
     0.11550887   -0.23101774
 esol last cycle   -0.11550887

 Energy gradients wrt nuclear displacements
 ==========================================

     Atom      Cartesian (a.u./angstrom)
                 X         Y         Z
 ----------------------------------------
     1 Pa   -0.002489 -0.000683 -0.000789
     2 O    -0.000707  0.001142  0.000638
     3 H     0.000817 -0.000129 -0.000397
     4 O    -0.000856  0.001337  0.000476
     5 H    -0.000609  0.000541  0.000080
     6 O    -0.000756 -0.000855 -0.000645
     7 H    -0.000527 -0.000482 -0.000328
     8 O    -0.000214 -0.000578 -0.001344
     9 H     0.000538  0.000048  0.000802
    10 O     0.000726 -0.000747 -0.000828
    11 O     0.000364  0.000781  0.001359
    12 S     0.001708 -0.000195  0.000359
    13 O     0.000945 -0.000222  0.000425
    14 O     0.001058  0.000042  0.000192
 ----------------------------------------
 Mulliken charges used for AMS results%charges...

 dE(predicted):    -0.41940E-04, dE(actual):    -0.87965E-04, Trust radius:    0.400000, all in a.u.
 
----------------------------------------------------------------------
Geometry Convergence after Step  10       (Hartree/Angstrom,Angstrom)
----------------------------------------------------------------------
current energy                               -4.18225610 Hartree
energy change                      -0.00008797     0.00001400    F
constrained gradient max            0.00248638     0.00010000    F
constrained gradient rms            0.00082977     0.00006667    F
gradient max                        0.00248638
gradient rms                        0.00082977
cart. step max                      0.03989134     0.00100000    F
cart. step rms                      0.01160873     0.00066667    F
 
 
--------
Geometry
--------
Formula: H4O8PaS
Atoms
  Index Symbol   x (angstrom)   y (angstrom)   z (angstrom)
      1     Pa     0.41453361    -0.19319784    -0.28109701       adf.R=2.200
      2      O     1.03456516     1.37826628    -1.53619207       adf.R=1.517
      3      H     1.71864039     2.02742988    -1.73844217       adf.R=1.350
      4      O    -1.07853943     1.03903837     0.64445037       adf.R=1.517
      5      H    -1.37295352     1.93651460     0.44737846       adf.R=1.350
      6      O    -0.57788106    -1.13174647    -1.93523844       adf.R=1.517
      7      H    -1.10618294    -1.93860437    -1.97168694       adf.R=1.350
      8      O    -0.10737654    -1.77524777     1.00442558       adf.R=1.517
      9      H     0.20354341    -2.55226711     1.48409570       adf.R=1.350
     10      O     2.24967507     0.31836554     1.17459044       adf.R=1.517
     11      O     2.55951907    -1.22886282    -0.56273760       adf.R=1.517
     12      S     3.34331529    -0.58284386     0.58671810       adf.R=1.792
     13      O     4.44534408     0.21780759     0.07064382       adf.R=1.517
     14      O     3.75575420    -1.58907339     1.55588529       adf.R=1.517
 
Total System Charge            -1.00000
Bonding info available!
 
 *** GO1_GOStep11 ***

 SOLVATION
-------------------------------------------

  The Delley construction of COSMO surface surface is calculated

       Division Level for Surface Triangles (NDIV)                  3
       Final Division Level for Triangles (NFDIV)                   1
       Radius of the Solvent (RSOL)                           1.93000 angstr
  Dielectric Constant (EPSL)                                 78.39000

       COSMO equation is solved iteratively-               conjugate-gradient

       Maximun of Iterations for Charges (NCIX)                  1000
       Criterion for Charge convergence (CCNV)                1.0E-08

  COSMO charges included variationally in SCF

       COSMO included at every SCF cycle

  Geometry-dependent empirical factor                         0.00000

  C-Matrix calculated in cspmtx

  In cspmtx, C-Matrix calculated using fitted potential

-------------------------------------------



 -------------------------------------------
  COSMO surface
  Area             =          619.928
  Volume           =         1060.049
  Number of Points =         1671
 -------------------------------------------



 ======================
 RI Hartree-Fock Scheme
 ======================
  
 Fit Set Quality     : GOOD
 Threshold Quality   : GOOD
 Integration Quality : GOOD
 Response Quality    : DEFAULT
 Is Range Separated  :  F
 
 RIHartreeFock Dependency: number of modified vectors:           5
 cosmo_calcen: 0.5 (esolb+esolc) (Hartrees) =   -0.116169

 Solvation energy (screening term,uncorrected) =    -72.896885 kcal/mol

 Solvation energy (dispersion and cavitation terms) =      1.159217 kcal/mol
 Solvation Energy Contributions (Hartrees)
          esola   esolb+esolc
     0.11616857   -0.23233714
 esol last cycle   -0.11616857
  
 Hartree-Fock exchange energy:   -559.060505584064     
 cosmo_calcen: 0.5 (esolb+esolc) (Hartrees) =   -0.116169

 Solvation energy (screening term,uncorrected) =    -72.896889 kcal/mol

 Solvation energy (dispersion and cavitation terms) =      1.159217 kcal/mol
 Solvation Energy Contributions (Hartrees)
          esola   esolb+esolc
     0.11616858   -0.23233715
 esol last cycle   -0.11616858

 Energy gradients wrt nuclear displacements
 ==========================================

     Atom      Cartesian (a.u./angstrom)
                 X         Y         Z
 ----------------------------------------
     1 Pa    0.001312 -0.001896  0.000460
     2 O    -0.000266  0.001016  0.000802
     3 H     0.000680  0.000086 -0.000609
     4 O    -0.001581  0.001984  0.001046
     5 H    -0.000760  0.000611  0.000142
     6 O    -0.001053 -0.001118 -0.001514
     7 H    -0.000630 -0.000553 -0.000387
     8 O     0.000185 -0.000224 -0.001359
     9 H     0.000303 -0.000111  0.000899
    10 O     0.001033 -0.001412 -0.001749
    11 O     0.000460  0.001533  0.002287
    12 S    -0.002581  0.000379 -0.000870
    13 O     0.001483 -0.000104  0.000397
    14 O     0.001414 -0.000192  0.000454
 ----------------------------------------
 Mulliken charges used for AMS results%charges...

 dE(predicted):    -0.55164E-04, dE(actual):    -0.11033E-03, Trust radius:    0.400000, all in a.u.
 
----------------------------------------------------------------------
Geometry Convergence after Step  11       (Hartree/Angstrom,Angstrom)
----------------------------------------------------------------------
current energy                               -4.18236643 Hartree
energy change                      -0.00011033     0.00001400    F
constrained gradient max            0.00258792     0.00010000    F
constrained gradient rms            0.00110224     0.00006667    F
gradient max                        0.00258792
gradient rms                        0.00110224
cart. step max                      0.03627870     0.00100000    F
cart. step rms                      0.00984150     0.00066667    F
 
 
--------
Geometry
--------
Formula: H4O8PaS
Atoms
  Index Symbol   x (angstrom)   y (angstrom)   z (angstrom)
      1     Pa     0.41997182    -0.19368431    -0.27693033       adf.R=2.200
      2      O     1.03896039     1.37122599    -1.53754024       adf.R=1.517
      3      H     1.69216999     2.04918461    -1.74555718       adf.R=1.350
      4      O    -1.07007590     1.04105139     0.65059702       adf.R=1.517
      5      H    -1.36250310     1.93861297     0.45181017       adf.R=1.350
      6      O    -0.56225118    -1.13631581    -1.93506849       adf.R=1.517
      7      H    -1.08881062    -1.94409859    -1.97180369       adf.R=1.350
      8      O    -0.10782548    -1.76756364     1.01356509       adf.R=1.517
      9      H     0.16726472    -2.56698053     1.47743467       adf.R=1.350
     10      O     2.25327354     0.32202140     1.17303493       adf.R=1.517
     11      O     2.55810903    -1.23416790    -0.56072760       adf.R=1.517
     12      S     3.34343900    -0.58303219     0.58475126       adf.R=1.792
     13      O     4.44400030     0.21513867     0.06206855       adf.R=1.517
     14      O     3.75623428    -1.58581345     1.55715938       adf.R=1.517
 
Total System Charge            -1.00000
Bonding info available!
 
 *** GO1_GOStep12 ***

 SOLVATION
-------------------------------------------

  The Delley construction of COSMO surface surface is calculated

       Division Level for Surface Triangles (NDIV)                  3
       Final Division Level for Triangles (NFDIV)                   1
       Radius of the Solvent (RSOL)                           1.93000 angstr
  Dielectric Constant (EPSL)                                 78.39000

       COSMO equation is solved iteratively-               conjugate-gradient

       Maximun of Iterations for Charges (NCIX)                  1000
       Criterion for Charge convergence (CCNV)                1.0E-08

  COSMO charges included variationally in SCF

       COSMO included at every SCF cycle

  Geometry-dependent empirical factor                         0.00000

  C-Matrix calculated in cspmtx

  In cspmtx, C-Matrix calculated using fitted potential

-------------------------------------------



 -------------------------------------------
  COSMO surface
  Area             =          619.581
  Volume           =         1058.370
  Number of Points =         1670
 -------------------------------------------



 ======================
 RI Hartree-Fock Scheme
 ======================
  
 Fit Set Quality     : GOOD
 Threshold Quality   : GOOD
 Integration Quality : GOOD
 Response Quality    : DEFAULT
 Is Range Separated  :  F
 
 RIHartreeFock Dependency: number of modified vectors:           5
 cosmo_calcen: 0.5 (esolb+esolc) (Hartrees) =   -0.116702

 Solvation energy (screening term,uncorrected) =    -73.231708 kcal/mol

 Solvation energy (dispersion and cavitation terms) =      1.158569 kcal/mol
 Solvation Energy Contributions (Hartrees)
          esola   esolb+esolc
     0.11670214   -0.23340428
 esol last cycle   -0.11670214
  
 Hartree-Fock exchange energy:   -559.062936615434     
 cosmo_calcen: 0.5 (esolb+esolc) (Hartrees) =   -0.116702

 Solvation energy (screening term,uncorrected) =    -73.231708 kcal/mol

 Solvation energy (dispersion and cavitation terms) =      1.158569 kcal/mol
 Solvation Energy Contributions (Hartrees)
          esola   esolb+esolc
     0.11670214   -0.23340429
 esol last cycle   -0.11670214

 Energy gradients wrt nuclear displacements
 ==========================================

     Atom      Cartesian (a.u./angstrom)
                 X         Y         Z
 ----------------------------------------
     1 Pa    0.003305 -0.002220  0.000954
     2 O     0.000048  0.000656  0.001007
     3 H     0.000328 -0.000060 -0.000679
     4 O    -0.001420  0.001772  0.001026
     5 H    -0.000641  0.000275  0.000198
     6 O    -0.000876 -0.000905 -0.001491
     7 H    -0.000446 -0.000281 -0.000302
     8 O     0.000586  0.000085 -0.001273
     9 H     0.000014  0.000055  0.000821
    10 O     0.000788 -0.001026 -0.001369
    11 O     0.000365  0.001183  0.001739
    12 S    -0.004047  0.000657 -0.001259
    13 O     0.001075  0.000034  0.000183
    14 O     0.000921 -0.000226  0.000445
 ----------------------------------------
 Mulliken charges used for AMS results%charges...

 dE(predicted):    -0.38130E-04, dE(actual):    -0.64907E-04, Trust radius:    0.400000, all in a.u.
 
----------------------------------------------------------------------
Geometry Convergence after Step  12       (Hartree/Angstrom,Angstrom)
----------------------------------------------------------------------
current energy                               -4.18243133 Hartree
energy change                      -0.00006491     0.00001400    F
constrained gradient max            0.00405371     0.00010000    F
constrained gradient rms            0.00120618     0.00006667    F
gradient max                        0.00405371
gradient rms                        0.00120618
cart. step max                      0.02526725     0.00100000    F
cart. step rms                      0.00693928     0.00066667    F
 
 
--------
Geometry
--------
Formula: H4O8PaS
Atoms
  Index Symbol   x (angstrom)   y (angstrom)   z (angstrom)
      1     Pa     0.42350788    -0.19292620    -0.27361138       adf.R=2.200
      2      O     1.03916114     1.36658552    -1.54047818       adf.R=1.517
      3      H     1.67259732     2.06161273    -1.75191239       adf.R=1.350
      4      O    -1.06387010     1.04098403     0.65455322       adf.R=1.517
      5      H    -1.35235243     1.93926782     0.45417752       adf.R=1.350
      6      O    -0.55096898    -1.13759224    -1.93308116       adf.R=1.517
      7      H    -1.07437117    -1.94721007    -1.96879190       adf.R=1.350
      8      O    -0.11068528    -1.76262546     1.01864971       adf.R=1.517
      9      H     0.14199747    -2.57579785     1.47062109       adf.R=1.350
     10      O     2.25585672     0.32385156     1.17437194       adf.R=1.517
     11      O     2.55778275    -1.23686165    -0.56024042       adf.R=1.517
     12      S     3.34427500    -0.58325517     0.58407142       adf.R=1.792
     13      O     4.44261000     0.21467766     0.05731679       adf.R=1.517
     14      O     3.75641649    -1.58513206     1.55714728       adf.R=1.517
 
Total System Charge            -1.00000
Bonding info available!
 
 *** GO1_GOStep13 ***

 SOLVATION
-------------------------------------------

  The Delley construction of COSMO surface surface is calculated

       Division Level for Surface Triangles (NDIV)                  3
       Final Division Level for Triangles (NFDIV)                   1
       Radius of the Solvent (RSOL)                           1.93000 angstr
  Dielectric Constant (EPSL)                                 78.39000

       COSMO equation is solved iteratively-               conjugate-gradient

       Maximun of Iterations for Charges (NCIX)                  1000
       Criterion for Charge convergence (CCNV)                1.0E-08

  COSMO charges included variationally in SCF

       COSMO included at every SCF cycle

  Geometry-dependent empirical factor                         0.00000

  C-Matrix calculated in cspmtx

  In cspmtx, C-Matrix calculated using fitted potential

-------------------------------------------



 -------------------------------------------
  COSMO surface
  Area             =          618.600
  Volume           =         1056.063
  Number of Points =         1671
 -------------------------------------------



 ======================
 RI Hartree-Fock Scheme
 ======================
  
 Fit Set Quality     : GOOD
 Threshold Quality   : GOOD
 Integration Quality : GOOD
 Response Quality    : DEFAULT
 Is Range Separated  :  F
 
 RIHartreeFock Dependency: number of modified vectors:           5
 cosmo_calcen: 0.5 (esolb+esolc) (Hartrees) =   -0.117029

 Solvation energy (screening term,uncorrected) =    -73.436780 kcal/mol

 Solvation energy (dispersion and cavitation terms) =      1.156734 kcal/mol
 Solvation Energy Contributions (Hartrees)
          esola   esolb+esolc
     0.11702895   -0.23405789
 esol last cycle   -0.11702895
  
 Hartree-Fock exchange energy:   -559.065236640766     
 cosmo_calcen: 0.5 (esolb+esolc) (Hartrees) =   -0.117029

 Solvation energy (screening term,uncorrected) =    -73.436780 kcal/mol

 Solvation energy (dispersion and cavitation terms) =      1.156734 kcal/mol
 Solvation Energy Contributions (Hartrees)
          esola   esolb+esolc
     0.11702895   -0.23405789
 esol last cycle   -0.11702895

 Energy gradients wrt nuclear displacements
 ==========================================

     Atom      Cartesian (a.u./angstrom)
                 X         Y         Z
 ----------------------------------------
     1 Pa    0.003263 -0.001651  0.000755
     2 O     0.000137  0.000185  0.001165
     3 H     0.000027 -0.000308 -0.000644
     4 O    -0.000593  0.000933  0.000563
     5 H    -0.000376 -0.000160  0.000183
     6 O    -0.000389 -0.000402 -0.000732
     7 H    -0.000158  0.000093 -0.000162
     8 O     0.000754  0.000180 -0.001224
     9 H    -0.000194  0.000307  0.000733
    10 O     0.000124 -0.000121 -0.000437
    11 O     0.000021  0.000355  0.000515
    12 S    -0.002907  0.000580 -0.000831
    13 O     0.000212  0.000085 -0.000058
    14 O     0.000081 -0.000075  0.000174
 ----------------------------------------
 Mulliken charges used for AMS results%charges...

 dE(predicted):    -0.24308E-04, dE(actual):    -0.35135E-04, Trust radius:    0.400000, all in a.u.
 
----------------------------------------------------------------------
Geometry Convergence after Step  13       (Hartree/Angstrom,Angstrom)
----------------------------------------------------------------------
current energy                               -4.18246647 Hartree
energy change                      -0.00003513     0.00001400    F
constrained gradient max            0.00326424     0.00010000    F
constrained gradient rms            0.00086527     0.00006667    F
gradient max                        0.00326424
gradient rms                        0.00086527
cart. step max                      0.01321338     0.00100000    F
cart. step rms                      0.00440614     0.00066667    F
 
 
--------
Geometry
--------
Formula: H4O8PaS
Atoms
  Index Symbol   x (angstrom)   y (angstrom)   z (angstrom)
      1     Pa     0.42497483    -0.19149755    -0.27133396       adf.R=2.200
      2      O     1.03659771     1.36486900    -1.54356194       adf.R=1.517
      3      H     1.66023967     2.06876915    -1.75415009       adf.R=1.350
      4      O    -1.06045646     1.04180870     0.65534407       adf.R=1.517
      5      H    -1.34401231     1.94113482     0.45293723       adf.R=1.350
      6      O    -0.54519090    -1.13854994    -1.92965252       adf.R=1.517
      7      H    -1.06494208    -1.95047874    -1.96293218       adf.R=1.350
      8      O    -0.11451353    -1.76039702     1.02057520       adf.R=1.517
      9      H     0.12878409    -2.58167098     1.46257555       adf.R=1.350
     10      O     2.25756401     0.32402425     1.17635753       adf.R=1.517
     11      O     2.55771432    -1.23748572    -0.56010843       adf.R=1.517
     12      S     3.34560568    -0.58373366     0.58425147       adf.R=1.792
     13      O     4.44232011     0.21477771     0.05581217       adf.R=1.517
     14      O     3.75727167    -1.58599141     1.55667942       adf.R=1.517
 
Total System Charge            -1.00000
Bonding info available!
 
 *** GO1_GOStep14 ***

 SOLVATION
-------------------------------------------

  The Delley construction of COSMO surface surface is calculated

       Division Level for Surface Triangles (NDIV)                  3
       Final Division Level for Triangles (NFDIV)                   1
       Radius of the Solvent (RSOL)                           1.93000 angstr
  Dielectric Constant (EPSL)                                 78.39000

       COSMO equation is solved iteratively-               conjugate-gradient

       Maximun of Iterations for Charges (NCIX)                  1000
       Criterion for Charge convergence (CCNV)                1.0E-08

  COSMO charges included variationally in SCF

       COSMO included at every SCF cycle

  Geometry-dependent empirical factor                         0.00000

  C-Matrix calculated in cspmtx

  In cspmtx, C-Matrix calculated using fitted potential

-------------------------------------------



 -------------------------------------------
  COSMO surface
  Area             =          617.963
  Volume           =         1054.869
  Number of Points =         1669
 -------------------------------------------



 ======================
 RI Hartree-Fock Scheme
 ======================
  
 Fit Set Quality     : GOOD
 Threshold Quality   : GOOD
 Integration Quality : GOOD
 Response Quality    : DEFAULT
 Is Range Separated  :  F
 
 RIHartreeFock Dependency: number of modified vectors:           5
 cosmo_calcen: 0.5 (esolb+esolc) (Hartrees) =   -0.117172

 Solvation energy (screening term,uncorrected) =    -73.526379 kcal/mol

 Solvation energy (dispersion and cavitation terms) =      1.155542 kcal/mol
 Solvation Energy Contributions (Hartrees)
          esola   esolb+esolc
     0.11717173   -0.23434346
 esol last cycle   -0.11717173
  
 Hartree-Fock exchange energy:   -559.066427879375     
 cosmo_calcen: 0.5 (esolb+esolc) (Hartrees) =   -0.117172

 Solvation energy (screening term,uncorrected) =    -73.526382 kcal/mol

 Solvation energy (dispersion and cavitation terms) =      1.155542 kcal/mol
 Solvation Energy Contributions (Hartrees)
          esola   esolb+esolc
     0.11717174   -0.23434347
 esol last cycle   -0.11717174

 Energy gradients wrt nuclear displacements
 ==========================================

     Atom      Cartesian (a.u./angstrom)
                 X         Y         Z
 ----------------------------------------
     1 Pa    0.002277 -0.000839  0.000332
     2 O     0.000059 -0.000053  0.001212
     3 H    -0.000103 -0.000458 -0.000618
     4 O     0.000289  0.000064  0.000048
     5 H    -0.000159 -0.000392  0.000105
     6 O     0.000072  0.000063  0.000099
     7 H     0.000032  0.000304 -0.000038
     8 O     0.000731 -0.000032 -0.001155
     9 H    -0.000303  0.000497  0.000678
    10 O    -0.000525  0.000542  0.000172
    11 O    -0.000468 -0.000191 -0.000411
    12 S    -0.001004  0.000314 -0.000208
    13 O    -0.000434  0.000099 -0.000169
    14 O    -0.000464  0.000083 -0.000047
 ----------------------------------------
 Mulliken charges used for AMS results%charges...

 dE(predicted):    -0.14024E-04, dE(actual):    -0.18020E-04, Trust radius:    0.400000, all in a.u.
 
----------------------------------------------------------------------
Geometry Convergence after Step  14       (Hartree/Angstrom,Angstrom)
----------------------------------------------------------------------
current energy                               -4.18248449 Hartree
energy change                      -0.00001802     0.00001400    F
constrained gradient max            0.00227784     0.00010000    F
constrained gradient rms            0.00057207     0.00006667    F
gradient max                        0.00227784
gradient rms                        0.00057207
cart. step max                      0.01719999     0.00100000    F
cart. step rms                      0.00645984     0.00066667    F
 
 
--------
Geometry
--------
Formula: H4O8PaS
Atoms
  Index Symbol   x (angstrom)   y (angstrom)   z (angstrom)
      1     Pa     0.42619924    -0.18906592    -0.26813036       adf.R=2.200
      2      O     1.03182543     1.36402307    -1.54766835       adf.R=1.517
      3      H     1.64303969     2.08005389    -1.75340028       adf.R=1.350
      4      O    -1.05692249     1.04552627     0.65443793       adf.R=1.517
      5      H    -1.33209831     1.94663433     0.44826670       adf.R=1.350
      6      O    -0.53889993    -1.14197796    -1.92355001       adf.R=1.517
      7      H    -1.05242361    -1.95798352    -1.95208458       adf.R=1.350
      8      O    -0.12052814    -1.75786215     1.02291189       adf.R=1.517
      9      H     0.11314219    -2.59077009     1.44773044       adf.R=1.350
     10      O     2.26017222     0.32335942     1.17874341       adf.R=1.517
     11      O     2.55733680    -1.23772886    -0.55940301       adf.R=1.517
     12      S     3.34800103    -0.58484001     0.58462939       adf.R=1.792
     13      O     4.44328666     0.21402630     0.05451330       adf.R=1.517
     14      O     3.75982602    -1.58781616     1.55579706       adf.R=1.517
 
Total System Charge            -1.00000
Bonding info available!
 
 *** GO1_GOStep15 ***

 SOLVATION
-------------------------------------------

  The Delley construction of COSMO surface surface is calculated

       Division Level for Surface Triangles (NDIV)                  3
       Final Division Level for Triangles (NFDIV)                   1
       Radius of the Solvent (RSOL)                           1.93000 angstr
[...]
 
 Mode:    25      Frequency (cm-1):      377.7362     Intensity (km/mol):      299.7194
 Index  Atom      ---- Displacements (x/y/z) ----
     1    Pa       0.002454  -0.000792  -0.002941
     2     O       0.019952  -0.030716  -0.002981
     3     H      -0.129410   0.037580   0.148209
     4     O      -0.084419   0.018296   0.100094
     5     H       0.480916  -0.007264  -0.711516
     6     O      -0.009091   0.002660  -0.028707
     7     H       0.027767  -0.040044   0.207501
     8     O      -0.012497   0.019986   0.015383
     9     H       0.226383   0.004978  -0.322226
    10     O       0.000306   0.007721  -0.015524
    11     O      -0.008313  -0.008104   0.011240
    12     S       0.005159   0.000880   0.000895
    13     O       0.004957   0.010182   0.015104
    14     O       0.005185  -0.010040  -0.011197
 
 Mode:    26      Frequency (cm-1):      393.6653     Intensity (km/mol):        3.6125
 Index  Atom      ---- Displacements (x/y/z) ----
     1    Pa       0.000359  -0.000028  -0.000507
     2     O       0.006258  -0.016377  -0.035272
     3     H       0.004265  -0.021930   0.171287
     4     O      -0.023941  -0.001561   0.024890
     5     H       0.174920   0.009628  -0.180093
     6     O      -0.002263   0.007971  -0.020930
     7     H       0.026331  -0.025885   0.168236
     8     O      -0.008486   0.014353   0.033277
     9     H       0.122971   0.005564  -0.155193
    10     O      -0.139482  -0.344502   0.312246
    11     O       0.128738   0.340535  -0.308138
    12     S       0.002813   0.000265  -0.000008
    13     O       0.042435  -0.299005  -0.305800
    14     O      -0.034770   0.300520   0.306800
 
 Mode:    27      Frequency (cm-1):      481.7594     Intensity (km/mol):       25.6244
 Index  Atom      ---- Displacements (x/y/z) ----
     1    Pa      -0.014131   0.005256   0.004227
     2     O       0.090639   0.186826  -0.150108
     3     H       0.021616   0.223593  -0.335604
     4     O       0.146066  -0.161844  -0.058472
     5     H       0.439748  -0.156254  -0.413265
     6     O       0.038306   0.052472   0.046613
     7     H       0.064757   0.012724   0.299361
     8     O      -0.040605  -0.156231   0.126403
     9     H      -0.199195  -0.160275   0.257780
    10     O      -0.090201  -0.017222  -0.064162
    11     O      -0.101237   0.045317   0.013750
    12     S      -0.020727   0.003411  -0.006093
    13     O       0.068100  -0.070334   0.079847
    14     O       0.113876   0.043333  -0.030673
 
 Mode:    28      Frequency (cm-1):      487.1814     Intensity (km/mol):      182.6972
 Index  Atom      ---- Displacements (x/y/z) ----
     1    Pa      -0.030685   0.011740   0.009454
     2     O       0.031712   0.061001  -0.054596
     3     H       0.024559   0.065302  -0.091085
     4     O       0.206982  -0.219963  -0.089163
     5     H       0.521059  -0.221014  -0.496995
     6     O       0.008768   0.008676   0.006419
     7     H       0.020251  -0.004511   0.080146
     8     O       0.001804   0.011724  -0.010744
     9     H       0.019429   0.015631  -0.007154
    10     O       0.220007   0.053524   0.154815
    11     O       0.239957  -0.121398  -0.024598
    12     S       0.045427  -0.004713   0.012171
    13     O      -0.142998   0.157116  -0.174919
    14     O      -0.250684  -0.101726   0.064353
 
 Mode:    29      Frequency (cm-1):      490.7280     Intensity (km/mol):      216.7358
 Index  Atom      ---- Displacements (x/y/z) ----
     1    Pa       0.002584   0.015574   0.034196
     2     O       0.002456  -0.005234  -0.002533
     3     H       0.006346  -0.007965   0.036573
     4     O       0.114966  -0.117022  -0.059124
     5     H       0.197431  -0.124588  -0.198414
     6     O      -0.156265  -0.217357  -0.244643
     7     H      -0.214187  -0.132711  -0.765665
     8     O       0.034942   0.116670  -0.107339
     9     H       0.107624   0.121054  -0.153126
    10     O      -0.050659  -0.013495  -0.029701
    11     O      -0.055581   0.029140   0.008690
    12     S      -0.010569   0.001615  -0.006927
    13     O       0.034815  -0.036551   0.038777
    14     O       0.052997   0.024758  -0.016131
 
 Mode:    30      Frequency (cm-1):      527.4850     Intensity (km/mol):      420.1590
 Index  Atom      ---- Displacements (x/y/z) ----
     1    Pa       0.010275   0.040824  -0.021224
     2     O      -0.090954  -0.222111   0.151517
     3     H      -0.067497  -0.244136   0.520989
     4     O       0.043768  -0.057221  -0.013947
     5     H       0.181862  -0.053674  -0.176061
     6     O      -0.030887  -0.047594  -0.037942
     7     H      -0.054790  -0.016000  -0.224332
     8     O      -0.056114  -0.225938   0.159145
     9     H      -0.305699  -0.215418   0.477595
    10     O       0.010141   0.022757  -0.010047
    11     O       0.008228   0.020271  -0.014427
    12     S      -0.006663  -0.017927   0.013192
    13     O      -0.028195  -0.001330  -0.003242
    14     O       0.024420  -0.009329   0.011447
 
 Mode:    31      Frequency (cm-1):      563.2308     Intensity (km/mol):      123.0634
 Index  Atom      ---- Displacements (x/y/z) ----
     1    Pa       0.003284   0.011991  -0.008405
     2     O      -0.048622  -0.057387   0.034979
     3     H      -0.003644  -0.082929   0.177163
     4     O       0.014869  -0.016208  -0.008405
     5     H       0.040555  -0.012493  -0.025274
     6     O       0.002363   0.000509   0.003322
     7     H      -0.011086   0.008643  -0.004889
     8     O       0.014224  -0.046207   0.033404
     9     H      -0.114930  -0.053830   0.120955
    10     O      -0.129518  -0.323768   0.314485
    11     O      -0.130192  -0.343180   0.303500
    12     S       0.080401   0.232707  -0.218198
    13     O       0.425415   0.012731   0.045046
    14     O      -0.351071   0.144017  -0.185658
 
 Mode:    32      Frequency (cm-1):      574.7491     Intensity (km/mol):      334.0532
 Index  Atom      ---- Displacements (x/y/z) ----
     1    Pa       0.009502   0.001353   0.004878
     2     O       0.085424   0.191457  -0.152994
     3     H       0.033173   0.221627  -0.268347
     4     O      -0.168601   0.160344   0.087247
     5     H      -0.247934   0.161603   0.180694
     6     O      -0.111616  -0.145966  -0.193524
     7     H      -0.127822  -0.127225  -0.324517
     8     O      -0.056059  -0.199763   0.163498
     9     H      -0.184504  -0.208716   0.253628
    10     O      -0.052455  -0.105238  -0.118109
    11     O      -0.018444   0.104480   0.128360
    12     S       0.202198  -0.010365   0.061875
    13     O      -0.023603   0.139667  -0.180129
    14     O      -0.162850  -0.146783   0.081500
 
 Mode:    33      Frequency (cm-1):      586.3240     Intensity (km/mol):       69.5240
 Index  Atom      ---- Displacements (x/y/z) ----
     1    Pa       0.000552  -0.005469  -0.005083
     2     O       0.012077   0.024367  -0.027103
     3     H       0.009765   0.025243  -0.017848
     4     O      -0.019562   0.016650   0.009444
     5     H      -0.032357   0.014668   0.013562
     6     O      -0.010712  -0.022294  -0.026467
     7     H      -0.011694  -0.019049  -0.053540
     8     O      -0.005380  -0.026282   0.016457
     9     H      -0.036832  -0.028695   0.036722
    10     O       0.495528  -0.126000   0.077649
    11     O      -0.486668   0.049727  -0.154981
    12     S       0.054685  -0.214512  -0.210478
    13     O      -0.040069   0.316249   0.283522
    14     O      -0.058020   0.275863   0.316950
 
 Mode:    34      Frequency (cm-1):      646.1873     Intensity (km/mol):       59.5661
 Index  Atom      ---- Displacements (x/y/z) ----
     1    Pa      -0.013628   0.000673  -0.005659
     2     O      -0.063771  -0.180085   0.152064
     3     H      -0.091742  -0.173728   0.195256
     4     O       0.170963  -0.157666  -0.090763
     5     H       0.204216  -0.165343  -0.142060
     6     O       0.105728   0.137179   0.188864
     7     H       0.117429   0.129779   0.257670
     8     O       0.071783   0.176771  -0.147924
     9     H       0.055623   0.172009  -0.188430
    10     O      -0.162748  -0.210514  -0.298577
    11     O      -0.224091   0.265391   0.194500
    12     S       0.179978  -0.025419   0.048923
    13     O       0.013229   0.133442  -0.128271
    14     O      -0.091993  -0.121076   0.106338
 
 Mode:    35      Frequency (cm-1):      891.9993     Intensity (km/mol):      479.9722
 Index  Atom      ---- Displacements (x/y/z) ----
     1    Pa       0.000619   0.005162   0.005092
     2     O      -0.000389   0.004135  -0.014566
     3     H       0.024719  -0.008470   0.046050
     4     O      -0.008126   0.007071   0.004087
     5     H      -0.010783   0.008559   0.004937
     6     O      -0.003376  -0.010217  -0.012332
     7     H      -0.011003  -0.005223  -0.015819
     8     O      -0.002655  -0.016199   0.004082
     9     H      -0.035262  -0.017446   0.037752
    10     O       0.462943  -0.534379  -0.379303
    11     O      -0.080412  -0.171525  -0.220252
    12     S      -0.134863   0.343922   0.314940
    13     O      -0.079731  -0.087851   0.017655
    14     O      -0.025588   0.048358  -0.107048
 
 Mode:    36      Frequency (cm-1):      904.9459     Intensity (km/mol):      297.0198
 Index  Atom      ---- Displacements (x/y/z) ----
     1    Pa      -0.001951   0.002314   0.001550
     2     O      -0.004208  -0.021583   0.014311
     3     H      -0.007005  -0.023390   0.018824
     4     O       0.016823  -0.014915  -0.009541
     5     H       0.014574  -0.014075   0.000158
     6     O       0.012797   0.009221   0.016473
     7     H       0.006642   0.015594   0.007337
     8     O       0.012266   0.015538  -0.018054
     9     H      -0.019509   0.015562  -0.003191
    10     O      -0.264115   0.230282   0.136739
    11     O      -0.380014  -0.383732  -0.581448
    12     S       0.180472   0.096993   0.183852
    13     O       0.202858   0.132481  -0.125505
    14     O       0.071366  -0.194202   0.175678
 
 Mode:    37      Frequency (cm-1):     1126.3981     Intensity (km/mol):      800.7380
 Index  Atom      ---- Displacements (x/y/z) ----
     1    Pa       0.006979  -0.001082   0.001894
     2     O       0.001412   0.016581  -0.016036
     3     H       0.021482   0.011514   0.000495
     4     O      -0.015676   0.013058   0.008240
     5     H      -0.010236   0.016676   0.004641
     6     O      -0.010686  -0.009868  -0.016478
     7     H      -0.011119  -0.013546  -0.010142
     8     O      -0.011745  -0.014796   0.013521
     9     H       0.016965  -0.015437   0.007482
    10     O       0.070106  -0.074219  -0.050698
    11     O       0.061796   0.061829   0.092949
    12     S      -0.433246   0.058556  -0.118415
    13     O       0.479308   0.311972  -0.241236
    14     O       0.189613  -0.405929   0.418925
 
 Mode:    38      Frequency (cm-1):     1212.1492     Intensity (km/mol):      677.9086
 Index  Atom      ---- Displacements (x/y/z) ----
     1    Pa       0.000217   0.000471  -0.000375
     2     O      -0.001957  -0.000427  -0.000026
     3     H      -0.002665   0.000062   0.003556
     4     O      -0.000197  -0.000087   0.000085
     5     H      -0.003280  -0.000657   0.001249
     6     O      -0.000077  -0.000127  -0.000105
     7     H       0.000210  -0.000330   0.000374
     8     O       0.001389  -0.001244   0.000987
     9     H      -0.003323  -0.001850   0.001313
    10     O      -0.006780  -0.018037   0.015486
    11     O      -0.007151  -0.017427   0.016549
    12     S       0.146884   0.375013  -0.345428
    13     O      -0.441403  -0.311984   0.246483
    14     O       0.160010  -0.406908   0.416016
 
 Mode:    39      Frequency (cm-1):     3799.8128     Intensity (km/mol):      506.2969
 Index  Atom      ---- Displacements (x/y/z) ----
     1    Pa      -0.000011  -0.000047   0.000013
     2     O      -0.019653  -0.040552  -0.001431
     3     H       0.314224   0.647635   0.022401
     4     O      -0.001000   0.003259  -0.000806
     5     H       0.016114  -0.051299   0.012563
     6     O       0.000679   0.001295   0.000110
     7     H      -0.010460  -0.019878  -0.002211
     8     O       0.007724  -0.041785   0.007155
     9     H      -0.123291   0.667505  -0.114469
    10     O       0.000007   0.000033  -0.000037
    11     O       0.000019   0.000056  -0.000028
    12     S       0.000000  -0.000011  -0.000001
    13     O       0.000005   0.000002   0.000002
    14     O      -0.000003   0.000007  -0.000006
 
 Mode:    40      Frequency (cm-1):     3800.7876     Intensity (km/mol):       53.9095
 Index  Atom      ---- Displacements (x/y/z) ----
     1    Pa       0.000026  -0.000007   0.000008
     2     O       0.018038   0.037325   0.001286
     3     H      -0.288683  -0.595432  -0.020359
     4     O       0.003367  -0.011592   0.003084
     5     H      -0.058277   0.188848  -0.046940
     6     O       0.004000   0.007754   0.000461
     7     H      -0.066568  -0.126624  -0.012077
     8     O       0.007857  -0.042759   0.007357
     9     H      -0.125958   0.682870  -0.117314
    10     O       0.000265  -0.000024   0.000107
    11     O       0.000295  -0.000044   0.000046
    12     S      -0.000187   0.000022  -0.000055
    13     O       0.000104   0.000025  -0.000012
    14     O       0.000066  -0.000054   0.000059
 
 Mode:    41      Frequency (cm-1):     3808.8124     Intensity (km/mol):      331.3185
 Index  Atom      ---- Displacements (x/y/z) ----
     1    Pa      -0.000005   0.000053   0.000003
     2     O       0.004042   0.008026   0.000079
     3     H      -0.062026  -0.127262  -0.004532
     4     O      -0.016747   0.053768  -0.013193
     5     H       0.266153  -0.858707   0.212755
     6     O       0.009907   0.018835   0.001653
     7     H      -0.159699  -0.303716  -0.029718
     8     O       0.000612  -0.003974   0.000752
     9     H      -0.011090   0.060781  -0.010535
    10     O       0.000195  -0.000015   0.000074
    11     O       0.000057  -0.000037  -0.000024
    12     S      -0.000081   0.000047   0.000012
    13     O       0.000045   0.000007  -0.000015
    14     O       0.000026  -0.000037   0.000023
 
 Mode:    42      Frequency (cm-1):     3812.7920     Intensity (km/mol):      153.1921
 Index  Atom      ---- Displacements (x/y/z) ----
     1    Pa      -0.000014  -0.000022  -0.000007
     2     O       0.003906   0.007994  -0.000049
     3     H      -0.059907  -0.123617  -0.004146
     4     O      -0.005928   0.018461  -0.004326
     5     H       0.090180  -0.291346   0.072221
     6     O      -0.027003  -0.051182  -0.005279
     7     H       0.429370   0.816139   0.079275
     8     O       0.001612  -0.009285   0.001934
     9     H      -0.026778   0.144494  -0.024832
    10     O       0.000207   0.000019   0.000119
    11     O       0.000278  -0.000069   0.000033
    12     S      -0.000151   0.000009  -0.000054
    13     O       0.000090   0.000034  -0.000012
    14     O       0.000063  -0.000048   0.000063

PES point character: Geometry corresponds to a transition state.
                     (Hint: Very small negative frequencies do not count towards being a
                     transition state, as they usually indicate noise on a very flat PES. See
                     the PESPointCharacter%NegativeFrequenciesTolerance keyword documentation.)




 ============================
 Statistical Thermal Analysis  ***  ideal gas assumed  ***
 ============================
  
 Pressure:                  1.000000 atm.
 Temperature:             298.150000 K



 Moments of Inertia [amu*bohr^2] and principal axis
 ==================================================

        1285.3685       3477.0016       3675.8322
 ------------------------------------------------
           0.9556         -0.2776          0.0990
          -0.1538         -0.7561         -0.6362
           0.2515          0.5927         -0.7652


 The rotational contribution to the molecular entropy includes
 a term, dependent on the symmetry number sigma. The results 
 reported below were computed using sigma = 1, determined from
 the point group symmetry of the input geometry (NOSYM). 
 If this is not the correct symmetry, try symmetrizing the molecule before
 running the calculation (note: linear molecules should be aligned along one
 of the Cartesian axes).
 Contributions from frequencies below 20 1/cm are not included in vibrational sums.
 Their contributions, if any, are reported separately.


     Temp                                                        Transl      Rotat     Vibrat     Total
     ----                                                        ------      -----     ------     -----

     298.15   Entropy (cal/mol-K):                               43.813     31.175     49.989    124.977
              Nuclear Internal Energy (kcal/mol):                 0.889      0.889     47.344     49.121
              Constant Volume Heat Capacity (cal/mol-K):          2.981      2.981     44.963     50.924
          (c) Constant Volume Heat Capacity (cal/mol-K):          2.981      2.981     41.136     47.097

       Summary of energy terms
                                                   hartree              eV         kcal/mol           kJ/mol
                                      --------------------     -----------       ----------      -----------
      Energy from Engine:               -4.183042413776771       -113.8264         -2624.90        -10982.58
      Nuclear Internal Energy:           0.078279305866831          2.1301            49.12           205.52
  (c) Nuclear Internal Energy:           0.076283820803873          2.0758            47.87           200.28
      Internal Energy U:                -4.104763107909940       -111.6963         -2575.78        -10777.05
      pV/n = RT:                         0.000944186013486          0.0257             0.59             2.48
      Enthalpy H:                       -4.103818921896454       -111.6706         -2575.19        -10774.58
      -T*S:                             -0.059380580433176         -1.6158           -37.26          -155.90
  (c) -T*S:                             -0.057922682332180         -1.5762           -36.35          -152.08
      Gibbs free energy:                -4.163199502329630       -113.2864         -2612.45        -10930.48
 
 
 
  (c) The properties marked with this symbol have been corrected using 'low vibrational frequency free rotor
      interpolation corrections'. For those terms all positive frequencies are used (also ones below 20 1/cm),
      but the contribution to the partition function of small vibrational frequencies is modified as described
      in the following paper:
      S. Grimme, 'Supramolecular Binding Thermodynamics by Dispersion-Corrected Density Functional Theory'
      (Chem. Eur. J. 2012, 18, 9955-9964)
      Configuration: Dampener Frequency          :   100.000 1/cm
                     Dampener Alpha              :     4.000
                     Averaging Moment of Inertia : 1.000E-44 kg m2

--------------
Atomic charges
--------------
  Index   Atom    Charge
      1     Pa    2.7605
      2      O   -0.6744
      3      H    0.1205
      4      O   -0.7219
      5      H    0.1414
      6      O   -0.7188
      7      H    0.1371
      8      O   -0.6751
      9      H    0.1208
     10      O   -0.8093
     11      O   -0.8049
     12      S    1.6124
     13      O   -0.7442
     14      O   -0.7441


Dipole moment vector    (Debye):   -16.51472616    3.29488691   -2.54565418
              magnitude (Debye):    17.03152416


ERROR: Geometry optimization failed! (Converged, but did not find a minimum on the PES.)


AMS application finished. Exiting.
NORMAL TERMINATION
     Total cpu time:  121269.23
  Total system time:    2280.79
 Total elapsed time:  123544.59
