
 Working directory              : /state/partition2/shaaban/999773.phlam-s-sakura/molpro.XmyVrGZEQy/
 Global scratch directory       : /state/partition2/shaaban/999773.phlam-s-sakura/molpro.XmyVrGZEQy/
 Wavefunction directory         : /home/shaaban/wfu/
 Main file repository           : /state/partition2/shaaban/999773.phlam-s-sakura/molpro.XmyVrGZEQy/

 id        : lill

 Nodes      nprocs
 u-0-0.local   16
 GA implementation: MPI file
 GA implementation (serial work in mppx): MPI file

 Using customized tuning parameters: mindgm=1; mindgv=20; mindgc=4; mindgr=1; noblas=0; minvec=7
 default implementation of scratch files=sf  


 Variables initialized (1040), CPU time= 0.02 sec
 ***,Pa(OH)4(NCS) - MP2 and CCSD(T)
 memory,2500, m;
 file, 1, pa_oh4_N.ccsd-tx.int, new;
 file, 2, pa_oh4_N.ccsd-tx.wfu, new;
 
 gprint, basis;
 gprint, orbital=10;
 
 nosym;
 
 geomtyp=xyz;
 
 geometry={
 Including file /home/shaaban/molpro/PhD/thiocyanate/gp/pa_oh4_NCS/pa_oh4_N-B22-gp.xyz
 }
 
 charge=0;
 
                                                                                 ! Select X2C SR Hamiltonian
 SET,DKHO=101
 
                                                                                 ! Calculation with VTZ basis set
 basis={
 Pa=cc-pVTZ-X2C;
 O=aug-cc-pVTZ-X2C;
 H=aug-cc-pVTZ-X2C;
 N=aug-cc-pVTZ-X2C;
 C=aug-cc-pVTZ-X2C;
 S=aug-cc-pVTZ-X2C;
 }
 
                                                                                 ! Hartree-Fock calculation
 {hf;}
 
                                                                                 ! MP2 and CCSD(T) calculation
 {ccsd(t), maxit=100, thrvar=1.0d-07, thrden=1.0d-06;}
 
                                                                  ! Save HF energy and CCSD(T) correlation energy for VTZ basis set
 energy_hf(1) = energr(1);
 corr_mp2(1) = EMP2-energr(1);
 corr_ccsdt(1) = ENERGT(1)-energr(1);
 
 Commands initialized (846), CPU time= 0.01 sec, 717 directives.
 Default parameters read. Elapsed time= 0.17 sec

 Checking input...
 Passed
1


                                         ***  PROGRAM SYSTEM MOLPRO  ***
                                       Copyright, TTI GmbH Stuttgart, 2015
                                    Version 2023.2 linked Fri Sep 22 09:27:09 2023


 **********************************************************************************************************************************
 LABEL *   Pa(OH)4(NCS) - MP2 and CCSD(T)                                                                                                                                
  64 bit mpp version                                                                     DATE: 17-Jan-24          TIME: 10:35:38  
 **********************************************************************************************************************************

 SHA1:             3c61bfe44d37c8635c785372c339f5cbdd4e4b59
 **********************************************************************************************************************************

 Memory per process:      2500 MW
 Total memory per node:  40000 MW

 GA preallocation disabled
 GA check disabled

 Variable memory set to 2500.0 MW



 Permanent file  1  pa_oh4_n.ccsd-tx.int             assigned.  Implementation=df  
 Permanent file  2  pa_oh4_n.ccsd-tx.wfu             assigned.  Implementation=df  



 **********************************************************************************************************************************
 DATASETS  * FILE   NREC   LENGTH (MB)   RECORD NAMES
              1       1        0.06       500   
                                          VAR  

              2       1        0.06       500   
                                          VAR  

 PROGRAMS   *        TOTAL      FILE
 CPU TIMES  *         0.23      0.02
 REAL TIME  *         0.32 SEC
 DISK USED  *         0.16 MB (local),        2.64 MB (total)
 **********************************************************************************************************************************


 SETTING GEOMTYP        =    XYZ
 ZSYMEL=NOSYM


 Geometry recognized as XYZ

 SETTING CHARGE         =      0.0000000D+00                                  
 SETTING DKHO           =       101.00000000                                  
 SETTING BASIS          =    PA=CC-PVTZ-X2C,O=AUG-CC-PVTZ-X2C,H=AUG-CC-PVTZ-X2C,N=AUG-CC-PVTZ-X2C,C=AUG-CC-PVTZ-X2C,S=AUG-CC-PVTZ-X2C


 Recomputing integrals since basis changed


 Using spherical harmonics

 Library entry PA     S cc-pVTZ-X2C          selected for orbital group  1
 Library entry PA     P cc-pVTZ-X2C          selected for orbital group  1
 Library entry PA     D cc-pVTZ-X2C          selected for orbital group  1
 Library entry PA     F cc-pVTZ-X2C          selected for orbital group  1
 Library entry PA     G cc-pVTZ-X2C          selected for orbital group  1
 Library entry PA     H cc-pVTZ-X2C          selected for orbital group  1
 Library entry N      S aug-cc-pVTZ-X2C      selected for orbital group  2
 Library entry N      P aug-cc-pVTZ-X2C      selected for orbital group  2
 Library entry N      D aug-cc-pVTZ-X2C      selected for orbital group  2
 Library entry N      F aug-cc-pVTZ-X2C      selected for orbital group  2
 Library entry H      S aug-cc-pVTZ-X2C      selected for orbital group  3
 Library entry H      P aug-cc-pVTZ-X2C      selected for orbital group  3
 Library entry H      D aug-cc-pVTZ-X2C      selected for orbital group  3
 Library entry O      S aug-cc-pVTZ-X2C      selected for orbital group  4
 Library entry O      P aug-cc-pVTZ-X2C      selected for orbital group  4
 Library entry O      D aug-cc-pVTZ-X2C      selected for orbital group  4
 Library entry O      F aug-cc-pVTZ-X2C      selected for orbital group  4
 Library entry C      S aug-cc-pVTZ-X2C      selected for orbital group 11
 Library entry C      P aug-cc-pVTZ-X2C      selected for orbital group 11
 Library entry C      D aug-cc-pVTZ-X2C      selected for orbital group 11
 Library entry C      F aug-cc-pVTZ-X2C      selected for orbital group 11
 Library entry S      S aug-cc-pVTZ-X2C      selected for orbital group 12
 Library entry S      P aug-cc-pVTZ-X2C      selected for orbital group 12
 Library entry S      D aug-cc-pVTZ-X2C      selected for orbital group 12
 Library entry S      F aug-cc-pVTZ-X2C      selected for orbital group 12


 PROGRAM * SEWARD (Integral evaluation for generally contracted gaussian basis sets)     Author: Roland Lindh, 1990

 Geometry written to block  1 of record 700


 Point group  C1  



 ATOMIC COORDINATES

 NR  ATOM    CHARGE       X              Y              Z

   1  PA     91.00    0.565023876   -0.101605998   -0.155338759
   2  N       7.00    2.236423462    2.867794521   -2.868354144
   3  H       1.00   -3.743003681    3.604274031    0.741661962
   4  O       8.00   -2.407281064    2.406524771    0.488796589
   5  H       1.00    5.399082020    0.333398377    2.936474059
   6  O       8.00    0.374685555   -2.596101087   -3.203252211
   7  H       1.00    0.275720351   -3.745974824   -4.599790745
   8  O       8.00   -0.963772075   -2.765844851    2.317319618
   9  H       1.00   -1.694010082   -3.973188786    3.454141816
  10  O       8.00    3.876268809    0.187505774    1.965808979
  11  C       6.00    3.081261515    4.477293387   -4.193566749
  12  S      16.00    4.207675684    6.625625846   -5.958968295

 Bond lengths in Bohr (Angstrom)

 1-2  4.355613447  1-3  5.753021685  1-4  3.942109456  1-5  5.754707069  1-6  3.943160006
     ( 2.304891376)     ( 3.044367970)     ( 2.086074487)     ( 3.045259836)     ( 2.086630414)

  1- 7  5.754847879   1- 8  3.943275945   1- 9  5.755061922   1-10  3.942993323   1-11  6.603412507
       ( 3.045334350)       ( 2.086691766)       ( 3.045447617)       ( 2.086542209)       ( 3.494375413)

  2-11  2.249539149   3- 4  1.811822037   5-10  1.811749273   6- 7  1.811718410   8- 9  1.811985550
       ( 1.190404853)       ( 0.958774932)       ( 0.958736427)       ( 0.958720095)       ( 0.958861460)

 11-12  3.000130639
       ( 1.587600764)

 Bond angles

  1- 2-11  177.22471724   1- 3- 4    1.50299769   1- 4- 3  177.80627619   1- 5-10    0.29700758

  1-6-7  179.59811633   1-7-6    0.27536518   1-8-9  178.97265431   1-9-8    0.70390074

  1-10- 5  179.56652214   1-11- 2    1.83017306   1-11-12  178.11836174   2- 1- 3   86.86536203

  2-1-4   87.55601789   2-1-5   87.75194219   2-1-6   88.18573595   2-1-7   88.27913673

  2- 1- 8  179.51934600   2- 1- 9  179.23738222   2- 1-10   87.87038510   2- 1-11    0.94510970

  2-11-12  179.94842358   3- 1- 4    0.69072612   3- 1- 5  119.77313772   3- 1- 6  119.46410101

  3- 1- 7  119.38652668   3- 1- 8   92.70160016   3- 1- 9   92.38523144   3- 1-10  119.85074595

  3- 1-11   86.21689871   4- 1- 5  119.83349478   4- 1- 6  119.49844131   4- 1- 7  119.41949251

  4- 1- 8   92.01098480   4- 1- 9   91.69460202   4- 1-10  119.90954128   4- 1-11   86.90762309

  5-1-6  120.24210017   5-1-7  120.33319820   5-1-8   92.28372823   5-1-9   92.50000248

  5- 1-10    0.13647027   5- 1-11   87.48118356   6- 1- 7    0.12651849   6- 1- 8   92.20973053

  6- 1- 9   92.30769029   6- 1-10  120.18140694   6- 1-11   89.10396370   7- 1- 8   92.11592322

  7- 1- 9   92.21342715   7- 1-10  120.27228795   7- 1-11   89.19702929   8- 1- 9    0.32344494

  8- 1-10   92.16585698   8- 1-11  178.59542058   9- 1-10   92.38242106   9- 1-11  178.37475341

 10- 1-11   87.60068401


 BASIS DATA

   Nr Sym  Nuc  Type         Exponents   Contraction coefficients

    1.1 A     1  1s    57606659.000000     0.002669    0.000875   -0.001011   -0.000162    0.000138   -0.000062
                                           0.000029    0.000051   -0.000067   -0.000085    0.000000
    2.1 A              15333099.000000     0.001763    0.000577   -0.000669   -0.000107    0.000091   -0.000041
                                           0.000019    0.000034   -0.000045   -0.000056    0.000000
    3.1 A               5244434.800000     0.005688    0.001860   -0.002159   -0.000346    0.000294   -0.000133
                                           0.000061    0.000110   -0.000144   -0.000182    0.000000
    4.1 A               1993947.300000     0.005833    0.001897   -0.002226   -0.000357    0.000304   -0.000137
                                           0.000063    0.000114   -0.000148   -0.000188    0.000000
    5.1 A                831464.670000     0.012471    0.004046   -0.004768   -0.000766    0.000651   -0.000294
                                           0.000135    0.000243   -0.000318   -0.000402    0.000000
    6.1 A                367473.800000     0.015337    0.004923   -0.005922   -0.000954    0.000810   -0.000366
                                           0.000168    0.000303   -0.000396   -0.000502    0.000000
    7.1 A                170948.980000     0.027802    0.008860   -0.010807   -0.001745    0.001481   -0.000669
                                           0.000307    0.000553   -0.000723   -0.000913    0.000000
    8.1 A                 82498.208000     0.037893    0.011845   -0.014983   -0.002432    0.002060   -0.000931
                                           0.000428    0.000771   -0.001008   -0.001281    0.000000
    9.1 A                 41068.557000     0.063446    0.019489   -0.025472   -0.004156    0.003514   -0.001588
                                           0.000730    0.001312   -0.001713   -0.002158    0.000000
   10.1 A                 20931.097000     0.090970    0.026964   -0.037612   -0.006192    0.005220   -0.002360
                                           0.001084    0.001959   -0.002562   -0.003271    0.000000
   11.1 A                 10881.858000     0.141353    0.040137   -0.060450   -0.010069    0.008456   -0.003823
                                           0.001756    0.003150   -0.004109   -0.005142    0.000000
                           5751.850200     0.192150    0.050328   -0.087023   -0.014758    0.012320   -0.005570
                                           0.002559    0.004641   -0.006081   -0.007843    0.000000
                           3085.413800     0.245625    0.057494   -0.119370   -0.020746    0.017180   -0.007769
                                           0.003568    0.006365   -0.008281   -0.010186    0.000000
                           1676.302600     0.236828    0.048791   -0.122988   -0.021795    0.017936   -0.008112
                                           0.003728    0.006861   -0.009046   -0.012129    0.000000
                            920.364860     0.144288    0.051386   -0.045258   -0.005640    0.005268   -0.002373
                                           0.001085    0.001652   -0.001974   -0.001042    0.000000
                            507.302700    -0.025759    0.115725    0.203246    0.056561   -0.041187    0.018724
                                          -0.008598   -0.014902    0.019190    0.021482    0.000000
                            285.301180    -0.127248    0.207489    0.548666    0.172341   -0.122683    0.055908
                                          -0.025737   -0.047910    0.063712    0.088054    0.000000
                            162.083520    -0.106345    0.166212    0.606264    0.222723   -0.155054    0.070944
                                          -0.032607   -0.056240    0.072273    0.078654    0.000000
                             92.502257    -0.075897    0.111536    0.036795   -0.036386    0.019294   -0.009062
                                           0.004086    0.001475    0.001168    0.030443    0.000000
                             54.996696    -0.159518    0.199400   -0.676887   -0.645265    0.447335   -0.211910
                                           0.098395    0.193270   -0.267108   -0.419400    0.000000
                             32.498055    -0.126680    0.162427   -0.590845   -0.685716    0.477369   -0.227312
                                           0.105023    0.171409   -0.214999   -0.161690    0.000000
                             19.139224    -0.031866    0.038627   -0.102127    0.187644   -0.152132    0.072681
                                          -0.032972   -0.027495    0.028200   -0.136514    0.000000
                             11.382710     0.001867    0.000895    0.103491    0.862021   -0.976205    0.547811
                                          -0.263192   -0.581563    0.872312    1.708580    0.000000
                              6.786052     0.000710   -0.001446    0.057992    0.445035   -0.716251    0.417708
                                          -0.198179   -0.257965    0.233684   -0.803168    0.000000
                              4.149622     0.000624    0.000224    0.007493    0.066545    0.448492   -0.350229
                                           0.170540    0.219139   -0.310498    1.111350    0.000000
                              2.398648    -0.000456    0.000036    0.000333    0.014140    0.872214   -0.849732
                                           0.456257    1.306370   -2.312230   -7.677220    0.000000
                              1.389239     0.000090    0.000196   -0.000539    0.002102    0.319316   -0.431871
                                           0.230358    0.273179    0.312923   10.897300    0.000000
                              0.799685    -0.000092   -0.000045    0.000120    0.000488    0.047531    0.436228
                                          -0.277578   -1.772950    4.829150   -2.756210    0.000000
                              0.427327     0.000032    0.000027   -0.000069   -0.000720    0.030738    0.715435
                                          -0.561943   -0.897998   -3.625440   -6.603630    0.000000
                              0.220940    -0.000014   -0.000008    0.000023   -0.000086    0.010089    0.233487
                                          -0.326569    1.531090   -1.220420    6.760400    0.000000
                              0.086038     0.000004    0.000003   -0.000008   -0.000060    0.001152    0.063336
                                           0.301677    1.025940    2.677810   -2.145480    0.000000
                              0.041219    -0.000002   -0.000001    0.000004   -0.000044    0.001537    0.118995
                                           0.692734   -0.772162   -0.536170   -1.021350    0.000000
                              0.018781     0.000001    0.000000   -0.000001   -0.000024    0.000590    0.043903
                                           0.253879   -0.484754   -0.805222    1.252960    1.000000
   12.1 A     1  2px   52575799.000000     0.000013
                       15301659.000000     0.000017
                        4822461.600000     0.000052
                        1632045.600000     0.000107
                         584338.640000     0.000256
                         219508.320000     0.000572
                          86085.039000     0.001336
                          35172.956000     0.003129
                          14975.745000     0.007503
                           6652.821900     0.017986
                           3084.270200     0.042103
                           1489.211300     0.090969
                            745.288670     0.167976
                            384.521300     0.234709
                            203.927220     0.220200
                            110.523340     0.174708
                             61.345569     0.190642
                             34.404375     0.137246
                             19.094147     0.033402
                             10.684628    -0.000867
                              5.931463    -0.000935
                              3.230992    -0.000009
                              1.730655     0.000164
                              0.869483     0.000022
                              0.440589     0.000009
                              0.215859    -0.000000
                              0.091015     0.000001
                              0.040174    -0.000000
                              0.017215     0.000000
   13.1 A     1  2py   52575799.000000     0.000013
                       15301659.000000     0.000017
                        4822461.600000     0.000052
                        1632045.600000     0.000107
                         584338.640000     0.000256
                         219508.320000     0.000572
                          86085.039000     0.001336
                          35172.956000     0.003129
                          14975.745000     0.007503
                           6652.821900     0.017986
                           3084.270200     0.042103
                           1489.211300     0.090969
                            745.288670     0.167976
                            384.521300     0.234709
                            203.927220     0.220200
                            110.523340     0.174708
                             61.345569     0.190642
                             34.404375     0.137246
                             19.094147     0.033402
                             10.684628    -0.000867
                              5.931463    -0.000935
                              3.230992    -0.000009
                              1.730655     0.000164
                              0.869483     0.000022
                              0.440589     0.000009
                              0.215859    -0.000000
                              0.091015     0.000001
                              0.040174    -0.000000
                              0.017215     0.000000
   14.1 A     1  2pz   52575799.000000     0.000013
                       15301659.000000     0.000017
                        4822461.600000     0.000052
                        1632045.600000     0.000107
                         584338.640000     0.000256
                         219508.320000     0.000572
                          86085.039000     0.001336
                          35172.956000     0.003129
                          14975.745000     0.007503
                           6652.821900     0.017986
                           3084.270200     0.042103
                           1489.211300     0.090969
                            745.288670     0.167976
                            384.521300     0.234709
                            203.927220     0.220200
                            110.523340     0.174708
                             61.345569     0.190642
                             34.404375     0.137246
                             19.094147     0.033402
                             10.684628    -0.000867
                              5.931463    -0.000935
                              3.230992    -0.000009
                              1.730655     0.000164
                              0.869483     0.000022
                              0.440589     0.000009
                              0.215859    -0.000000
                              0.091015     0.000001
                              0.040174    -0.000000
                              0.017215     0.000000
   15.1 A     1  2px   52575799.000000    -0.000015
                       15301659.000000    -0.000020
                        4822461.600000    -0.000063
                        1632045.600000    -0.000128
                         584338.640000    -0.000307
                         219508.320000    -0.000688
                          86085.039000    -0.001611
                          35172.956000    -0.003789
                          14975.745000    -0.009145
                           6652.821900    -0.022135
                           3084.270200    -0.052666
                           1489.211300    -0.116756
                            745.288670    -0.223673
                            384.521300    -0.322150
                            203.927220    -0.236330
                            110.523340     0.145050
                             61.345569     0.527334
                             34.404375     0.400957
                             19.094147     0.019469
                             10.684628    -0.122609
                              5.931463    -0.050931
                              3.230992    -0.002720
                              1.730655     0.002231
                              0.869483     0.000423
                              0.440589     0.000084
                              0.215859     0.000018
                              0.091015     0.000006
                              0.040174    -0.000002
                              0.017215     0.000001
   16.1 A     1  2py   52575799.000000    -0.000015
                       15301659.000000    -0.000020
                        4822461.600000    -0.000063
                        1632045.600000    -0.000128
                         584338.640000    -0.000307
                         219508.320000    -0.000688
                          86085.039000    -0.001611
                          35172.956000    -0.003789
                          14975.745000    -0.009145
                           6652.821900    -0.022135
                           3084.270200    -0.052666
                           1489.211300    -0.116756
                            745.288670    -0.223673
                            384.521300    -0.322150
                            203.927220    -0.236330
                            110.523340     0.145050
                             61.345569     0.527334
                             34.404375     0.400957
                             19.094147     0.019469
                             10.684628    -0.122609
                              5.931463    -0.050931
                              3.230992    -0.002720
                              1.730655     0.002231
                              0.869483     0.000423
                              0.440589     0.000084
                              0.215859     0.000018
                              0.091015     0.000006
                              0.040174    -0.000002
                              0.017215     0.000001
   17.1 A     1  2pz   52575799.000000    -0.000015
                       15301659.000000    -0.000020
                        4822461.600000    -0.000063
                        1632045.600000    -0.000128
                         584338.640000    -0.000307
                         219508.320000    -0.000688
                          86085.039000    -0.001611
                          35172.956000    -0.003789
                          14975.745000    -0.009145
                           6652.821900    -0.022135
                           3084.270200    -0.052666
                           1489.211300    -0.116756
                            745.288670    -0.223673
                            384.521300    -0.322150
                            203.927220    -0.236330
                            110.523340     0.145050
                             61.345569     0.527334
                             34.404375     0.400957
                             19.094147     0.019469
                             10.684628    -0.122609
                              5.931463    -0.050931
                              3.230992    -0.002720
                              1.730655     0.002231
                              0.869483     0.000423
                              0.440589     0.000084
                              0.215859     0.000018
                              0.091015     0.000006
                              0.040174    -0.000002
                              0.017215     0.000001
   18.1 A     1  2px   52575799.000000     0.000002
                       15301659.000000     0.000002
                        4822461.600000     0.000007
                        1632045.600000     0.000015
                         584338.640000     0.000036
                         219508.320000     0.000081
                          86085.039000     0.000191
                          35172.956000     0.000452
                          14975.745000     0.001103
                           6652.821900     0.002719
                           3084.270200     0.006655
                           1489.211300     0.015415
                            745.288670     0.031304
                            384.521300     0.047289
                            203.927220     0.017930
                            110.523340    -0.123036
                             61.345569    -0.327485
                             34.404375    -0.190153
                             19.094147     0.365341
                             10.684628     0.614487
                              5.931463     0.253665
                              3.230992     0.025247
                              1.730655     0.001457
                              0.869483    -0.000189
                              0.440589     0.000178
                              0.215859    -0.000001
                              0.091015     0.000034
                              0.040174    -0.000010
                              0.017215     0.000003
   19.1 A     1  2py   52575799.000000     0.000002
                       15301659.000000     0.000002
                        4822461.600000     0.000007
                        1632045.600000     0.000015
                         584338.640000     0.000036
                         219508.320000     0.000081
                          86085.039000     0.000191
                          35172.956000     0.000452
                          14975.745000     0.001103
                           6652.821900     0.002719
                           3084.270200     0.006655
                           1489.211300     0.015415
                            745.288670     0.031304
                            384.521300     0.047289
                            203.927220     0.017930
                            110.523340    -0.123036
                             61.345569    -0.327485
                             34.404375    -0.190153
                             19.094147     0.365341
                             10.684628     0.614487
                              5.931463     0.253665
                              3.230992     0.025247
                              1.730655     0.001457
                              0.869483    -0.000189
                              0.440589     0.000178
                              0.215859    -0.000001
                              0.091015     0.000034
                              0.040174    -0.000010
                              0.017215     0.000003
   20.1 A     1  2pz   52575799.000000     0.000002
                       15301659.000000     0.000002
                        4822461.600000     0.000007
                        1632045.600000     0.000015
                         584338.640000     0.000036
                         219508.320000     0.000081
                          86085.039000     0.000191
                          35172.956000     0.000452
                          14975.745000     0.001103
                           6652.821900     0.002719
                           3084.270200     0.006655
                           1489.211300     0.015415
                            745.288670     0.031304
                            384.521300     0.047289
                            203.927220     0.017930
                            110.523340    -0.123036
                             61.345569    -0.327485
                             34.404375    -0.190153
                             19.094147     0.365341
                             10.684628     0.614487
                              5.931463     0.253665
                              3.230992     0.025247
                              1.730655     0.001457
                              0.869483    -0.000189
                              0.440589     0.000178
                              0.215859    -0.000001
                              0.091015     0.000034
                              0.040174    -0.000010
                              0.017215     0.000003
   21.1 A     1  2px   52575799.000000    -0.000002
                       15301659.000000    -0.000003
                        4822461.600000    -0.000009
                        1632045.600000    -0.000018
                         584338.640000    -0.000043
                         219508.320000    -0.000097
                          86085.039000    -0.000228
                          35172.956000    -0.000537
                          14975.745000    -0.001302
                           6652.821900    -0.003177
                           3084.270200    -0.007652
                           1489.211300    -0.017311
                            745.288670    -0.034068
                            384.521300    -0.050256
                            203.927220    -0.027762
                            110.523340     0.078094
                             61.345569     0.225253
                             34.404375     0.124053
                             19.094147    -0.273486
                             10.684628    -0.553839
                              5.931463    -0.065277
                              3.230992     0.618524
                              1.730655     0.501044
                              0.869483     0.107343
                              0.440589     0.023201
                              0.215859     0.014691
                              0.091015     0.001511
                              0.040174     0.000132
                              0.017215    -0.000015
   22.1 A     1  2py   52575799.000000    -0.000002
                       15301659.000000    -0.000003
                        4822461.600000    -0.000009
                        1632045.600000    -0.000018
                         584338.640000    -0.000043
                         219508.320000    -0.000097
                          86085.039000    -0.000228
                          35172.956000    -0.000537
                          14975.745000    -0.001302
                           6652.821900    -0.003177
                           3084.270200    -0.007652
                           1489.211300    -0.017311
                            745.288670    -0.034068
                            384.521300    -0.050256
                            203.927220    -0.027762
                            110.523340     0.078094
                             61.345569     0.225253
                             34.404375     0.124053
                             19.094147    -0.273486
                             10.684628    -0.553839
                              5.931463    -0.065277
                              3.230992     0.618524
                              1.730655     0.501044
                              0.869483     0.107343
                              0.440589     0.023201
                              0.215859     0.014691
                              0.091015     0.001511
                              0.040174     0.000132
                              0.017215    -0.000015
   23.1 A     1  2pz   52575799.000000    -0.000002
                       15301659.000000    -0.000003
                        4822461.600000    -0.000009
                        1632045.600000    -0.000018
                         584338.640000    -0.000043
                         219508.320000    -0.000097
                          86085.039000    -0.000228
                          35172.956000    -0.000537
                          14975.745000    -0.001302
                           6652.821900    -0.003177
                           3084.270200    -0.007652
                           1489.211300    -0.017311
                            745.288670    -0.034068
                            384.521300    -0.050256
                            203.927220    -0.027762
                            110.523340     0.078094
                             61.345569     0.225253
                             34.404375     0.124053
                             19.094147    -0.273486
                             10.684628    -0.553839
                              5.931463    -0.065277
                              3.230992     0.618524
                              1.730655     0.501044
                              0.869483     0.107343
                              0.440589     0.023201
                              0.215859     0.014691
                              0.091015     0.001511
                              0.040174     0.000132
                              0.017215    -0.000015
   24.1 A     1  2px   52575799.000000     0.000001
                       15301659.000000     0.000001
                        4822461.600000     0.000004
                        1632045.600000     0.000008
                         584338.640000     0.000019
                         219508.320000     0.000043
                          86085.039000     0.000102
                          35172.956000     0.000240
                          14975.745000     0.000583
                           6652.821900     0.001422
                           3084.270200     0.003426
                           1489.211300     0.007745
                            745.288670     0.015249
                            384.521300     0.022470
                            203.927220     0.012451
                            110.523340    -0.035134
                             61.345569    -0.101385
                             34.404375    -0.055104
                             19.094147     0.131617
                             10.684628     0.274237
                              5.931463     0.008683
                              3.230992    -0.421618
                              1.730655    -0.381893
                              0.869483     0.226214
                              0.440589     0.602150
                              0.215859     0.367232
                              0.091015     0.055939
                              0.040174    -0.001129
                              0.017215     0.001121
   25.1 A     1  2py   52575799.000000     0.000001
                       15301659.000000     0.000001
                        4822461.600000     0.000004
                        1632045.600000     0.000008
                         584338.640000     0.000019
                         219508.320000     0.000043
                          86085.039000     0.000102
                          35172.956000     0.000240
                          14975.745000     0.000583
                           6652.821900     0.001422
                           3084.270200     0.003426
                           1489.211300     0.007745
                            745.288670     0.015249
                            384.521300     0.022470
                            203.927220     0.012451
                            110.523340    -0.035134
                             61.345569    -0.101385
                             34.404375    -0.055104
                             19.094147     0.131617
                             10.684628     0.274237
                              5.931463     0.008683
                              3.230992    -0.421618
                              1.730655    -0.381893
                              0.869483     0.226214
                              0.440589     0.602150
                              0.215859     0.367232
                              0.091015     0.055939
                              0.040174    -0.001129
                              0.017215     0.001121
   26.1 A     1  2pz   52575799.000000     0.000001
                       15301659.000000     0.000001
                        4822461.600000     0.000004
                        1632045.600000     0.000008
                         584338.640000     0.000019
                         219508.320000     0.000043
                          86085.039000     0.000102
                          35172.956000     0.000240
                          14975.745000     0.000583
                           6652.821900     0.001422
                           3084.270200     0.003426
                           1489.211300     0.007745
                            745.288670     0.015249
                            384.521300     0.022470
                            203.927220     0.012451
                            110.523340    -0.035134
                             61.345569    -0.101385
                             34.404375    -0.055104
                             19.094147     0.131617
                             10.684628     0.274237
                              5.931463     0.008683
                              3.230992    -0.421618
                              1.730655    -0.381893
                              0.869483     0.226214
                              0.440589     0.602150
                              0.215859     0.367232
                              0.091015     0.055939
                              0.040174    -0.001129
                              0.017215     0.001121
   27.1 A     1  2px   52575799.000000    -0.000000
                       15301659.000000    -0.000000
                        4822461.600000    -0.000001
                        1632045.600000    -0.000002
                         584338.640000    -0.000005
                         219508.320000    -0.000010
                          86085.039000    -0.000024
                          35172.956000    -0.000058
                          14975.745000    -0.000140
                           6652.821900    -0.000342
                           3084.270200    -0.000823
                           1489.211300    -0.001861
                            745.288670    -0.003664
                            384.521300    -0.005398
                            203.927220    -0.002991
                            110.523340     0.008482
                             61.345569     0.024454
                             34.404375     0.013272
                             19.094147    -0.032305
                             10.684628    -0.067432
                              5.931463    -0.001366
                              3.230992     0.110673
                              1.730655     0.103187
                              0.869483    -0.077840
                              0.440589    -0.217735
                              0.215859    -0.188345
                              0.091015     0.201020
                              0.040174     0.637069
                              0.017215     0.326669
   28.1 A     1  2py   52575799.000000    -0.000000
                       15301659.000000    -0.000000
                        4822461.600000    -0.000001
                        1632045.600000    -0.000002
                         584338.640000    -0.000005
                         219508.320000    -0.000010
                          86085.039000    -0.000024
                          35172.956000    -0.000058
                          14975.745000    -0.000140
                           6652.821900    -0.000342
                           3084.270200    -0.000823
                           1489.211300    -0.001861
                            745.288670    -0.003664
                            384.521300    -0.005398
                            203.927220    -0.002991
                            110.523340     0.008482
                             61.345569     0.024454
                             34.404375     0.013272
                             19.094147    -0.032305
                             10.684628    -0.067432
                              5.931463    -0.001366
                              3.230992     0.110673
                              1.730655     0.103187
                              0.869483    -0.077840
                              0.440589    -0.217735
                              0.215859    -0.188345
                              0.091015     0.201020
                              0.040174     0.637069
                              0.017215     0.326669
   29.1 A     1  2pz   52575799.000000    -0.000000
                       15301659.000000    -0.000000
                        4822461.600000    -0.000001
                        1632045.600000    -0.000002
                         584338.640000    -0.000005
                         219508.320000    -0.000010
                          86085.039000    -0.000024
                          35172.956000    -0.000058
                          14975.745000    -0.000140
                           6652.821900    -0.000342
                           3084.270200    -0.000823
                           1489.211300    -0.001861
                            745.288670    -0.003664
                            384.521300    -0.005398
                            203.927220    -0.002991
                            110.523340     0.008482
                             61.345569     0.024454
                             34.404375     0.013272
                             19.094147    -0.032305
                             10.684628    -0.067432
                              5.931463    -0.001366
                              3.230992     0.110673
                              1.730655     0.103187
                              0.869483    -0.077840
                              0.440589    -0.217735
                              0.215859    -0.188345
                              0.091015     0.201020
                              0.040174     0.637069
                              0.017215     0.326669
   30.1 A     1  2px   52575799.000000    -0.000001
                       15301659.000000    -0.000001
                        4822461.600000    -0.000003
                        1632045.600000    -0.000005
                         584338.640000    -0.000013
                         219508.320000    -0.000028
                          86085.039000    -0.000066
                          35172.956000    -0.000156
                          14975.745000    -0.000379
                           6652.821900    -0.000925
                           3084.270200    -0.002224
                           1489.211300    -0.005040
                            745.288670    -0.009895
                            384.521300    -0.014653
                            203.927220    -0.007970
                            110.523340     0.022757
                             61.345569     0.067049
                             34.404375     0.034635
                             19.094147    -0.086605
                             10.684628    -0.190567
                              5.931463     0.011210
                              3.230992     0.295370
                              1.730655     0.357708
                              0.869483    -0.483437
                              0.440589    -0.603385
                              0.215859     0.215887
                              0.091015     0.715465
                              0.040174     0.271767
                              0.017215     0.004114
   31.1 A     1  2py   52575799.000000    -0.000001
                       15301659.000000    -0.000001
                        4822461.600000    -0.000003
                        1632045.600000    -0.000005
                         584338.640000    -0.000013
                         219508.320000    -0.000028
                          86085.039000    -0.000066
                          35172.956000    -0.000156
                          14975.745000    -0.000379
                           6652.821900    -0.000925
                           3084.270200    -0.002224
                           1489.211300    -0.005040
                            745.288670    -0.009895
                            384.521300    -0.014653
                            203.927220    -0.007970
                            110.523340     0.022757
                             61.345569     0.067049
                             34.404375     0.034635
                             19.094147    -0.086605
                             10.684628    -0.190567
                              5.931463     0.011210
                              3.230992     0.295370
                              1.730655     0.357708
                              0.869483    -0.483437
                              0.440589    -0.603385
                              0.215859     0.215887
                              0.091015     0.715465
                              0.040174     0.271767
                              0.017215     0.004114
   32.1 A     1  2pz   52575799.000000    -0.000001
                       15301659.000000    -0.000001
                        4822461.600000    -0.000003
                        1632045.600000    -0.000005
                         584338.640000    -0.000013
                         219508.320000    -0.000028
                          86085.039000    -0.000066
                          35172.956000    -0.000156
                          14975.745000    -0.000379
                           6652.821900    -0.000925
                           3084.270200    -0.002224
                           1489.211300    -0.005040
                            745.288670    -0.009895
                            384.521300    -0.014653
                            203.927220    -0.007970
                            110.523340     0.022757
                             61.345569     0.067049
                             34.404375     0.034635
                             19.094147    -0.086605
                             10.684628    -0.190567
                              5.931463     0.011210
                              3.230992     0.295370
                              1.730655     0.357708
                              0.869483    -0.483437
                              0.440589    -0.603385
                              0.215859     0.215887
                              0.091015     0.715465
                              0.040174     0.271767
                              0.017215     0.004114
   33.1 A     1  2px   52575799.000000    -0.000001
                       15301659.000000    -0.000001
                        4822461.600000    -0.000004
                        1632045.600000    -0.000009
                         584338.640000    -0.000021
                         219508.320000    -0.000047
                          86085.039000    -0.000111
                          35172.956000    -0.000263
                          14975.745000    -0.000636
                           6652.821900    -0.001554
                           3084.270200    -0.003739
                           1489.211300    -0.008475
                            745.288670    -0.016642
                            384.521300    -0.024644
                            203.927220    -0.013367
                            110.523340     0.038637
                             61.345569     0.114090
                             34.404375     0.057493
                             19.094147    -0.152735
                             10.684628    -0.335275
                              5.931463     0.054116
                              3.230992     0.556566
                              1.730655     0.705542
                              0.869483    -1.835570
                              0.440589    -0.012121
                              0.215859     1.665730
                              0.091015    -0.585220
                              0.040174    -0.541179
                              0.017215     0.007323
   34.1 A     1  2py   52575799.000000    -0.000001
                       15301659.000000    -0.000001
                        4822461.600000    -0.000004
                        1632045.600000    -0.000009
                         584338.640000    -0.000021
                         219508.320000    -0.000047
                          86085.039000    -0.000111
                          35172.956000    -0.000263
                          14975.745000    -0.000636
                           6652.821900    -0.001554
                           3084.270200    -0.003739
                           1489.211300    -0.008475
                            745.288670    -0.016642
                            384.521300    -0.024644
                            203.927220    -0.013367
                            110.523340     0.038637
                             61.345569     0.114090
                             34.404375     0.057493
                             19.094147    -0.152735
                             10.684628    -0.335275
                              5.931463     0.054116
                              3.230992     0.556566
                              1.730655     0.705542
                              0.869483    -1.835570
                              0.440589    -0.012121
                              0.215859     1.665730
                              0.091015    -0.585220
                              0.040174    -0.541179
                              0.017215     0.007323
   35.1 A     1  2pz   52575799.000000    -0.000001
                       15301659.000000    -0.000001
                        4822461.600000    -0.000004
                        1632045.600000    -0.000009
                         584338.640000    -0.000021
                         219508.320000    -0.000047
                          86085.039000    -0.000111
                          35172.956000    -0.000263
                          14975.745000    -0.000636
                           6652.821900    -0.001554
                           3084.270200    -0.003739
                           1489.211300    -0.008475
                            745.288670    -0.016642
                            384.521300    -0.024644
                            203.927220    -0.013367
                            110.523340     0.038637
                             61.345569     0.114090
                             34.404375     0.057493
                             19.094147    -0.152735
                             10.684628    -0.335275
                              5.931463     0.054116
                              3.230992     0.556566
                              1.730655     0.705542
                              0.869483    -1.835570
                              0.440589    -0.012121
                              0.215859     1.665730
                              0.091015    -0.585220
                              0.040174    -0.541179
                              0.017215     0.007323
   36.1 A     1  2px   52575799.000000    -0.000001
                       15301659.000000    -0.000002
                        4822461.600000    -0.000006
                        1632045.600000    -0.000012
                         584338.640000    -0.000030
                         219508.320000    -0.000066
                          86085.039000    -0.000157
                          35172.956000    -0.000360
                          14975.745000    -0.000908
                           6652.821900    -0.002110
                           3084.270200    -0.005394
                           1489.211300    -0.011352
                            745.288670    -0.024563
                            384.521300    -0.031084
                            203.927220    -0.026677
                            110.523340     0.074398
                             61.345569     0.122621
                             34.404375     0.158055
                             19.094147    -0.396610
                             10.684628    -0.217370
                              5.931463    -0.310283
                              3.230992     1.975310
                              1.730655    -0.901781
                              0.869483    -2.796670
                              0.440589     4.376690
                              0.215859    -2.312120
                              0.091015    -0.328877
                              0.040174     0.867979
                              0.017215    -0.037454
   37.1 A     1  2py   52575799.000000    -0.000001
                       15301659.000000    -0.000002
                        4822461.600000    -0.000006
                        1632045.600000    -0.000012
                         584338.640000    -0.000030
                         219508.320000    -0.000066
                          86085.039000    -0.000157
                          35172.956000    -0.000360
                          14975.745000    -0.000908
                           6652.821900    -0.002110
                           3084.270200    -0.005394
                           1489.211300    -0.011352
                            745.288670    -0.024563
                            384.521300    -0.031084
                            203.927220    -0.026677
                            110.523340     0.074398
                             61.345569     0.122621
                             34.404375     0.158055
                             19.094147    -0.396610
                             10.684628    -0.217370
                              5.931463    -0.310283
                              3.230992     1.975310
                              1.730655    -0.901781
                              0.869483    -2.796670
                              0.440589     4.376690
                              0.215859    -2.312120
                              0.091015    -0.328877
                              0.040174     0.867979
                              0.017215    -0.037454
   38.1 A     1  2pz   52575799.000000    -0.000001
                       15301659.000000    -0.000002
                        4822461.600000    -0.000006
                        1632045.600000    -0.000012
                         584338.640000    -0.000030
                         219508.320000    -0.000066
                          86085.039000    -0.000157
                          35172.956000    -0.000360
                          14975.745000    -0.000908
                           6652.821900    -0.002110
                           3084.270200    -0.005394
                           1489.211300    -0.011352
                            745.288670    -0.024563
                            384.521300    -0.031084
                            203.927220    -0.026677
                            110.523340     0.074398
                             61.345569     0.122621
                             34.404375     0.158055
                             19.094147    -0.396610
                             10.684628    -0.217370
                              5.931463    -0.310283
                              3.230992     1.975310
                              1.730655    -0.901781
                              0.869483    -2.796670
                              0.440589     4.376690
                              0.215859    -2.312120
                              0.091015    -0.328877
                              0.040174     0.867979
                              0.017215    -0.037454
   39.1 A     1  2px   52575799.000000     0.000000
                       15301659.000000     0.000000
                        4822461.600000     0.000000
                        1632045.600000     0.000000
                         584338.640000     0.000000
                         219508.320000     0.000000
                          86085.039000     0.000000
                          35172.956000     0.000000
                          14975.745000     0.000000
                           6652.821900     0.000000
                           3084.270200     0.000000
                           1489.211300     0.000000
                            745.288670     0.000000
                            384.521300     0.000000
                            203.927220     0.000000
                            110.523340     0.000000
                             61.345569     0.000000
                             34.404375     0.000000
                             19.094147     0.000000
                             10.684628     0.000000
                              5.931463     0.000000
                              3.230992     0.000000
                              1.730655     0.000000
                              0.869483     0.000000
                              0.440589     0.000000
                              0.215859     0.000000
                              0.091015     0.000000
                              0.040174     0.000000
                              0.017215     1.000000
   40.1 A     1  2py   52575799.000000     0.000000
                       15301659.000000     0.000000
                        4822461.600000     0.000000
                        1632045.600000     0.000000
                         584338.640000     0.000000
                         219508.320000     0.000000
                          86085.039000     0.000000
                          35172.956000     0.000000
                          14975.745000     0.000000
                           6652.821900     0.000000
                           3084.270200     0.000000
                           1489.211300     0.000000
                            745.288670     0.000000
                            384.521300     0.000000
                            203.927220     0.000000
                            110.523340     0.000000
                             61.345569     0.000000
                             34.404375     0.000000
                             19.094147     0.000000
                             10.684628     0.000000
                              5.931463     0.000000
                              3.230992     0.000000
                              1.730655     0.000000
                              0.869483     0.000000
                              0.440589     0.000000
                              0.215859     0.000000
                              0.091015     0.000000
                              0.040174     0.000000
                              0.017215     1.000000
   41.1 A     1  2pz   52575799.000000     0.000000
                       15301659.000000     0.000000
                        4822461.600000     0.000000
                        1632045.600000     0.000000
                         584338.640000     0.000000
                         219508.320000     0.000000
                          86085.039000     0.000000
                          35172.956000     0.000000
                          14975.745000     0.000000
                           6652.821900     0.000000
                           3084.270200     0.000000
                           1489.211300     0.000000
                            745.288670     0.000000
                            384.521300     0.000000
                            203.927220     0.000000
                            110.523340     0.000000
                             61.345569     0.000000
                             34.404375     0.000000
                             19.094147     0.000000
                             10.684628     0.000000
                              5.931463     0.000000
                              3.230992     0.000000
                              1.730655     0.000000
                              0.869483     0.000000
                              0.440589     0.000000
                              0.215859     0.000000
                              0.091015     0.000000
                              0.040174     0.000000
                              0.017215     1.000000
   42.1 A     1  3d0     105911.200000     0.000020
                          24974.572000     0.000129
                           8108.852700     0.000677
                           3150.520500     0.003052
                           1380.647900     0.011950
                            658.188950     0.039706
                            332.909040     0.108875
                            176.023220     0.231727
                             95.780704     0.354949
                             53.337287     0.336096
                             29.864821     0.140603
                             16.526778    -0.033742
                              9.155323    -0.064042
                              4.984876    -0.024095
                              2.636633    -0.002233
                              1.354062     0.000305
                              0.656031     0.000103
                              0.269853     0.000008
                              0.103443     0.000000
                              0.036685     0.000000
   43.1 A     1  3d2-    105911.200000     0.000020
                          24974.572000     0.000129
                           8108.852700     0.000677
                           3150.520500     0.003052
                           1380.647900     0.011950
                            658.188950     0.039706
                            332.909040     0.108875
                            176.023220     0.231727
                             95.780704     0.354949
                             53.337287     0.336096
                             29.864821     0.140603
                             16.526778    -0.033742
                              9.155323    -0.064042
                              4.984876    -0.024095
                              2.636633    -0.002233
                              1.354062     0.000305
                              0.656031     0.000103
                              0.269853     0.000008
                              0.103443     0.000000
                              0.036685     0.000000
   44.1 A     1  3d1+    105911.200000     0.000020
                          24974.572000     0.000129
                           8108.852700     0.000677
                           3150.520500     0.003052
                           1380.647900     0.011950
                            658.188950     0.039706
                            332.909040     0.108875
                            176.023220     0.231727
                             95.780704     0.354949
                             53.337287     0.336096
                             29.864821     0.140603
                             16.526778    -0.033742
                              9.155323    -0.064042
                              4.984876    -0.024095
                              2.636633    -0.002233
                              1.354062     0.000305
                              0.656031     0.000103
                              0.269853     0.000008
                              0.103443     0.000000
                              0.036685     0.000000
   45.1 A     1  3d2+    105911.200000     0.000020
                          24974.572000     0.000129
                           8108.852700     0.000677
                           3150.520500     0.003052
                           1380.647900     0.011950
                            658.188950     0.039706
                            332.909040     0.108875
                            176.023220     0.231727
                             95.780704     0.354949
                             53.337287     0.336096
                             29.864821     0.140603
                             16.526778    -0.033742
                              9.155323    -0.064042
                              4.984876    -0.024095
                              2.636633    -0.002233
                              1.354062     0.000305
                              0.656031     0.000103
                              0.269853     0.000008
                              0.103443     0.000000
                              0.036685     0.000000
   46.1 A     1  3d1-    105911.200000     0.000020
                          24974.572000     0.000129
                           8108.852700     0.000677
                           3150.520500     0.003052
                           1380.647900     0.011950
                            658.188950     0.039706
                            332.909040     0.108875
                            176.023220     0.231727
                             95.780704     0.354949
                             53.337287     0.336096
                             29.864821     0.140603
                             16.526778    -0.033742
                              9.155323    -0.064042
                              4.984876    -0.024095
                              2.636633    -0.002233
                              1.354062     0.000305
                              0.656031     0.000103
                              0.269853     0.000008
                              0.103443     0.000000
                              0.036685     0.000000
   47.1 A     1  3d0     105911.200000    -0.000007
                          24974.572000    -0.000047
                           8108.852700    -0.000246
                           3150.520500    -0.001113
                           1380.647900    -0.004403
                            658.188950    -0.014782
                            332.909040    -0.041545
                            176.023220    -0.089264
                             95.780704    -0.132364
                             53.337287    -0.078125
                             29.864821     0.163137
                             16.526778     0.427766
                              9.155323     0.404323
                              4.984876     0.149842
                              2.636633     0.013528
                              1.354062    -0.001244
                              0.656031    -0.000625
                              0.269853    -0.000007
                              0.103443    -0.000015
                              0.036685     0.000003
   48.1 A     1  3d2-    105911.200000    -0.000007
                          24974.572000    -0.000047
                           8108.852700    -0.000246
                           3150.520500    -0.001113
                           1380.647900    -0.004403
                            658.188950    -0.014782
                            332.909040    -0.041545
                            176.023220    -0.089264
                             95.780704    -0.132364
                             53.337287    -0.078125
                             29.864821     0.163137
                             16.526778     0.427766
                              9.155323     0.404323
                              4.984876     0.149842
                              2.636633     0.013528
                              1.354062    -0.001244
                              0.656031    -0.000625
                              0.269853    -0.000007
                              0.103443    -0.000015
                              0.036685     0.000003
   49.1 A     1  3d1+    105911.200000    -0.000007
                          24974.572000    -0.000047
                           8108.852700    -0.000246
                           3150.520500    -0.001113
                           1380.647900    -0.004403
                            658.188950    -0.014782
                            332.909040    -0.041545
                            176.023220    -0.089264
                             95.780704    -0.132364
                             53.337287    -0.078125
                             29.864821     0.163137
                             16.526778     0.427766
                              9.155323     0.404323
                              4.984876     0.149842
                              2.636633     0.013528
                              1.354062    -0.001244
                              0.656031    -0.000625
                              0.269853    -0.000007
                              0.103443    -0.000015
                              0.036685     0.000003
   50.1 A     1  3d2+    105911.200000    -0.000007
                          24974.572000    -0.000047
                           8108.852700    -0.000246
                           3150.520500    -0.001113
                           1380.647900    -0.004403
                            658.188950    -0.014782
                            332.909040    -0.041545
                            176.023220    -0.089264
                             95.780704    -0.132364
                             53.337287    -0.078125
                             29.864821     0.163137
                             16.526778     0.427766
                              9.155323     0.404323
                              4.984876     0.149842
                              2.636633     0.013528
                              1.354062    -0.001244
                              0.656031    -0.000625
                              0.269853    -0.000007
                              0.103443    -0.000015
                              0.036685     0.000003
   51.1 A     1  3d1-    105911.200000    -0.000007
                          24974.572000    -0.000047
                           8108.852700    -0.000246
                           3150.520500    -0.001113
                           1380.647900    -0.004403
                            658.188950    -0.014782
                            332.909040    -0.041545
                            176.023220    -0.089264
                             95.780704    -0.132364
                             53.337287    -0.078125
                             29.864821     0.163137
                             16.526778     0.427766
                              9.155323     0.404323
                              4.984876     0.149842
                              2.636633     0.013528
                              1.354062    -0.001244
                              0.656031    -0.000625
                              0.269853    -0.000007
                              0.103443    -0.000015
                              0.036685     0.000003
   52.1 A     1  3d0     105911.200000     0.000004
                          24974.572000     0.000029
                           8108.852700     0.000151
                           3150.520500     0.000680
                           1380.647900     0.002694
                            658.188950     0.009015
                            332.909040     0.025311
                            176.023220     0.054175
                             95.780704     0.081018
                             53.337287     0.048855
                             29.864821    -0.090265
                             16.526778    -0.246113
                              9.155323    -0.206236
                              4.984876     0.172306
                              2.636633     0.505507
                              1.354062     0.395599
                              0.656031     0.111489
                              0.269853     0.006247
                              0.103443    -0.000029
                              0.036685    -0.000036
   53.1 A     1  3d2-    105911.200000     0.000004
                          24974.572000     0.000029
                           8108.852700     0.000151
                           3150.520500     0.000680
                           1380.647900     0.002694
                            658.188950     0.009015
                            332.909040     0.025311
                            176.023220     0.054175
                             95.780704     0.081018
                             53.337287     0.048855
                             29.864821    -0.090265
                             16.526778    -0.246113
                              9.155323    -0.206236
                              4.984876     0.172306
                              2.636633     0.505507
                              1.354062     0.395599
                              0.656031     0.111489
                              0.269853     0.006247
                              0.103443    -0.000029
                              0.036685    -0.000036
   54.1 A     1  3d1+    105911.200000     0.000004
                          24974.572000     0.000029
                           8108.852700     0.000151
                           3150.520500     0.000680
                           1380.647900     0.002694
                            658.188950     0.009015
                            332.909040     0.025311
                            176.023220     0.054175
                             95.780704     0.081018
                             53.337287     0.048855
                             29.864821    -0.090265
                             16.526778    -0.246113
                              9.155323    -0.206236
                              4.984876     0.172306
                              2.636633     0.505507
                              1.354062     0.395599
                              0.656031     0.111489
                              0.269853     0.006247
                              0.103443    -0.000029
                              0.036685    -0.000036
   55.1 A     1  3d2+    105911.200000     0.000004
                          24974.572000     0.000029
                           8108.852700     0.000151
                           3150.520500     0.000680
                           1380.647900     0.002694
                            658.188950     0.009015
                            332.909040     0.025311
                            176.023220     0.054175
                             95.780704     0.081018
                             53.337287     0.048855
                             29.864821    -0.090265
                             16.526778    -0.246113
                              9.155323    -0.206236
                              4.984876     0.172306
                              2.636633     0.505507
                              1.354062     0.395599
                              0.656031     0.111489
                              0.269853     0.006247
                              0.103443    -0.000029
                              0.036685    -0.000036
   56.1 A     1  3d1-    105911.200000     0.000004
                          24974.572000     0.000029
                           8108.852700     0.000151
                           3150.520500     0.000680
                           1380.647900     0.002694
                            658.188950     0.009015
                            332.909040     0.025311
                            176.023220     0.054175
                             95.780704     0.081018
                             53.337287     0.048855
                             29.864821    -0.090265
                             16.526778    -0.246113
                              9.155323    -0.206236
                              4.984876     0.172306
                              2.636633     0.505507
                              1.354062     0.395599
                              0.656031     0.111489
                              0.269853     0.006247
                              0.103443    -0.000029
                              0.036685    -0.000036
   57.1 A     1  3d0     105911.200000    -0.000001
                          24974.572000    -0.000008
                           8108.852700    -0.000042
                           3150.520500    -0.000189
                           1380.647900    -0.000746
                            658.188950    -0.002504
                            332.909040    -0.007016
                            176.023220    -0.015063
                             95.780704    -0.022420
                             53.337287    -0.013378
                             29.864821     0.026555
                             16.526778     0.070496
                              9.155323     0.058301
                              4.984876    -0.065834
                              2.636633    -0.177473
                              1.354062    -0.127085
                              0.656031     0.181760
                              0.269853     0.495490
                              0.103443     0.447072
                              0.036685     0.116353
   58.1 A     1  3d2-    105911.200000    -0.000001
                          24974.572000    -0.000008
                           8108.852700    -0.000042
                           3150.520500    -0.000189
                           1380.647900    -0.000746
                            658.188950    -0.002504
                            332.909040    -0.007016
                            176.023220    -0.015063
                             95.780704    -0.022420
                             53.337287    -0.013378
                             29.864821     0.026555
                             16.526778     0.070496
                              9.155323     0.058301
                              4.984876    -0.065834
                              2.636633    -0.177473
                              1.354062    -0.127085
                              0.656031     0.181760
                              0.269853     0.495490
                              0.103443     0.447072
                              0.036685     0.116353
   59.1 A     1  3d1+    105911.200000    -0.000001
                          24974.572000    -0.000008
                           8108.852700    -0.000042
                           3150.520500    -0.000189
                           1380.647900    -0.000746
                            658.188950    -0.002504
                            332.909040    -0.007016
                            176.023220    -0.015063
                             95.780704    -0.022420
                             53.337287    -0.013378
[...]
                                    5  4  s   -0.68485    6  5  s   -0.25361    7  4  s   -0.60874    8  5  s   -0.85235
                                    8  4  px   0.49528    8  4  py   0.82429    8  4  pz  -0.78058    9  3  s    0.86671
                                    9  4  s    4.33532   10  4  px   0.26157   11  4  s    0.77278   11  5  s   -2.73504
                                   11  3  px   0.70355   11  3  py   1.37368   11  3  pz  -1.10621   11  4  px   0.46773
                                   11  4  py   0.92815   11  4  pz  -0.75375   12  5  s   -1.34679   12  6  s   -2.81015
                                   12  4  px   0.46390   12  4  py   0.87481   12  4  pz  -0.72091   12  5  px   0.27477
                                   12  5  py   0.49227   12  5  pz  -0.42824   12  3  d1-  0.26147
   86.1     0.00000     0.06597     1  5  s    0.60044    1  6  s    2.02685    1  7  s    2.48003    1  8  s    0.27565
                                    1 11  s    7.16667    1  5  py   0.42303    1  5  pz  -0.40512    1  6  px   0.97141
                                    1  6  py   1.55166    1  6  pz  -1.52296    1 10  px  -0.71362    1 10  py  -1.02074
                                    1 10  pz   1.01030    1  4  d1-  0.29328    1  2  f2+ -0.25717    2  5  s    1.17303
                                    2  4  px   1.00505    2  4  py   1.88144    2  4  pz  -1.60636    3  3  s   -0.63312
                                    3  4  s   -2.39125    4  4  px  -0.44265    4  4  py   0.45300    5  3  s   -0.59864
                                    5  4  s   -2.26536    6  4  py  -0.34554    6  4  pz  -0.50598    7  3  s   -0.59856
                                    7  4  s   -2.29542    8  5  s    0.93614    9  3  s   -0.66806    9  4  s   -2.23194
                                   10  4  px   0.53250   10  4  pz   0.29963   11  4  s   -0.44475   11  5  s   -5.29515
                                   11  4  py   0.29239   12  6  s    1.10134   12  5  py  -0.26711
   87.1     0.00000     0.07824     1  7  s   -0.74318    1 11  s    8.16550    1  4  py   0.33140    1  4  pz  -0.31027
                                    1  5  px   1.06568    1  5  py   1.84750    1  5  pz  -1.72505    1  6  px   3.41813
                                    1  6  py   6.08574    1  6  pz  -5.54084    1  7  px  -0.35636    1  7  py  -0.70043
                                    1  7  pz   0.57891    1  8  py   0.25767    1 10  px  -2.19904    1 10  py  -3.84837
                                    1 10  pz   3.51409    1  4  d2-  0.25874    1  4  d1- -0.42893    1  8  d2-  0.73598
                                    1  8  d1+ -0.59501    1  8  d2+ -0.51816    1  8  d1- -1.16740    2  4  s    0.48481
                                    2  5  s   -2.33419    2  4  px   1.62296    2  4  py   2.70768    2  4  pz  -2.59264
                                    2  3  d1-  0.26446    3  3  s   -0.58761    3  4  s   -1.12982    4  5  s    2.09419
                                    5  3  s   -0.55770    5  4  s   -1.10512    6  5  s    1.97881    7  3  s   -0.52717
                                    7  4  s   -1.09984    8  5  s    2.87890    9  3  s   -1.02588    9  4  s   -3.77190
                                    9  3  py  -0.25103   10  5  s    2.03104   11  4  s    3.61873   11  5  s    2.33879
                                   11  3  px   1.09880   11  3  py   2.17248   11  3  pz  -1.70900   11  4  px   1.50747
                                   11  4  py   3.00559   11  4  pz  -2.35459   12  5  s   -2.32865   12  6  s   -9.23385
                                   12  4  px   1.00933   12  4  py   1.96753   12  4  pz  -1.58212   12  5  px   0.91863
                                   12  5  py   1.76256   12  5  pz  -1.44110   12  3  d2- -0.35695   12  3  d1+  0.28839
                                   12  3  d2+  0.25508   12  3  d1-  0.56101
   88.1     0.00000     0.08462     1  6  s   -0.30620    1  7  s   -0.47634    1 11  s    1.39093    1  5  px   0.26774
                                    1  6  px   1.79876    1  6  pz  -0.85056    1  7  px  -0.54782    1 10  px  -0.72802
                                    1 10  pz   0.40094    1  4  d1+ -0.34730    1  4  d2+  0.41372    1  8  d2-  0.71689
                                    1  8  d1+ -1.24584    1  8  d2+  1.21815    1  8  d1-  0.35655    1  2  f1+  0.25136
                                    1  2  f2+ -0.26597    2  5  s    0.29221    2  3  px  -0.40940    2  3  py   0.27016
                                    2  4  px  -1.69519    2  4  py   1.84183    4  5  s    0.44432    4  4  px   0.31816
                                    4  4  py   0.30586    4  4  pz  -0.42343    6  5  s    0.26726    8  5  s    0.30176
                                    8  4  px   0.82500    8  4  py  -0.42908    9  4  s   -0.38009   10  5  s    0.27290
                                   10  4  pz   0.30531   11  5  s   -1.25750   11  1  px  -0.26100   11  3  px   0.32960
                                   11  4  px   0.73068   11  3  d1+  0.33996   11  3  d2+ -0.46257   12  4  px   0.35184
                                   12  5  px   0.29816


 HOMO     78.1    -0.334732 =      -9.1085eV
 LUMO     79.1     0.017793 =       0.4842eV
 LUMO-HOMO         0.352526 =       9.5927eV

 Orbitals saved in record  2100.2


 **********************************************************************************************************************************
 DATASETS  * FILE   NREC   LENGTH (MB)   RECORD NAMES
              1      22       56.09       500      610      700      900      950      970     1000      129      960     1700   
                                          VAR    BASINP    GEOM    SYMINP    ZMAT    AOBASIS   BASIS     P2S    ABASIS    OPER   
                                         1101     1401     1411     1412     1650     1100     1400     1410     1200     1210   
                                          SR      EKINR    POTR     PVPR    MOLCAS      S      EKIN      POT      H0       H01  
                                         1080     1600   
                                         AOSYM     SMH  

              2       6       17.30       500      610      700     1000      520     2100   
                                          VAR    BASINP    GEOM     BASIS   MCVARS     RHF  

 PROGRAMS   *        TOTAL    HF-SCF       INT      FILE
 CPU TIMES  *       601.62    181.64    419.72      0.02
 REAL TIME  *       641.96 SEC
 DISK USED  *        96.64 MB (local),      165.23 GB (total)
 GA USED    *         0.01 MB       (max)       0.00 MB       (current)
 **********************************************************************************************************************************

 STRING TOO SHORT IN GETSTR FOR VARIABLE BASIS
 ONLY   1 OF  1 SUBSTRINGS WILL BE RETURNED. LAST ONE IS TRUNCATED


 PROGRAM * CCSD (Closed-shell coupled cluster)     Authors: C. Hampel, H.-J. Werner, 1991, M. Deegan, P.J. Knowles, 1992


 Convergence thresholds:  THRVAR = 1.00D-07  THRDEN = 1.00D-06

 CCSD(T)     terms to be evaluated (factor= 1.000)


 Number of core orbitals:          50 (  50 )
 Number of closed-shell orbitals:  28 (  28 )
 Number of external orbitals:     501 ( 501 )

 Molecular orbitals read from record     2100.2  Type=RHF/CANONICAL  

 Number of N-1 electron functions:              28
 Number of N-2 electron functions:             406
 Number of singly external CSFs:             14028
 Number of doubly external CSFs:          98399406
 Total number of CSFs:                    98413435

 Length of J-op  integral file:               0.00 MB
 Length of K-op  integral file:              23.02 MB
 Length of 3-ext integral record:             0.00 MB

 For full I/O caching in triples, increase memory by 1562.01 Mwords to 4062.06 Mwords.

 Multipassing necessary in transformation. To avoid, increase memory by 541.61 Mwords.

 Integral transformation finished. Total CPU:2074.34 sec, npass=  2  Memory used:2491.60 MW

 Reference energy:                 -28014.49496835

 MP2 singlet pair energy:              -1.16919889
 MP2 triplet pair energy:              -0.79013866
 MP2 correlation energy:               -1.95933755
 MP2 total energy:                 -28016.45430591

 SCS-MP2 correlation energy:           -1.89468050   (PS=  1.200000  PT=  0.333333)
 SCS-MP2 total energy:             -28016.38964886

 ITER.      SQ.NORM     CORR.ENERGY   TOTAL ENERGY   ENERGY CHANGE        DEN1      VAR(S)    VAR(P)  DIIS     TIME  TIME/IT
   1      1.55162598    -1.95956927-28016.45453763    -0.00023172     0.07429026  0.31D-01  0.16D-01  1  1  3284.52   609.05
   2      1.59280041    -1.95094872-28016.44591707     0.00862055    -0.05211486  0.47D-03  0.25D-02  2  2  3905.64   620.85
   3      1.61803037    -1.95327565-28016.44824401    -0.00232693    -0.00729131  0.13D-02  0.20D-03  3  3  4527.38   624.81
   4      1.62945587    -1.95218968-28016.44715803     0.00108598    -0.00361469  0.28D-03  0.49D-04  4  4  5150.13   627.30
   5      1.62814668    -1.95216289-28016.44713124     0.00002679     0.00021834  0.32D-03  0.62D-04  5  5  5773.30   629.13
   6      1.63655899    -1.95162068-28016.44658903     0.00054221    -0.00201933  0.14D-03  0.22D-04  6  6  6398.13   630.77
   7      1.63961564    -1.95154123-28016.44650958     0.00007945    -0.00049252  0.69D-04  0.96D-05  6  1  7024.18   632.07
   8      1.63972295    -1.95153245-28016.44650081     0.00000878    -0.00016917  0.74D-04  0.16D-04  6  3  7649.20   632.87
   9      1.64311693    -1.95119864-28016.44616699     0.00033381    -0.00036171  0.26D-04  0.75D-05  6  2  8274.40   633.54
  10      1.64344783    -1.95115949-28016.44612784     0.00003915     0.00004824  0.15D-04  0.62D-05  6  4  8899.57   634.06
  11      1.64401128    -1.95102132-28016.44598967     0.00013817    -0.00027327  0.14D-04  0.81D-05  6  1  9524.11   634.44
  12      1.64519376    -1.95114946-28016.44611782    -0.00012815     0.00016200  0.13D-04  0.22D-05  6  5 10187.55   638.18
  13      1.64523131    -1.95114053-28016.44610888     0.00000893    -0.00001445  0.13D-04  0.22D-05  6  6 11039.97   656.20
  14      1.64485768    -1.95114219-28016.44611055    -0.00000166     0.00002304  0.13D-04  0.24D-05  6  3 11857.10   668.93
  15      1.64601368    -1.95102799-28016.44599634     0.00011421    -0.00022266  0.97D-05  0.25D-05  6  6 12479.61   666.82
  16      1.64534122    -1.95111000-28016.44607836    -0.00008202     0.00016632  0.11D-04  0.22D-05  6  2 13102.25   664.99
  17      1.64621793    -1.95104158-28016.44600993     0.00006842    -0.00012458  0.87D-05  0.25D-05  6  6 13724.51   663.34
  18      1.64768975    -1.95090539-28016.44587374     0.00013619    -0.00019905  0.45D-05  0.20D-05  6  4 14350.16   662.08
  19      1.64794077    -1.95087856-28016.44584692     0.00002682    -0.00002261  0.37D-05  0.13D-05  6  1 15041.10   664.52
  20      1.64861999    -1.95077928-28016.44574763     0.00009929    -0.00014531  0.54D-05  0.15D-05  6  5 15716.25   665.96
  21      1.64758204    -1.95085282-28016.44582117    -0.00007354     0.00014077  0.39D-05  0.17D-05  6  3 16424.29   668.72
  22      1.64757488    -1.95084828-28016.44581663     0.00000454    -0.00000323  0.41D-05  0.18D-05  6  6 17141.37   671.66
  23      1.64746859    -1.95084816-28016.44581651     0.00000012    -0.00000038  0.42D-05  0.21D-05  6  3 17835.96   673.28
  24      1.64742248    -1.95086964-28016.44583799    -0.00002148     0.00003456  0.35D-05  0.17D-05  6  6 18537.66   675.09
  25      1.64744621    -1.95086278-28016.44583114     0.00000686    -0.00001085  0.37D-05  0.18D-05  6  3 19267.08   677.94
  26      1.64750791    -1.95084687-28016.44581523     0.00001591    -0.00002506  0.42D-05  0.20D-05  6  6 20033.05   681.91
  27      1.64755378    -1.95086657-28016.44583493    -0.00001970     0.00003242  0.34D-05  0.15D-05  6  3 20818.39   686.29
  28      1.64746367    -1.95087589-28016.44584425    -0.00000932     0.00001885  0.32D-05  0.16D-05  6  6 21615.39   690.86
  29      1.64769379    -1.95084829-28016.44581665     0.00002760    -0.00004327  0.38D-05  0.16D-05  6  3 22414.61   695.15
  30      1.64744520    -1.95100604-28016.44597440    -0.00015775     0.00025838  0.16D-05  0.62D-06  6  5 23170.74   697.70
  31      1.64745982    -1.95100893-28016.44597728    -0.00000289    -0.00000300  0.20D-05  0.93D-06  6  1 23974.71   701.64
  32      1.64781895    -1.95100376-28016.44597212     0.00000517     0.00002803  0.83D-06  0.63D-06  6  2 24737.62   704.04
  33      1.64756050    -1.95099440-28016.44596276     0.00000936    -0.00001915  0.85D-06  0.27D-06  6  4 25498.78   706.22
  34      1.64774776    -1.95095863-28016.44592699     0.00003577    -0.00004037  0.83D-06  0.44D-06  6  2 26322.55   710.14
  35      1.64775461    -1.95095595-28016.44592430     0.00000269    -0.00000098  0.78D-06  0.30D-06  6  1 27098.19   712.47
  36      1.64797025    -1.95091484-28016.44588319     0.00004111    -0.00005392  0.14D-05  0.27D-06  6  5 27859.23   714.26
  37      1.64794211    -1.95095921-28016.44592756    -0.00004437     0.00006443  0.64D-06  0.11D-06  6  3 28665.29   717.17
  38      1.64795544    -1.95095621-28016.44592456     0.00000300    -0.00000635  0.73D-06  0.14D-06  6  6 29408.00   718.24
  39      1.64786401    -1.95095486-28016.44592321     0.00000135     0.00000019  0.67D-06  0.12D-06  6  3 30129.62   718.72
  40      1.64779581    -1.95098284-28016.44595119    -0.00002798     0.00004105  0.37D-06  0.97D-07  6  6 30896.43   720.31
  41      1.64774950    -1.95098164-28016.44595000     0.00000119    -0.00000184  0.35D-06  0.67D-07  6  4 31669.35   721.97
  42      1.64752926    -1.95100316-28016.44597151    -0.00002151     0.00003116  0.22D-06  0.26D-07  6  2 32455.05   723.87
  43      1.64751188    -1.95100852-28016.44597688    -0.00000537     0.00000870  0.15D-06  0.18D-07  6  5 33206.51   724.87
  44      1.64741513    -1.95102715-28016.44599551    -0.00001863     0.00002932  0.88D-07  0.24D-07  6  1 33959.44   725.86
  45      1.64743739    -1.95102407-28016.44599242     0.00000309    -0.00000341  0.55D-07  0.14D-07  6  6 34717.64   726.92
  46      1.64738716    -1.95102662-28016.44599497    -0.00000255     0.00000579  0.85D-07  0.20D-07  6  3 35486.70   728.17
  47      1.64738099    -1.95102897-28016.44599732    -0.00000235     0.00000151  0.74D-07  0.16D-07  6  2 36260.82   729.49
  48      1.64739691    -1.95102759-28016.44599595     0.00000138    -0.00000252  0.62D-07  0.12D-07  6  4 37008.50   730.22
  49      1.64737771    -1.95103214-28016.44600049    -0.00000455     0.00000522  0.49D-07  0.12D-07  6  5 37734.48   730.47
  50      1.64737797    -1.95103083-28016.44599919     0.00000131    -0.00000143  0.42D-07  0.85D-08  6  1 38473.86   730.95
  51      1.64736027    -1.95103216-28016.44600051    -0.00000132     0.00000151  0.38D-07  0.93D-08  6  2 39190.67   730.97
  52      1.64740838    -1.95102834-28016.44599670     0.00000381    -0.00000524  0.97D-08  0.29D-08  6  3 39889.67   730.63
  53      1.64741167    -1.95102837-28016.44599673    -0.00000003    -0.00000010  0.91D-08  0.27D-08  6  1 40654.25   731.57
  54      1.64740450    -1.95103000-28016.44599836    -0.00000163     0.00000191  0.13D-07  0.27D-08  6  6 41402.79   732.20
  55      1.64740910    -1.95103081-28016.44599917    -0.00000081     0.00000057  0.13D-07  0.27D-08  6  2 42192.67   733.53
  56      1.64741583    -1.95102994-28016.44599829     0.00000088    -0.00000144  0.11D-07  0.23D-08  6  5 42932.81   733.93

 Norm of t1 vector:      0.25070089      S-energy:    -0.00001364      T1 diagnostic:  0.02368901
                                                                       D1 diagnostic:  0.06566612
                                                                       D2 diagnostic:  0.17194632 (internal)

 Singles amplitudes (print threshold =  0.500E-01):

         I         SYM. A    A   T(IA)

        19         1        22      0.05818924

   CPU time for triples:   4196.79 sec for i =  1 - 14 / 28 (~  13.5 % done)
   CPU time for triples:   2119.18 sec for i = 15 - 18 / 28 (~  27.8 % done)
   CPU time for triples:   2342.23 sec for i = 19 - 21 / 28 (~  43.4 % done)
   CPU time for triples:   2741.28 sec for i = 22 - 22 / 28 (~  49.7 % done)
   CPU time for triples:   2751.46 sec for i = 23 - 24 / 28 (~  63.9 % done)
   CPU time for triples:   2951.24 sec for i = 25 - 26 / 28 (~  80.6 % done)
   CPU time for triples:   2351.29 sec for i = 27 - 27 / 28 (~  90.0 % done)
   CPU time for triples:   2053.15 sec for i = 28 - 28 / 28 (  100.0 % done)

 Total CPU time for triples:  21544.21 sec


 RESULTS
 =======

  Reference energy                   -28014.4949683548    
  CCSD singlet pair energy             -1.256273001602
  CCSD triplet pair energy             -0.694743297977
  CCSD correlation energy              -1.951029938287

  Triples (T) contribution             -0.104451270606
  Total correlation energy             -2.055481208894

  CCSD total energy                  -28016.4459982931    
  CCSD[T] energy                     -28016.5619375577    
  CCSD-T energy                      -28016.5465509149    
 !CCSD(T) total energy               -28016.5504495637    

 Timing summary (sec):

 STEP                 CPU(USER)    SYS     CPU(TOT)    WALL
 Transformation       2077.32     74.11   2151.43   2151.04
 CCSD iterations     40880.76    853.59  41734.35  41120.46
 Triples             21544.21    193.58  21737.79  21731.49

 Program statistics:

 Available memory in ccsd:              2499996786
 Min. memory needed in ccsd:             222853045
 Max. memory used in ccsd:               315386731
 Max. memory used in cckext:             275975727 (56 integral passes)



 **********************************************************************************************************************************
 DATASETS  * FILE   NREC   LENGTH (MB)   RECORD NAMES
              1      23    15078.27       500      610      700      900      950      970     1000      129      960     1700   
                                          VAR    BASINP    GEOM    SYMINP    ZMAT    AOBASIS   BASIS     P2S    ABASIS    OPER   
                                         1101     1401     1411     1412     1650     1100     1400     1410     1200     1210   
                                          SR      EKINR    POTR     PVPR    MOLCAS      S      EKIN      POT      H0       H01  
                                         1080     1600     1380   
                                         AOSYM     SMH     JKOP   

              2       6       17.30       500      610      700     1000      520     2100   
                                          VAR    BASINP    GEOM     BASIS   MCVARS     RHF  

 PROGRAMS   *        TOTAL   CCSD(T)    HF-SCF       INT      FILE
 CPU TIMES  *     64501.31  63899.69    181.64    419.72      0.02
 REAL TIME  *     65653.71 SEC
 DISK USED  *        23.85 GB (local),      408.70 GB (total)
 SF USED    *        25.02 GB
 GA USED    *         0.01 MB       (max)       0.00 MB       (current)
 **********************************************************************************************************************************

 STRING TOO SHORT IN GETSTR FOR VARIABLE BASIS
 ONLY   1 OF  1 SUBSTRINGS WILL BE RETURNED. LAST ONE IS TRUNCATED
 SETTING ENERGY_HF(1)   =    -28014.49496835  AU                              
 SETTING CORR_MP2(1)    =        -1.95933755  AU                              
 SETTING CORR_CCSDT(1)  =        -2.05548121  AU                              

 CCSD(T)/PA=CC-PVTZ-X2C,O=AUG-CC-PVTZ-X2C,H=AUG-CC-PVTZ-X2C,N=AUG-CC-PVTZ-X2C,C=AUG-CC-PV energy= -28016.550449563696

         CCSD(T)          HF-SCF
 -28016.55044956 -28014.49496835
 **********************************************************************************************************************************
 Molpro calculation terminated
