 Entering Gaussian System, Link 0=/home/pcmt/gaussian/g16.C.01/g16/g16
 AtFile(1): /home/shaaban/basis.gaussian/Pa-def-TZVP
 AtFile(1): /home/shaaban/basis.gaussian/Pa-ECP60MWB
 Initial command:
 /home/pcmt/gaussian/g16.C.01/g16/l1.exe "/state/partition2/shaaban/973080.phlam-s-sakura/Gau-3536.inp" -scrdir="/state/partition2/shaaban/973080.phlam-s-sakura/"
 Entering Link 1 = /home/pcmt/gaussian/g16.C.01/g16/l1.exe PID=      3537.
  
 Copyright (c) 1988-2019, Gaussian, Inc.  All Rights Reserved.
  
 This is part of the Gaussian(R) 16 program.  It is based on
 the Gaussian(R) 09 system (copyright 2009, Gaussian, Inc.),
 the Gaussian(R) 03 system (copyright 2003, Gaussian, Inc.),
 the Gaussian(R) 98 system (copyright 1998, Gaussian, Inc.),
 the Gaussian(R) 94 system (copyright 1995, Gaussian, Inc.),
 the Gaussian 92(TM) system (copyright 1992, Gaussian, Inc.),
 the Gaussian 90(TM) system (copyright 1990, Gaussian, Inc.),
 the Gaussian 88(TM) system (copyright 1988, Gaussian, Inc.),
 the Gaussian 86(TM) system (copyright 1986, Carnegie Mellon
 University), and the Gaussian 82(TM) system (copyright 1983,
 Carnegie Mellon University). Gaussian is a federally registered
 trademark of Gaussian, Inc.
  
 This software contains proprietary and confidential information,
 including trade secrets, belonging to Gaussian, Inc.
  
 This software is provided under written license and may be
 used, copied, transmitted, or stored only in accord with that
 written license.
  
 The following legend is applicable only to US Government
 contracts under FAR:
  
                    RESTRICTED RIGHTS LEGEND
  
 Use, reproduction and disclosure by the US Government is
 subject to restrictions as set forth in subparagraphs (a)
 and (c) of the Commercial Computer Software - Restricted
 Rights clause in FAR 52.227-19.
  
 Gaussian, Inc.
 340 Quinnipiac St., Bldg. 40, Wallingford CT 06492
  
  
 ---------------------------------------------------------------
 Warning -- This program may not be used in any manner that
 competes with the business of Gaussian, Inc. or will provide
 assistance to any competitor of Gaussian, Inc.  The licensee
 of this program is prohibited from giving any competitor of
 Gaussian, Inc. access to this program.  By using this program,
 the user acknowledges that Gaussian, Inc. is engaged in the
 business of creating and licensing software in the field of
 computational chemistry and represents and warrants to the
 licensee that it is not a competitor of Gaussian, Inc. and that
 it will not use this program in any manner prohibited above.
 ---------------------------------------------------------------
  

 Cite this work as:
 Gaussian 16, Revision C.01,
 M. J. Frisch, G. W. Trucks, H. B. Schlegel, G. E. Scuseria, 
 M. A. Robb, J. R. Cheeseman, G. Scalmani, V. Barone, 
 G. A. Petersson, H. Nakatsuji, X. Li, M. Caricato, A. V. Marenich, 
 J. Bloino, B. G. Janesko, R. Gomperts, B. Mennucci, H. P. Hratchian, 
 J. V. Ortiz, A. F. Izmaylov, J. L. Sonnenberg, D. Williams-Young, 
 F. Ding, F. Lipparini, F. Egidi, J. Goings, B. Peng, A. Petrone, 
 T. Henderson, D. Ranasinghe, V. G. Zakrzewski, J. Gao, N. Rega, 
 G. Zheng, W. Liang, M. Hada, M. Ehara, K. Toyota, R. Fukuda, 
 J. Hasegawa, M. Ishida, T. Nakajima, Y. Honda, O. Kitao, H. Nakai, 
 T. Vreven, K. Throssell, J. A. Montgomery, Jr., J. E. Peralta, 
 F. Ogliaro, M. J. Bearpark, J. J. Heyd, E. N. Brothers, K. N. Kudin, 
 V. N. Staroverov, T. A. Keith, R. Kobayashi, J. Normand, 
 K. Raghavachari, A. P. Rendell, J. C. Burant, S. S. Iyengar, 
 J. Tomasi, M. Cossi, J. M. Millam, M. Klene, C. Adamo, R. Cammi, 
 J. W. Ochterski, R. L. Martin, K. Morokuma, O. Farkas, 
 J. B. Foresman, and D. J. Fox, Gaussian, Inc., Wallingford CT, 2019.
 
 ******************************************
 Gaussian 16:  ES64L-G16RevC.01  3-Jul-2019
                 5-Jul-2023 
 ******************************************
 %mem=16Gb
 %NProc=8
 Will use up to    8 processors via shared memory.
 %chk=pa_oh4_ncs-bp86-cosmors-deftzvp-gp.chk
 ----------------------------------------------------------------------
 #p BP86/GEN Pseudo=Read GFInput GFPrint IOP(6/7=3) Symm=(Loose) Int=(U
 ltraFine) Guess=(Harris) Scf=(NoVarAcc,MaxCycle=100,conver=8)
 ----------------------------------------------------------------------
 1/38=1,172=1/1;
 2/12=2,17=4,18=3,40=1/2;
 3/5=7,11=2,16=1,17=8,24=110,25=1,30=1,74=404,75=-5/1,2,3;
 4/11=8/1;
 5/5=2,6=8,7=100,38=1/2;
 6/7=3,8=2,9=2,10=2,28=1/1;
 99/5=1,9=1/99;
 Leave Link    1 at Wed Jul  5 10:33:34 2023, MaxMem=  2147483648 cpu:               0.5 elap:               0.1
 (Enter /home/pcmt/gaussian/g16.C.01/g16/l101.exe)
 -------------------------------------------------------------
 pa_oh4_ncs-bp86-cosmors-deftzvp-gp.com SGP in PCM calculation
 -------------------------------------------------------------
 Symbolic Z-matrix:
 Charge =  0 Multiplicity = 1
 Pa                   -0.11844   0.06457  -0.38416 
 N                     0.85849   1.67532  -1.86448 
 H                    -1.41082   1.86179   1.47439 
 O                    -1.11132   1.64838   0.58115 
 H                     2.34776  -0.25869   1.09777 
 O                     0.77705  -1.42926  -1.54037 
 H                     1.13603  -2.32522  -1.51798 
 O                    -1.06845  -1.36763   0.81549 
 H                    -1.02111  -2.16725   1.35116 
 O                     1.5452    0.22437   0.87026 
 C                     1.53796   2.44713  -2.44502 
 S                     2.45872   3.49991  -3.24053 
 
 ITRead=  0  0  0  0  0  0  0  0  0  0  0  0
 MicOpt= -1 -1 -1 -1 -1 -1 -1 -1 -1 -1 -1 -1
 NAtoms=     12 NQM=       12 NQMF=       0 NMMI=      0 NMMIF=      0
                NMic=       0 NMicF=      0.
                    Isotopes and Nuclear Properties:
 (Nuclear quadrupole moments (NQMom) in fm**2, nuclear magnetic moments (NMagM)
  in nuclear magnetons)

  Atom         1           2           3           4           5           6           7           8           9          10
 IAtWgt=         231          14           1          16           1          16           1          16           1          16
 AtmWgt= 231.0359000  14.0030740   1.0078250  15.9949146   1.0078250  15.9949146   1.0078250  15.9949146   1.0078250  15.9949146
 NucSpn=           3           2           1           0           1           0           1           0           1           0
 AtZEff=  -0.0000000  -0.0000000  -0.0000000  -0.0000000  -0.0000000  -0.0000000  -0.0000000  -0.0000000  -0.0000000  -0.0000000
 NQMom= -172.0000000   2.0440000   0.0000000   0.0000000   0.0000000   0.0000000   0.0000000   0.0000000   0.0000000   0.0000000
 NMagM=    2.0100000   0.4037610   2.7928460   0.0000000   2.7928460   0.0000000   2.7928460   0.0000000   2.7928460   0.0000000
 AtZNuc=  91.0000000   7.0000000   1.0000000   8.0000000   1.0000000   8.0000000   1.0000000   8.0000000   1.0000000   8.0000000

  Atom        11          12
 IAtWgt=          12          32
 AtmWgt=  12.0000000  31.9720718
 NucSpn=           0           0
 AtZEff=  -0.0000000  -0.0000000
 NQMom=    0.0000000   0.0000000
 NMagM=    0.0000000   0.0000000
 AtZNuc=   6.0000000  16.0000000
 Leave Link  101 at Wed Jul  5 10:33:34 2023, MaxMem=  2147483648 cpu:               0.7 elap:               0.2
 (Enter /home/pcmt/gaussian/g16.C.01/g16/l202.exe)
                          Input orientation:                          
 ---------------------------------------------------------------------
 Center     Atomic      Atomic             Coordinates (Angstroms)
 Number     Number       Type             X           Y           Z
 ---------------------------------------------------------------------
      1         91           0       -0.118443    0.064568   -0.384163
      2          7           0        0.858491    1.675320   -1.864484
      3          1           0       -1.410823    1.861787    1.474394
      4          8           0       -1.111315    1.648384    0.581149
      5          1           0        2.347762   -0.258690    1.097773
      6          8           0        0.777050   -1.429257   -1.540371
      7          1           0        1.136027   -2.325215   -1.517980
      8          8           0       -1.068451   -1.367630    0.815488
      9          1           0       -1.021114   -2.167254    1.351161
     10          8           0        1.545197    0.224366    0.870257
     11          6           0        1.537961    2.447132   -2.445016
     12         16           0        2.458717    3.499909   -3.240526
 ---------------------------------------------------------------------
                    Distance matrix (angstroms):
                    1          2          3          4          5
     1  Pa   0.000000
     2  N    2.395887   0.000000
     3  H    2.890411   4.041369   0.000000
     4  O    2.103829   3.140380   0.965987   0.000000
     5  H    2.895307   3.838396   4.331885   3.983598   0.000000
     6  O    2.090512   3.122512   4.970570   4.187917   3.285904
     7  H    2.927507   4.025093   5.742102   5.024578   3.546969
     8  O    2.095917   4.489421   3.313685   3.025408   3.602769
     9  H    2.967692   5.351511   4.049720   3.893604   3.880225
    10  O    2.089690   3.171062   3.432810   3.027948   0.963960
    11  C    3.559130   1.180843   4.939608   4.100529   4.530851
    12  S    5.157726   2.789864   6.315636   5.547835   5.741099
                    6          7          8          9         10
     6  O    0.000000
     7  H    0.965457   0.000000
     8  O    2.993284   3.349891   0.000000
     9  H    3.484106   3.593074   0.963631   0.000000
    10  O    3.022524   3.517309   3.060818   3.540773   0.000000
    11  C    4.052625   4.878140   5.654793   6.500184   3.991463
    12  S    5.478614   6.216812   7.251559   8.081433   5.335001
                   11         12
    11  C    0.000000
    12  S    1.609026   0.000000
 Stoichiometry    CH4NO4PaS
 Framework group  C1[X(CH4NO4PaS)]
 Deg. of freedom    30
 Full point group                 C1      NOp   1
 Largest Abelian subgroup         C1      NOp   1
 Largest concise Abelian subgroup C1      NOp   1
                         Standard orientation:                         
 ---------------------------------------------------------------------
 Center     Atomic      Atomic             Coordinates (Angstroms)
 Number     Number       Type             X           Y           Z
 ---------------------------------------------------------------------
      1         91           0       -0.656725    0.013447   -0.131597
      2          7           0        1.732403    0.040393   -0.309403
      3          1           0       -1.131213    2.843520    0.214847
      4          8           0       -0.619062    2.116709   -0.162748
      5          1           0       -0.567469   -0.673996    2.679498
      6          8           0       -0.570020   -2.068811   -0.295675
      7          1           0       -1.013820   -2.891134   -0.052911
      8          8           0       -2.752133   -0.028165   -0.111576
      9          1           0       -3.573382   -0.386846    0.242660
     10          8           0       -0.490307   -0.047977    1.950550
     11          6           0        2.902350    0.015788   -0.151256
     12         16           0        4.497445   -0.016674    0.057514
 ---------------------------------------------------------------------
 Rotational constants (GHZ):           2.1683777           0.4532274           0.4222525
 Leave Link  202 at Wed Jul  5 10:33:34 2023, MaxMem=  2147483648 cpu:               0.1 elap:               0.1
 (Enter /home/pcmt/gaussian/g16.C.01/g16/l301.exe)
 General basis read from cards:  (5D, 7F)
 Centers:       1
 S 3 1.00
     Exponent=  1.2047376000D+04 Coefficients=  3.4500000000D-04
     Exponent=  1.8116841000D+03 Coefficients=  2.7420000000D-03
     Exponent=  3.4770104000D+02 Coefficients=  1.0053000000D-02
 S 1 1.00
     Exponent=  9.8678010000D+01 Coefficients=  1.0000000000D+00
 S 3 1.00
     Exponent=  5.7507376000D+01 Coefficients=  5.1528000000D-02
     Exponent=  3.3502601000D+01 Coefficients= -2.3692400000D-01
     Exponent=  1.9554451000D+01 Coefficients=  7.1904800000D-01
 S 1 1.00
     Exponent=  9.7164210000D+00 Coefficients=  1.0000000000D+00
 S 1 1.00
     Exponent=  2.6920960000D+00 Coefficients=  1.0000000000D+00
 S 1 1.00
     Exponent=  1.4538470000D+00 Coefficients=  1.0000000000D+00
 S 1 1.00
     Exponent=  5.7435200000D-01 Coefficients=  1.0000000000D+00
 S 1 1.00
     Exponent=  2.6346800000D-01 Coefficients=  1.0000000000D+00
 S 1 1.00
     Exponent=  5.6557000000D-02 Coefficients=  1.0000000000D+00
 S 1 1.00
     Exponent=  2.3169000000D-02 Coefficients=  1.0000000000D+00
 P 5 1.00
     Exponent=  2.9033676000D+03 Coefficients=  3.5000000000D-05
     Exponent=  6.4486356000D+02 Coefficients=  2.0500000000D-04
     Exponent=  2.2025896000D+02 Coefficients=  1.2510000000D-03
     Exponent=  8.0276401000D+01 Coefficients=  2.4570000000D-03
     Exponent=  2.4080211000D+01 Coefficients=  1.1190000000D-02
 P 1 1.00
     Exponent=  1.4077580000D+01 Coefficients=  1.0000000000D+00
 P 1 1.00
     Exponent=  8.2658460000D+00 Coefficients=  1.0000000000D+00
 P 1 1.00
     Exponent=  3.5948000000D+00 Coefficients=  1.0000000000D+00
 P 1 1.00
     Exponent=  1.7531110000D+00 Coefficients=  1.0000000000D+00
 P 1 1.00
     Exponent=  6.5776700000D-01 Coefficients=  1.0000000000D+00
 P 1 1.00
     Exponent=  2.8463900000D-01 Coefficients=  1.0000000000D+00
 P 1 1.00
     Exponent=  1.0054300000D-01 Coefficients=  1.0000000000D+00
 P 1 1.00
     Exponent=  3.0190000000D-02 Coefficients=  1.0000000000D+00
 D 6 1.00
     Exponent=  4.4814991000D+02 Coefficients=  2.6000000000D-05
     Exponent=  1.5446145000D+02 Coefficients=  2.2800000000D-04
     Exponent=  6.0925377000D+01 Coefficients=  9.0400000000D-04
     Exponent=  1.7032091000D+01 Coefficients=  2.5647000000D-02
     Exponent=  1.0018877000D+01 Coefficients= -1.0575100000D-01
     Exponent=  3.4091930000D+00 Coefficients=  4.4743200000D-01
 D 1 1.00
     Exponent=  1.6702130000D+00 Coefficients=  1.0000000000D+00
 D 1 1.00
     Exponent=  7.4109500000D-01 Coefficients=  1.0000000000D+00
 D 1 1.00
     Exponent=  2.6139300000D-01 Coefficients=  1.0000000000D+00
 D 1 1.00
     Exponent=  8.2811000000D-02 Coefficients=  1.0000000000D+00
 F 5 1.00
     Exponent=  8.7991327000D+01 Coefficients=  2.2600000000D-04
     Exponent=  2.8340195000D+01 Coefficients=  2.3230000000D-03
     Exponent=  1.2440994000D+01 Coefficients=  4.5850000000D-03
     Exponent=  3.9572960000D+00 Coefficients=  1.5696100000D-01
     Exponent=  1.8759440000D+00 Coefficients=  3.4497700000D-01
 F 1 1.00
     Exponent=  8.2758900000D-01 Coefficients=  1.0000000000D+00
 F 1 1.00
     Exponent=  3.3274800000D-01 Coefficients=  1.0000000000D+00
 F 1 1.00
     Exponent=  1.1468500000D-01 Coefficients=  1.0000000000D+00
 G 1 1.00
     Exponent=  3.5000000000D-01 Coefficients=  1.0000000000D+00
 ****
 Centers:       4      6      8     10
 Def2TZVP
 ****
 Centers:       3      5      7      9
 Def2TZVP
 ****
 Centers:      12
 Def2TZVP
 ****
 Centers:      11
 Def2TZVP
 ****
 Centers:       2
 Def2TZVP
 ****
 ======================================================================================================
                                       Pseudopotential Parameters
 ======================================================================================================
  Center     Atomic      Valence      Angular      Power
  Number     Number     Electrons     Momentum     of R      Exponent        Coefficient   SO-Coeffient
 ======================================================================================================
    1         91           31
                                      H and up 
                                                     2        1.0000000        0.00000000    0.00000000
                                      S - H
                                                     2       15.2691737      475.47573283    0.00000000
                                      P - H
                                                     2        9.9577370      207.66485962    0.00000000
                                      D - H
                                                     2        8.9431413      156.67411988    0.00000000
                                      F - H
                                                     2        7.0104666       67.98223685    0.00000000
                                      G - H
                                                     2       12.2010560      -57.63059989    0.00000000
    2          7
                                   No pseudopotential on this center.
    3          1
                                   No pseudopotential on this center.
    4          8
                                   No pseudopotential on this center.
    5          1
                                   No pseudopotential on this center.
    6          8
                                   No pseudopotential on this center.
    7          1
                                   No pseudopotential on this center.
    8          8
                                   No pseudopotential on this center.
    9          1
                                   No pseudopotential on this center.
   10          8
                                   No pseudopotential on this center.
   11          6
                                   No pseudopotential on this center.
   12         16
                                   No pseudopotential on this center.
 ======================================================================================================
 Ernie: Thresh=  0.10000D-02 Tol=  0.10000D-05 Strict=F.
 AO basis set in the form of general basis input (Overlap normalization):
      1 0
 S   3 1.00       0.000000000000
      0.1204737600D+05  0.2857094961D-01
      0.1811684100D+04  0.2270769386D+00
      0.3477010400D+03  0.8325326273D+00
 S   3 1.00       0.000000000000
      0.5750737600D+02  0.9569327984D-01
      0.3350260100D+02 -0.4399944619D+00
      0.1955445100D+02  0.1335352847D+01
 S   1 1.00       0.000000000000
      0.9867801000D+02  0.1000000000D+01
 S   1 1.00       0.000000000000
      0.9716421000D+01  0.1000000000D+01
 S   1 1.00       0.000000000000
      0.2692096000D+01  0.1000000000D+01
 S   1 1.00       0.000000000000
      0.1453847000D+01  0.1000000000D+01
 S   1 1.00       0.000000000000
      0.5743520000D+00  0.1000000000D+01
 S   1 1.00       0.000000000000
      0.2634680000D+00  0.1000000000D+01
 S   1 1.00       0.000000000000
      0.5655700000D-01  0.1000000000D+01
 S   1 1.00       0.000000000000
      0.2316900000D-01  0.1000000000D+01
 P   5 1.00       0.000000000000
      0.2903367600D+04  0.2594222647D-02
      0.6448635600D+03  0.1519473264D-01
      0.2202589600D+03  0.9272492945D-01
      0.8027640100D+02  0.1821144298D+00
      0.2408021100D+02  0.8294100404D+00
 P   1 1.00       0.000000000000
      0.1407758000D+02  0.1000000000D+01
 P   1 1.00       0.000000000000
      0.8265846000D+01  0.1000000000D+01
 P   1 1.00       0.000000000000
      0.3594800000D+01  0.1000000000D+01
 P   1 1.00       0.000000000000
      0.1753111000D+01  0.1000000000D+01
 P   1 1.00       0.000000000000
      0.6577670000D+00  0.1000000000D+01
 P   1 1.00       0.000000000000
      0.2846390000D+00  0.1000000000D+01
 P   1 1.00       0.000000000000
      0.1005430000D+00  0.1000000000D+01
 P   1 1.00       0.000000000000
      0.3019000000D-01  0.1000000000D+01
 D   6 1.00       0.000000000000
      0.4481499100D+03  0.6556927566D-04
      0.1544614500D+03  0.5749921096D-03
      0.6092537700D+02  0.2279793277D-02
      0.1703209100D+02  0.6467904664D-01
      0.1001887700D+02 -0.2666929411D+00
      0.3409193000D+01  0.1128376621D+01
 D   1 1.00       0.000000000000
      0.1670213000D+01  0.1000000000D+01
 D   1 1.00       0.000000000000
      0.7410950000D+00  0.1000000000D+01
 D   1 1.00       0.000000000000
      0.2613930000D+00  0.1000000000D+01
 D   1 1.00       0.000000000000
      0.8281100000D-01  0.1000000000D+01
 F   5 1.00       0.000000000000
      0.8799132700D+02  0.4766318191D-03
      0.2834019500D+02  0.4899184583D-02
      0.1244099400D+02  0.9669720755D-02
      0.3957296000D+01  0.3310292343D+00
      0.1875944000D+01  0.7275531640D+00
 F   1 1.00       0.000000000000
      0.8275890000D+00  0.1000000000D+01
 F   1 1.00       0.000000000000
      0.3327480000D+00  0.1000000000D+01
 F   1 1.00       0.000000000000
      0.1146850000D+00  0.1000000000D+01
 G   1 1.00       0.000000000000
      0.3500000000D+00  0.1000000000D+01
 ****
      2 0
 S   6 1.00       0.000000000000
      0.1973080065D+05  0.5862640263D-03
      0.2957895874D+04  0.4542882059D-02
      0.6732213360D+03  0.2355841345D-01
      0.1906824949D+03  0.9470919329D-01
      0.6229544190D+02  0.2971978491D+00
      0.2265416118D+02  0.6691624690D+00
 S   2 1.00       0.000000000000
      0.8979147743D+01  0.6459668363D+00
      0.3686300237D+01  0.3870057439D+00
 S   1 1.00       0.000000000000
      0.8466007680D+00  0.1000000000D+01
 S   1 1.00       0.000000000000
      0.3364713377D+00  0.1000000000D+01
 S   1 1.00       0.000000000000
      0.1364765367D+00  0.1000000000D+01
 P   4 1.00       0.000000000000
      0.4920038051D+02  0.1144882510D-01
      0.1134679054D+02  0.7842233797D-01
      0.3427397241D+01  0.3081809474D+00
      0.1178552513D+01  0.7202719637D+00
 P   1 1.00       0.000000000000
      0.4164220497D+00  0.1000000000D+01
 P   1 1.00       0.000000000000
      0.1426082601D+00  0.1000000000D+01
 D   1 1.00       0.000000000000
      0.1654000000D+01  0.1000000000D+01
 D   1 1.00       0.000000000000
      0.4690000000D+00  0.1000000000D+01
 F   1 1.00       0.000000000000
      0.1093000000D+01  0.1000000000D+01
 ****
      3 0
 S   3 1.00       0.000000000000
      0.3406134100D+02  0.2543930721D-01
      0.5123574600D+01  0.1900859489D+00
      0.1164662600D+01  0.8524411301D+00
 S   1 1.00       0.000000000000
      0.3272304100D+00  0.1000000000D+01
 S   1 1.00       0.000000000000
      0.1030724100D+00  0.1000000000D+01
 P   1 1.00       0.000000000000
      0.8000000000D+00  0.1000000000D+01
 ****
      4 0
 S   6 1.00       0.000000000000
      0.2703238263D+05  0.5722733521D-03
      0.4052387139D+04  0.4435323349D-02
      0.9223272271D+03  0.2302010771D-01
      0.2612407099D+03  0.9282249067D-01
      0.8535464135D+02  0.2937850001D+00
      0.3103503524D+02  0.6740160450D+00
 S   2 1.00       0.000000000000
      0.1226086073D+02  0.6383993703D+00
      0.4998707601D+01  0.3953458713D+00
 S   1 1.00       0.000000000000
      0.1170310816D+01  0.1000000000D+01
 S   1 1.00       0.000000000000
      0.4647474099D+00  0.1000000000D+01
 S   1 1.00       0.000000000000
      0.1850453636D+00  0.1000000000D+01
 P   4 1.00       0.000000000000
      0.6327495480D+02  0.1201833222D-01
      0.1462704938D+02  0.8300542179D-01
      0.4450122346D+01  0.3199174393D+00
      0.1527579965D+01  0.7071554292D+00
 P   1 1.00       0.000000000000
      0.5293511794D+00  0.1000000000D+01
 P   1 1.00       0.000000000000
      0.1747842127D+00  0.1000000000D+01
 D   1 1.00       0.000000000000
      0.2314000000D+01  0.1000000000D+01
 D   1 1.00       0.000000000000
      0.6450000000D+00  0.1000000000D+01
 F   1 1.00       0.000000000000
      0.1428000000D+01  0.1000000000D+01
 ****
      5 0
 S   3 1.00       0.000000000000
      0.3406134100D+02  0.2543930721D-01
      0.5123574600D+01  0.1900859489D+00
      0.1164662600D+01  0.8524411301D+00
 S   1 1.00       0.000000000000
      0.3272304100D+00  0.1000000000D+01
 S   1 1.00       0.000000000000
      0.1030724100D+00  0.1000000000D+01
 P   1 1.00       0.000000000000
      0.8000000000D+00  0.1000000000D+01
 ****
      6 0
 S   6 1.00       0.000000000000
      0.2703238263D+05  0.5722733521D-03
      0.4052387139D+04  0.4435323349D-02
      0.9223272271D+03  0.2302010771D-01
      0.2612407099D+03  0.9282249067D-01
      0.8535464135D+02  0.2937850001D+00
      0.3103503524D+02  0.6740160450D+00
 S   2 1.00       0.000000000000
      0.1226086073D+02  0.6383993703D+00
      0.4998707601D+01  0.3953458713D+00
 S   1 1.00       0.000000000000
      0.1170310816D+01  0.1000000000D+01
 S   1 1.00       0.000000000000
      0.4647474099D+00  0.1000000000D+01
 S   1 1.00       0.000000000000
      0.1850453636D+00  0.1000000000D+01
 P   4 1.00       0.000000000000
      0.6327495480D+02  0.1201833222D-01
      0.1462704938D+02  0.8300542179D-01
      0.4450122346D+01  0.3199174393D+00
      0.1527579965D+01  0.7071554292D+00
 P   1 1.00       0.000000000000
      0.5293511794D+00  0.1000000000D+01
 P   1 1.00       0.000000000000
      0.1747842127D+00  0.1000000000D+01
 D   1 1.00       0.000000000000
      0.2314000000D+01  0.1000000000D+01
 D   1 1.00       0.000000000000
      0.6450000000D+00  0.1000000000D+01
 F   1 1.00       0.000000000000
      0.1428000000D+01  0.1000000000D+01
 ****
      7 0
 S   3 1.00       0.000000000000
      0.3406134100D+02  0.2543930721D-01
      0.5123574600D+01  0.1900859489D+00
      0.1164662600D+01  0.8524411301D+00
 S   1 1.00       0.000000000000
      0.3272304100D+00  0.1000000000D+01
 S   1 1.00       0.000000000000
      0.1030724100D+00  0.1000000000D+01
 P   1 1.00       0.000000000000
      0.8000000000D+00  0.1000000000D+01
 ****
      8 0
 S   6 1.00       0.000000000000
      0.2703238263D+05  0.5722733521D-03
      0.4052387139D+04  0.4435323349D-02
      0.9223272271D+03  0.2302010771D-01
      0.2612407099D+03  0.9282249067D-01
      0.8535464135D+02  0.2937850001D+00
      0.3103503524D+02  0.6740160450D+00
 S   2 1.00       0.000000000000
      0.1226086073D+02  0.6383993703D+00
      0.4998707601D+01  0.3953458713D+00
 S   1 1.00       0.000000000000
      0.1170310816D+01  0.1000000000D+01
 S   1 1.00       0.000000000000
      0.4647474099D+00  0.1000000000D+01
 S   1 1.00       0.000000000000
      0.1850453636D+00  0.1000000000D+01
 P   4 1.00       0.000000000000
      0.6327495480D+02  0.1201833222D-01
      0.1462704938D+02  0.8300542179D-01
      0.4450122346D+01  0.3199174393D+00
      0.1527579965D+01  0.7071554292D+00
 P   1 1.00       0.000000000000
      0.5293511794D+00  0.1000000000D+01
 P   1 1.00       0.000000000000
      0.1747842127D+00  0.1000000000D+01
 D   1 1.00       0.000000000000
      0.2314000000D+01  0.1000000000D+01
 D   1 1.00       0.000000000000
      0.6450000000D+00  0.1000000000D+01
 F   1 1.00       0.000000000000
      0.1428000000D+01  0.1000000000D+01
 ****
      9 0
 S   3 1.00       0.000000000000
      0.3406134100D+02  0.2543930721D-01
      0.5123574600D+01  0.1900859489D+00
      0.1164662600D+01  0.8524411301D+00
 S   1 1.00       0.000000000000
      0.3272304100D+00  0.1000000000D+01
 S   1 1.00       0.000000000000
      0.1030724100D+00  0.1000000000D+01
 P   1 1.00       0.000000000000
      0.8000000000D+00  0.1000000000D+01
 ****
     10 0
 S   6 1.00       0.000000000000
      0.2703238263D+05  0.5722733521D-03
      0.4052387139D+04  0.4435323349D-02
      0.9223272271D+03  0.2302010771D-01
      0.2612407099D+03  0.9282249067D-01
      0.8535464135D+02  0.2937850001D+00
      0.3103503524D+02  0.6740160450D+00
 S   2 1.00       0.000000000000
      0.1226086073D+02  0.6383993703D+00
      0.4998707601D+01  0.3953458713D+00
 S   1 1.00       0.000000000000
      0.1170310816D+01  0.1000000000D+01
 S   1 1.00       0.000000000000
      0.4647474099D+00  0.1000000000D+01
 S   1 1.00       0.000000000000
      0.1850453636D+00  0.1000000000D+01
 P   4 1.00       0.000000000000
      0.6327495480D+02  0.1201833222D-01
      0.1462704938D+02  0.8300542179D-01
      0.4450122346D+01  0.3199174393D+00
      0.1527579965D+01  0.7071554292D+00
 P   1 1.00       0.000000000000
      0.5293511794D+00  0.1000000000D+01
 P   1 1.00       0.000000000000
      0.1747842127D+00  0.1000000000D+01
 D   1 1.00       0.000000000000
      0.2314000000D+01  0.1000000000D+01
 D   1 1.00       0.000000000000
      0.6450000000D+00  0.1000000000D+01
 F   1 1.00       0.000000000000
      0.1428000000D+01  0.1000000000D+01
 ****
     11 0
 S   6 1.00       0.000000000000
      0.1357534968D+05  0.6064550360D-03
      0.2035233368D+04  0.4697908888D-02
      0.4632256236D+03  0.2433247765D-01
      0.1312001960D+03  0.9739996831D-01
      0.4285301589D+02  0.3019558425D+00
      0.1558418577D+02  0.6623360914D+00
 S   2 1.00       0.000000000000
      0.6206713851D+01  0.6559530854D+00
      0.2576489653D+01  0.3758563329D+00
 S   1 1.00       0.000000000000
      0.5769633942D+00  0.1000000000D+01
 S   1 1.00       0.000000000000
      0.2297283136D+00  0.1000000000D+01
 S   1 1.00       0.000000000000
      0.9516444003D-01  0.1000000000D+01
 P   4 1.00       0.000000000000
      0.3469723224D+02  0.1132722000D-01
      0.7958262283D+01  0.7616965920D-01
      0.2378082688D+01  0.3019225220D+00
      0.8143320818D+00  0.7278502735D+00
 P   1 1.00       0.000000000000
      0.2888754725D+00  0.1000000000D+01
 P   1 1.00       0.000000000000
      0.1005682367D+00  0.1000000000D+01
 D   1 1.00       0.000000000000
      0.1097000000D+01  0.1000000000D+01
 D   1 1.00       0.000000000000
      0.3180000000D+00  0.1000000000D+01
 F   1 1.00       0.000000000000
      0.7610000000D+00  0.1000000000D+01
 ****
     12 0
 S   7 1.00       0.000000000000
      0.6070092810D+05  0.5238007490D-03
      0.9102610685D+04  0.4050632678D-02
      0.2071416601D+04  0.2082700417D-01
      0.5860247682D+03  0.8149685034D-01
      0.1905539502D+03  0.2374911384D+00
      0.6763038426D+02  0.4472617151D+00
      0.2512730691D+02  0.3489191844D+00
 S   3 1.00       0.000000000000
      0.1125746301D+03  0.1004556989D+00
      0.3479555422D+02  0.4339117295D+00
      0.6511555622D+01 -0.1208433059D+01
 S   2 1.00       0.000000000000
      0.3239903226D+01  0.6749812942D+00
      0.1547716088D+01  0.3470879576D+00
 S   1 1.00       0.000000000000
      0.4054103011D+00  0.1000000000D+01
 S   1 1.00       0.000000000000
      0.1455065106D+00  0.1000000000D+01
 P   5 1.00       0.000000000000
      0.5643671603D+03  0.3488692363D-02
      0.1334262438D+03  0.2768512678D-01
      0.4246827119D+02  0.1265940018D+00
      0.1561652758D+02  0.3616592567D+00
      0.6109398847D+01  0.6122203444D+00
 P   1 1.00       0.000000000000
      0.2440416020D+01  0.1000000000D+01
 P   1 1.00       0.000000000000
      0.8388220130D+00  0.1000000000D+01
 P   1 1.00       0.000000000000
      0.3128874690D+00  0.1000000000D+01
 P   1 1.00       0.000000000000
      0.1077010900D+00  0.1000000000D+01
 D   2 1.00       0.000000000000
      0.3756000000D+01  0.1828519746D+00
      0.8120000000D+00  0.9142598730D+00
 D   1 1.00       0.000000000000
      0.2730000000D+00  0.1000000000D+01
 F   1 1.00       0.000000000000
      0.5570000000D+00  0.1000000000D+01
 ****

 AO basis set (Overlap normalization):
 Atom Pa1      Shell     1 S   3     bf    1 -     1         -1.241030128066          0.025411786035         -0.248683133012
      0.1204737600D+05  0.2857094961D-01
      0.1811684100D+04  0.2270769386D+00
      0.3477010400D+03  0.8325326273D+00
 Atom Pa1      Shell     2 S   3     bf    2 -     2         -1.241030128066          0.025411786035         -0.248683133012
      0.5750737600D+02  0.9569327984D-01
      0.3350260100D+02 -0.4399944619D+00
      0.1955445100D+02  0.1335352847D+01
 Atom Pa1      Shell     3 S   1     bf    3 -     3         -1.241030128066          0.025411786035         -0.248683133012
      0.9867801000D+02  0.1000000000D+01
 Atom Pa1      Shell     4 S   1     bf    4 -     4         -1.241030128066          0.025411786035         -0.248683133012
      0.9716421000D+01  0.1000000000D+01
 Atom Pa1      Shell     5 S   1     bf    5 -     5         -1.241030128066          0.025411786035         -0.248683133012
      0.2692096000D+01  0.1000000000D+01
 Atom Pa1      Shell     6 S   1     bf    6 -     6         -1.241030128066          0.025411786035         -0.248683133012
      0.1453847000D+01  0.1000000000D+01
 Atom Pa1      Shell     7 S   1     bf    7 -     7         -1.241030128066          0.025411786035         -0.248683133012
      0.5743520000D+00  0.1000000000D+01
 Atom Pa1      Shell     8 S   1     bf    8 -     8         -1.241030128066          0.025411786035         -0.248683133012
      0.2634680000D+00  0.1000000000D+01
 Atom Pa1      Shell     9 S   1     bf    9 -     9         -1.241030128066          0.025411786035         -0.248683133012
      0.5655700000D-01  0.1000000000D+01
 Atom Pa1      Shell    10 S   1     bf   10 -    10         -1.241030128066          0.025411786035         -0.248683133012
      0.2316900000D-01  0.1000000000D+01
 Atom Pa1      Shell    11 P   5     bf   11 -    13         -1.241030128066          0.025411786035         -0.248683133012
      0.2903367600D+04  0.2594222647D-02
      0.6448635600D+03  0.1519473264D-01
      0.2202589600D+03  0.9272492945D-01
      0.8027640100D+02  0.1821144298D+00
      0.2408021100D+02  0.8294100404D+00
 Atom Pa1      Shell    12 P   1     bf   14 -    16         -1.241030128066          0.025411786035         -0.248683133012
      0.1407758000D+02  0.1000000000D+01
 Atom Pa1      Shell    13 P   1     bf   17 -    19         -1.241030128066          0.025411786035         -0.248683133012
      0.8265846000D+01  0.1000000000D+01
 Atom Pa1      Shell    14 P   1     bf   20 -    22         -1.241030128066          0.025411786035         -0.248683133012
      0.3594800000D+01  0.1000000000D+01
 Atom Pa1      Shell    15 P   1     bf   23 -    25         -1.241030128066          0.025411786035         -0.248683133012
      0.1753111000D+01  0.1000000000D+01
 Atom Pa1      Shell    16 P   1     bf   26 -    28         -1.241030128066          0.025411786035         -0.248683133012
      0.6577670000D+00  0.1000000000D+01
 Atom Pa1      Shell    17 P   1     bf   29 -    31         -1.241030128066          0.025411786035         -0.248683133012
      0.2846390000D+00  0.1000000000D+01
 Atom Pa1      Shell    18 P   1     bf   32 -    34         -1.241030128066          0.025411786035         -0.248683133012
      0.1005430000D+00  0.1000000000D+01
 Atom Pa1      Shell    19 P   1     bf   35 -    37         -1.241030128066          0.025411786035         -0.248683133012
      0.3019000000D-01  0.1000000000D+01
 Atom Pa1      Shell    20 D   6     bf   38 -    42         -1.241030128066          0.025411786035         -0.248683133012
      0.4481499100D+03  0.6556927566D-04
      0.1544614500D+03  0.5749921096D-03
      0.6092537700D+02  0.2279793277D-02
      0.1703209100D+02  0.6467904664D-01
      0.1001887700D+02 -0.2666929411D+00
      0.3409193000D+01  0.1128376621D+01
 Atom Pa1      Shell    21 D   1     bf   43 -    47         -1.241030128066          0.025411786035         -0.248683133012
      0.1670213000D+01  0.1000000000D+01
 Atom Pa1      Shell    22 D   1     bf   48 -    52         -1.241030128066          0.025411786035         -0.248683133012
      0.7410950000D+00  0.1000000000D+01
 Atom Pa1      Shell    23 D   1     bf   53 -    57         -1.241030128066          0.025411786035         -0.248683133012
      0.2613930000D+00  0.1000000000D+01
 Atom Pa1      Shell    24 D   1     bf   58 -    62         -1.241030128066          0.025411786035         -0.248683133012
      0.8281100000D-01  0.1000000000D+01
 Atom Pa1      Shell    25 F   5     bf   63 -    69         -1.241030128066          0.025411786035         -0.248683133012
      0.8799132700D+02  0.4766318191D-03
      0.2834019500D+02  0.4899184583D-02
      0.1244099400D+02  0.9669720755D-02
      0.3957296000D+01  0.3310292343D+00
      0.1875944000D+01  0.7275531640D+00
 Atom Pa1      Shell    26 F   1     bf   70 -    76         -1.241030128066          0.025411786035         -0.248683133012
      0.8275890000D+00  0.1000000000D+01
 Atom Pa1      Shell    27 F   1     bf   77 -    83         -1.241030128066          0.025411786035         -0.248683133012
      0.3327480000D+00  0.1000000000D+01
 Atom Pa1      Shell    28 F   1     bf   84 -    90         -1.241030128066          0.025411786035         -0.248683133012
      0.1146850000D+00  0.1000000000D+01
 Atom Pa1      Shell    29 G   1     bf   91 -    99         -1.241030128066          0.025411786035         -0.248683133012
      0.3500000000D+00  0.1000000000D+01
 Atom N2       Shell    30 S   6     bf  100 -   100          3.273767194514          0.076331248023         -0.584686223892
      0.1973080065D+05  0.5862640263D-03
      0.2957895874D+04  0.4542882059D-02
      0.6732213360D+03  0.2355841345D-01
      0.1906824949D+03  0.9470919329D-01
      0.6229544190D+02  0.2971978491D+00
      0.2265416118D+02  0.6691624690D+00
 Atom N2       Shell    31 S   2     bf  101 -   101          3.273767194514          0.076331248023         -0.584686223892
      0.8979147743D+01  0.6459668363D+00
      0.3686300237D+01  0.3870057439D+00
 Atom N2       Shell    32 S   1     bf  102 -   102          3.273767194514          0.076331248023         -0.584686223892
      0.8466007680D+00  0.1000000000D+01
 Atom N2       Shell    33 S   1     bf  103 -   103          3.273767194514          0.076331248023         -0.584686223892
      0.3364713377D+00  0.1000000000D+01
 Atom N2       Shell    34 S   1     bf  104 -   104          3.273767194514          0.076331248023         -0.584686223892
      0.1364765367D+00  0.1000000000D+01
 Atom N2       Shell    35 P   4     bf  105 -   107          3.273767194514          0.076331248023         -0.584686223892
      0.4920038051D+02  0.1144882510D-01
      0.1134679054D+02  0.7842233797D-01
      0.3427397241D+01  0.3081809474D+00
      0.1178552513D+01  0.7202719637D+00
 Atom N2       Shell    36 P   1     bf  108 -   110          3.273767194514          0.076331248023         -0.584686223892
      0.4164220497D+00  0.1000000000D+01
 Atom N2       Shell    37 P   1     bf  111 -   113          3.273767194514          0.076331248023         -0.584686223892
      0.1426082601D+00  0.1000000000D+01
 Atom N2       Shell    38 D   1     bf  114 -   118          3.273767194514          0.076331248023         -0.584686223892
      0.1654000000D+01  0.1000000000D+01
 Atom N2       Shell    39 D   1     bf  119 -   123          3.273767194514          0.076331248023         -0.584686223892
      0.4690000000D+00  0.1000000000D+01
 Atom N2       Shell    40 F   1     bf  124 -   130          3.273767194514          0.076331248023         -0.584686223892
      0.1093000000D+01  0.1000000000D+01
 Atom H3       Shell    41 S   3     bf  131 -   131         -2.137683294652          5.373474464276          0.406002258395
      0.3406134100D+02  0.2543930721D-01
      0.5123574600D+01  0.1900859489D+00
      0.1164662600D+01  0.8524411301D+00
 Atom H3       Shell    42 S   1     bf  132 -   132         -2.137683294652          5.373474464276          0.406002258395
      0.3272304100D+00  0.1000000000D+01
 Atom H3       Shell    43 S   1     bf  133 -   133         -2.137683294652          5.373474464276          0.406002258395
      0.1030724100D+00  0.1000000000D+01
 Atom H3       Shell    44 P   1     bf  134 -   136         -2.137683294652          5.373474464276          0.406002258395
      0.8000000000D+00  0.1000000000D+01
 Atom O4       Shell    45 S   6     bf  137 -   137         -1.169857972636          3.999999615806         -0.307548306509
      0.2703238263D+05  0.5722733521D-03
      0.4052387139D+04  0.4435323349D-02
      0.9223272271D+03  0.2302010771D-01
      0.2612407099D+03  0.9282249067D-01
      0.8535464135D+02  0.2937850001D+00
      0.3103503524D+02  0.6740160450D+00
 Atom O4       Shell    46 S   2     bf  138 -   138         -1.169857972636          3.999999615806         -0.307548306509
      0.1226086073D+02  0.6383993703D+00
      0.4998707601D+01  0.3953458713D+00
 Atom O4       Shell    47 S   1     bf  139 -   139         -1.169857972636          3.999999615806         -0.307548306509
      0.1170310816D+01  0.1000000000D+01
 Atom O4       Shell    48 S   1     bf  140 -   140         -1.169857972636          3.999999615806         -0.307548306509
      0.4647474099D+00  0.1000000000D+01
 Atom O4       Shell    49 S   1     bf  141 -   141         -1.169857972636          3.999999615806         -0.307548306509
      0.1850453636D+00  0.1000000000D+01
 Atom O4       Shell    50 P   4     bf  142 -   144         -1.169857972636          3.999999615806         -0.307548306509
      0.6327495480D+02  0.1201833222D-01
      0.1462704938D+02  0.8300542179D-01
      0.4450122346D+01  0.3199174393D+00
      0.1527579965D+01  0.7071554292D+00
 Atom O4       Shell    51 P   1     bf  145 -   147         -1.169857972636          3.999999615806         -0.307548306509
      0.5293511794D+00  0.1000000000D+01
 Atom O4       Shell    52 P   1     bf  148 -   150         -1.169857972636          3.999999615806         -0.307548306509
      0.1747842127D+00  0.1000000000D+01
 Atom O4       Shell    53 D   1     bf  151 -   155         -1.169857972636          3.999999615806         -0.307548306509
      0.2314000000D+01  0.1000000000D+01
 Atom O4       Shell    54 D   1     bf  156 -   160         -1.169857972636          3.999999615806         -0.307548306509
      0.6450000000D+00  0.1000000000D+01
 Atom O4       Shell    55 F   1     bf  161 -   167         -1.169857972636          3.999999615806         -0.307548306509
      0.1428000000D+01  0.1000000000D+01
 Atom H5       Shell    56 S   3     bf  168 -   168         -1.072360703174         -1.273667566407          5.063516615055
      0.3406134100D+02  0.2543930721D-01
      0.5123574600D+01  0.1900859489D+00
      0.1164662600D+01  0.8524411301D+00
 Atom H5       Shell    57 S   1     bf  169 -   169         -1.072360703174         -1.273667566407          5.063516615055
      0.3272304100D+00  0.1000000000D+01
 Atom H5       Shell    58 S   1     bf  170 -   170         -1.072360703174         -1.273667566407          5.063516615055
      0.1030724100D+00  0.1000000000D+01
 Atom H5       Shell    59 P   1     bf  171 -   173         -1.072360703174         -1.273667566407          5.063516615055
      0.8000000000D+00  0.1000000000D+01
 Atom O6       Shell    60 S   6     bf  174 -   174         -1.077182605465         -3.909485933529         -0.558745018594
      0.2703238263D+05  0.5722733521D-03
      0.4052387139D+04  0.4435323349D-02
      0.9223272271D+03  0.2302010771D-01
      0.2612407099D+03  0.9282249067D-01
      0.8535464135D+02  0.2937850001D+00
      0.3103503524D+02  0.6740160450D+00
 Atom O6       Shell    61 S   2     bf  175 -   175         -1.077182605465         -3.909485933529         -0.558745018594
      0.1226086073D+02  0.6383993703D+00
      0.4998707601D+01  0.3953458713D+00
 Atom O6       Shell    62 S   1     bf  176 -   176         -1.077182605465         -3.909485933529         -0.558745018594
      0.1170310816D+01  0.1000000000D+01
 Atom O6       Shell    63 S   1     bf  177 -   177         -1.077182605465         -3.909485933529         -0.558745018594
      0.4647474099D+00  0.1000000000D+01
 Atom O6       Shell    64 S   1     bf  178 -   178         -1.077182605465         -3.909485933529         -0.558745018594
      0.1850453636D+00  0.1000000000D+01
 Atom O6       Shell    65 P   4     bf  179 -   181         -1.077182605465         -3.909485933529         -0.558745018594
      0.6327495480D+02  0.1201833222D-01
      0.1462704938D+02  0.8300542179D-01
      0.4450122346D+01  0.3199174393D+00
      0.1527579965D+01  0.7071554292D+00
 Atom O6       Shell    66 P   1     bf  182 -   184         -1.077182605465         -3.909485933529         -0.558745018594
      0.5293511794D+00  0.1000000000D+01
 Atom O6       Shell    67 P   1     bf  185 -   187         -1.077182605465         -3.909485933529         -0.558745018594
      0.1747842127D+00  0.1000000000D+01
 Atom O6       Shell    68 D   1     bf  188 -   192         -1.077182605465         -3.909485933529         -0.558745018594
      0.2314000000D+01  0.1000000000D+01
 Atom O6       Shell    69 D   1     bf  193 -   197         -1.077182605465         -3.909485933529         -0.558745018594
      0.6450000000D+00  0.1000000000D+01
 Atom O6       Shell    70 F   1     bf  198 -   204         -1.077182605465         -3.909485933529         -0.558745018594
      0.1428000000D+01  0.1000000000D+01
 Atom H7       Shell    71 S   3     bf  205 -   205         -1.915841770169         -5.463450878224         -0.099988145147
      0.3406134100D+02  0.2543930721D-01
      0.5123574600D+01  0.1900859489D+00
      0.1164662600D+01  0.8524411301D+00
 Atom H7       Shell    72 S   1     bf  206 -   206         -1.915841770169         -5.463450878224         -0.099988145147
      0.3272304100D+00  0.1000000000D+01
 Atom H7       Shell    73 S   1     bf  207 -   207         -1.915841770169         -5.463450878224         -0.099988145147
      0.1030724100D+00  0.1000000000D+01
 Atom H7       Shell    74 P   1     bf  208 -   210         -1.915841770169         -5.463450878224         -0.099988145147
      0.8000000000D+00  0.1000000000D+01
 Atom O8       Shell    75 S   6     bf  211 -   211         -5.200778151349         -0.053223201721         -0.210847304260
      0.2703238263D+05  0.5722733521D-03
      0.4052387139D+04  0.4435323349D-02
      0.9223272271D+03  0.2302010771D-01
      0.2612407099D+03  0.9282249067D-01
      0.8535464135D+02  0.2937850001D+00
      0.3103503524D+02  0.6740160450D+00
 Atom O8       Shell    76 S   2     bf  212 -   212         -5.200778151349         -0.053223201721         -0.210847304260
      0.1226086073D+02  0.6383993703D+00
      0.4998707601D+01  0.3953458713D+00
 Atom O8       Shell    77 S   1     bf  213 -   213         -5.200778151349         -0.053223201721         -0.210847304260
      0.1170310816D+01  0.1000000000D+01
 Atom O8       Shell    78 S   1     bf  214 -   214         -5.200778151349         -0.053223201721         -0.210847304260
      0.4647474099D+00  0.1000000000D+01
 Atom O8       Shell    79 S   1     bf  215 -   215         -5.200778151349         -0.053223201721         -0.210847304260
      0.1850453636D+00  0.1000000000D+01
 Atom O8       Shell    80 P   4     bf  216 -   218         -5.200778151349         -0.053223201721         -0.210847304260
      0.6327495480D+02  0.1201833222D-01
      0.1462704938D+02  0.8300542179D-01
      0.4450122346D+01  0.3199174393D+00
      0.1527579965D+01  0.7071554292D+00
 Atom O8       Shell    81 P   1     bf  219 -   221         -5.200778151349         -0.053223201721         -0.210847304260
      0.5293511794D+00  0.1000000000D+01
 Atom O8       Shell    82 P   1     bf  222 -   224         -5.200778151349         -0.053223201721         -0.210847304260
      0.1747842127D+00  0.1000000000D+01
 Atom O8       Shell    83 D   1     bf  225 -   229         -5.200778151349         -0.053223201721         -0.210847304260
      0.2314000000D+01  0.1000000000D+01
 Atom O8       Shell    84 D   1     bf  230 -   234         -5.200778151349         -0.053223201721         -0.210847304260
      0.6450000000D+00  0.1000000000D+01
 Atom O8       Shell    85 F   1     bf  235 -   241         -5.200778151349         -0.053223201721         -0.210847304260
      0.1428000000D+01  0.1000000000D+01
 Atom H9       Shell    86 S   3     bf  242 -   242         -6.752714211115         -0.731033220322          0.458561004112
      0.3406134100D+02  0.2543930721D-01
      0.5123574600D+01  0.1900859489D+00
      0.1164662600D+01  0.8524411301D+00
 Atom H9       Shell    87 S   1     bf  243 -   243         -6.752714211115         -0.731033220322          0.458561004112
      0.3272304100D+00  0.1000000000D+01
 Atom H9       Shell    88 S   1     bf  244 -   244         -6.752714211115         -0.731033220322          0.458561004112
      0.1030724100D+00  0.1000000000D+01
 Atom H9       Shell    89 P   1     bf  245 -   247         -6.752714211115         -0.731033220322          0.458561004112
      0.8000000000D+00  0.1000000000D+01
 Atom O10      Shell    90 S   6     bf  248 -   248         -0.926546709972         -0.090663805493          3.686004667841
      0.2703238263D+05  0.5722733521D-03
      0.4052387139D+04  0.4435323349D-02
      0.9223272271D+03  0.2302010771D-01
      0.2612407099D+03  0.9282249067D-01
      0.8535464135D+02  0.2937850001D+00
      0.3103503524D+02  0.6740160450D+00
 Atom O10      Shell    91 S   2     bf  249 -   249         -0.926546709972         -0.090663805493          3.686004667841
      0.1226086073D+02  0.6383993703D+00
      0.4998707601D+01  0.3953458713D+00
 Atom O10      Shell    92 S   1     bf  250 -   250         -0.926546709972         -0.090663805493          3.686004667841
      0.1170310816D+01  0.1000000000D+01
 Atom O10      Shell    93 S   1     bf  251 -   251         -0.926546709972         -0.090663805493          3.686004667841
      0.4647474099D+00  0.1000000000D+01
 Atom O10      Shell    94 S   1     bf  252 -   252         -0.926546709972         -0.090663805493          3.686004667841
      0.1850453636D+00  0.1000000000D+01
 Atom O10      Shell    95 P   4     bf  253 -   255         -0.926546709972         -0.090663805493          3.686004667841
      0.6327495480D+02  0.1201833222D-01
      0.1462704938D+02  0.8300542179D-01
      0.4450122346D+01  0.3199174393D+00
      0.1527579965D+01  0.7071554292D+00
 Atom O10      Shell    96 P   1     bf  256 -   258         -0.926546709972         -0.090663805493          3.686004667841
      0.5293511794D+00  0.1000000000D+01
 Atom O10      Shell    97 P   1     bf  259 -   261         -0.926546709972         -0.090663805493          3.686004667841
      0.1747842127D+00  0.1000000000D+01
 Atom O10      Shell    98 D   1     bf  262 -   266         -0.926546709972         -0.090663805493          3.686004667841
      0.2314000000D+01  0.1000000000D+01
 Atom O10      Shell    99 D   1     bf  267 -   271         -0.926546709972         -0.090663805493          3.686004667841
      0.6450000000D+00  0.1000000000D+01
 Atom O10      Shell   100 F   1     bf  272 -   278         -0.926546709972         -0.090663805493          3.686004667841
      0.1428000000D+01  0.1000000000D+01
 Atom C11      Shell   101 S   6     bf  279 -   279          5.484646223651          0.029835632921         -0.285832889704
      0.1357534968D+05  0.6064550360D-03
      0.2035233368D+04  0.4697908888D-02
      0.4632256236D+03  0.2433247765D-01
      0.1312001960D+03  0.9739996831D-01
      0.4285301589D+02  0.3019558425D+00
      0.1558418577D+02  0.6623360914D+00
 Atom C11      Shell   102 S   2     bf  280 -   280          5.484646223651          0.029835632921         -0.285832889704
      0.6206713851D+01  0.6559530854D+00
      0.2576489653D+01  0.3758563329D+00
 Atom C11      Shell   103 S   1     bf  281 -   281          5.484646223651          0.029835632921         -0.285832889704
      0.5769633942D+00  0.1000000000D+01
 Atom C11      Shell   104 S   1     bf  282 -   282          5.484646223651          0.029835632921         -0.285832889704
      0.2297283136D+00  0.1000000000D+01
 Atom C11      Shell   105 S   1     bf  283 -   283          5.484646223651          0.029835632921         -0.285832889704
      0.9516444003D-01  0.1000000000D+01
 Atom C11      Shell   106 P   4     bf  284 -   286          5.484646223651          0.029835632921         -0.285832889704
      0.3469723224D+02  0.1132722000D-01
      0.7958262283D+01  0.7616965920D-01
      0.2378082688D+01  0.3019225220D+00
      0.8143320818D+00  0.7278502735D+00
 Atom C11      Shell   107 P   1     bf  287 -   289          5.484646223651          0.029835632921         -0.285832889704
      0.2888754725D+00  0.1000000000D+01
 Atom C11      Shell   108 P   1     bf  290 -   292          5.484646223651          0.029835632921         -0.285832889704
      0.1005682367D+00  0.1000000000D+01
 Atom C11      Shell   109 D   1     bf  293 -   297          5.484646223651          0.029835632921         -0.285832889704
      0.1097000000D+01  0.1000000000D+01
 Atom C11      Shell   110 D   1     bf  298 -   302          5.484646223651          0.029835632921         -0.285832889704
      0.3180000000D+00  0.1000000000D+01
 Atom C11      Shell   111 F   1     bf  303 -   309          5.484646223651          0.029835632921         -0.285832889704
      0.7610000000D+00  0.1000000000D+01
 Atom S12      Shell   112 S   7     bf  310 -   310          8.498938590314         -0.031508828920          0.108685123081
      0.6070092810D+05  0.5238007490D-03
      0.9102610685D+04  0.4050632678D-02
      0.2071416601D+04  0.2082700417D-01
      0.5860247682D+03  0.8149685034D-01
      0.1905539502D+03  0.2374911384D+00
      0.6763038426D+02  0.4472617151D+00
      0.2512730691D+02  0.3489191844D+00
 Atom S12      Shell   113 S   3     bf  311 -   311          8.498938590314         -0.031508828920          0.108685123081
      0.1125746301D+03  0.1004556989D+00
      0.3479555422D+02  0.4339117295D+00
      0.6511555622D+01 -0.1208433059D+01
 Atom S12      Shell   114 S   2     bf  312 -   312          8.498938590314         -0.031508828920          0.108685123081
      0.3239903226D+01  0.6749812942D+00
      0.1547716088D+01  0.3470879576D+00
 Atom S12      Shell   115 S   1     bf  313 -   313          8.498938590314         -0.031508828920          0.108685123081
      0.4054103011D+00  0.1000000000D+01
 Atom S12      Shell   116 S   1     bf  314 -   314          8.498938590314         -0.031508828920          0.108685123081
      0.1455065106D+00  0.1000000000D+01
 Atom S12      Shell   117 P   5     bf  315 -   317          8.498938590314         -0.031508828920          0.108685123081
      0.5643671603D+03  0.3488692363D-02
      0.1334262438D+03  0.2768512678D-01
      0.4246827119D+02  0.1265940018D+00
      0.1561652758D+02  0.3616592567D+00
      0.6109398847D+01  0.6122203444D+00
 Atom S12      Shell   118 P   1     bf  318 -   320          8.498938590314         -0.031508828920          0.108685123081
      0.2440416020D+01  0.1000000000D+01
 Atom S12      Shell   119 P   1     bf  321 -   323          8.498938590314         -0.031508828920          0.108685123081
      0.8388220130D+00  0.1000000000D+01
 Atom S12      Shell   120 P   1     bf  324 -   326          8.498938590314         -0.031508828920          0.108685123081
      0.3128874690D+00  0.1000000000D+01
 Atom S12      Shell   121 P   1     bf  327 -   329          8.498938590314         -0.031508828920          0.108685123081
      0.1077010900D+00  0.1000000000D+01
 Atom S12      Shell   122 D   2     bf  330 -   334          8.498938590314         -0.031508828920          0.108685123081
      0.3756000000D+01  0.1828519746D+00
      0.8120000000D+00  0.9142598730D+00
 Atom S12      Shell   123 D   1     bf  335 -   339          8.498938590314         -0.031508828920          0.108685123081
      0.2730000000D+00  0.1000000000D+01
 Atom S12      Shell   124 F   1     bf  340 -   346          8.498938590314         -0.031508828920          0.108685123081
      0.5570000000D+00  0.1000000000D+01
 Effective core potential in the form of general ECP input:
      1 0
 Pa1-ECP   5 60
 H component
  1
  2        1.0000000        0.00000000    0.00000000
 S-H projection
  1
  2       15.2691737      475.47573283    0.00000000
 P-H projection
  1
  2        9.9577370      207.66485962    0.00000000
 D-H projection
  1
  2        8.9431413      156.67411988    0.00000000
 F-H projection
  1
  2        7.0104666       67.98223685    0.00000000
 G-H projection
  1
  2       12.2010560      -57.63059989    0.00000000
 
 There are   404 symmetry adapted cartesian basis functions of A   symmetry.
 There are   346 symmetry adapted basis functions of A   symmetry.
   346 basis functions,   615 primitive gaussians,   404 cartesian basis functions
    48 alpha electrons       48 beta electrons
       nuclear repulsion energy       683.2354601551 Hartrees.
 IExCor=  404 DFT=T Ex=B Corr=P86 ExCW=0 ScaHFX=  0.000000
 ScaDFX=  1.000000  1.000000  1.000000  1.000000 ScalE2=  1.000000  1.000000
 IRadAn=      5 IRanWt=     -1 IRanGd=            0 ICorTp=0 IEmpDi=  4
 NAtoms=   12 NActive=   12 NUniq=   12 SFac= 1.00D+00 NAtFMM=   60 NAOKFM=F Big=F
 Integral buffers will be    131072 words long.
 Raffenetti 2 integral format.
 Two-electron integral symmetry is turned on.
 Leave Link  301 at Wed Jul  5 10:33:34 2023, MaxMem=  2147483648 cpu:               0.4 elap:               0.1
 (Enter /home/pcmt/gaussian/g16.C.01/g16/l302.exe)
 NPDir=0 NMtPBC=     1 NCelOv=     1 NCel=       1 NClECP=     1 NCelD=      1
         NCelK=      1 NCelE2=     1 NClLst=     1 CellRange=     0.0.
 One-electron integrals computed using PRISM.
 One-electron integral symmetry used in STVInt
   1 Symmetry operations used in ECPInt.
 ECPInt:  NShTT=    7750 NPrTT=   23874 LenC2=    7160 LenP2D=   16287.
 LDataN:  DoStor=T MaxTD1= 9 Len=  602
 NBasis=   346 RedAO= T EigKep=  1.95D-04  NBF=   346
 NBsUse=   346 1.00D-06 EigRej= -1.00D+00 NBFU=   346
 Precomputing XC quadrature grid using
 IXCGrd= 4 IRadAn=           5 IRanWt=          -1 IRanGd=           0 AccXCQ= 0.00D+00.
 Defaulting to unpruned grid for atomic number  91.
 Generated NRdTot=       0 NPtTot=           0 NUsed=           0 NTot=          32
 NSgBfM=   398   398   398   398   398 MxSgAt=    12 MxSgA2=    12.
 Leave Link  302 at Wed Jul  5 10:33:36 2023, MaxMem=  2147483648 cpu:               7.6 elap:               1.3
 (Enter /home/pcmt/gaussian/g16.C.01/g16/l303.exe)
 DipDrv:  MaxL=1.
 Leave Link  303 at Wed Jul  5 10:33:36 2023, MaxMem=  2147483648 cpu:               0.5 elap:               0.1
 (Enter /home/pcmt/gaussian/g16.C.01/g16/l401.exe)
 ExpMin= 2.32D-02 ExpMax= 6.07D+04 ExpMxC= 1.20D+04 IAcc=3 IRadAn=         5 AccDes= 0.00D+00
 Harris functional with IExCor=  404 and IRadAn=       5 diagonalized for initial guess.
 HarFok:  IExCor=  404 AccDes= 0.00D+00 IRadAn=         5 IDoV= 1 UseB2=F ITyADJ=14
 ICtDFT=  3500011 ScaDFX=  1.000000  1.000000  1.000000  1.000000
 Defaulting to unpruned grid for atomic number  91.
 FoFCou: FMM=F IPFlag=           0 FMFlag=      100000 FMFlg1=           0
         NFxFlg=           0 DoJE=T BraDBF=F KetDBF=T FulRan=T
         wScrn=  0.000000 ICntrl=       500 IOpCl=  0 I1Cent=   200000004 NGrid=           0
         NMat0=    1 NMatS0=      1 NMatT0=    0 NMatD0=    1 NMtDS0=    0 NMtDT0=    0
 Petite list used in FoFCou.
 Harris En= -1237.92342467515    
 JPrj=0 DoOrth=F DoCkMO=F.
 Leave Link  401 at Wed Jul  5 10:33:39 2023, MaxMem=  2147483648 cpu:              22.4 elap:               2.8
 (Enter /home/pcmt/gaussian/g16.C.01/g16/l502.exe)
 Keep J ints in memory in canonical form, NReq=1835107390.
 FoFCou: FMM=F IPFlag=           0 FMFlag=           0 FMFlg1=           0
         NFxFlg=           0 DoJE=F BraDBF=F KetDBF=F FulRan=T
         wScrn=  0.000000 ICntrl=       600 IOpCl=  0 I1Cent=           0 NGrid=           0
         NMat0=    1 NMatS0=  60031 NMatT0=    0 NMatD0=    1 NMtDS0=    0 NMtDT0=    0
 Symmetry not used in FoFCou.
 Two-electron integral symmetry not used.
 Closed shell SCF:
 Using DIIS extrapolation, IDIIS=  1040.
 NGot=  2147483648 LenX=   345259756 LenY=   345096099
 Requested convergence on RMS density matrix=1.00D-08 within 100 cycles.
 Requested convergence on MAX density matrix=1.00D-06.
 Requested convergence on             energy=1.00D-06.
 No special actions if energy rises.

 Cycle   1  Pass 1  IDiag  1:
 Defaulting to unpruned grid for atomic number  91.
 Defaulting to unpruned grid for atomic number  91.
 Defaulting to unpruned grid for atomic number  91.
 Defaulting to unpruned grid for atomic number  91.
 Defaulting to unpruned grid for atomic number  91.
 Defaulting to unpruned grid for atomic number  91.
 Defaulting to unpruned grid for atomic number  91.
 Defaulting to unpruned grid for atomic number  91.
 E= -1235.41418822283    
 DIIS: error= 4.25D-02 at cycle   1 NSaved=   1.
 NSaved= 1 IEnMin= 1 EnMin= -1235.41418822283     IErMin= 1 ErrMin= 4.25D-02
 ErrMax= 4.25D-02  0.00D+00 EMaxC= 1.00D-01 BMatC= 1.52D+00 BMatP= 1.52D+00
 IDIUse=3 WtCom= 5.75D-01 WtEn= 4.25D-01
 Coeff-Com:  0.100D+01
 Coeff-En:   0.100D+01
 Coeff:      0.100D+01
 Gap=     0.153 Goal=   None    Shift=    0.000
 GapD=    0.153 DampG=1.000 DampE=0.250 DampFc=0.2500 IDamp=-1.
 Damping current iteration by 2.50D-01
 RMSDP=1.23D-02 MaxDP=1.47D+00              OVMax= 9.88D-01

 Cycle   2  Pass 1  IDiag  1:
 E= -1233.04237349451     Delta-E=        2.371814728320 Rises=F Damp=T
 DIIS: error= 5.29D-02 at cycle   2 NSaved=   2.
 NSaved= 2 IEnMin= 1 EnMin= -1235.41418822283     IErMin= 1 ErrMin= 4.25D-02
 ErrMax= 5.29D-02  0.00D+00 EMaxC= 1.00D-01 BMatC= 1.52D+00 BMatP= 1.52D+00
 IDIUse=3 WtCom= 4.71D-01 WtEn= 5.29D-01
 Coeff-Com:  0.500D+00 0.500D+00
 Coeff-En:   0.742D+00 0.258D+00
 Coeff:      0.628D+00 0.372D+00
 Gap=     0.034 Goal=   None    Shift=    0.000
 RMSDP=4.54D-03 MaxDP=1.93D-01 DE= 2.37D+00 OVMax= 9.32D-01

 Cycle   3  Pass 1  IDiag  1:
 E= -1235.42474248373     Delta-E=       -2.382368989220 Rises=F Damp=F
 DIIS: error= 4.73D-02 at cycle   3 NSaved=   3.
 NSaved= 3 IEnMin= 3 EnMin= -1235.42474248373     IErMin= 1 ErrMin= 4.25D-02
 ErrMax= 4.73D-02  0.00D+00 EMaxC= 1.00D-01 BMatC= 1.22D+00 BMatP= 1.52D+00
 IDIUse=3 WtCom= 5.27D-01 WtEn= 4.73D-01
 EnCoef did     2 forward-backward iterations
 Coeff-Com:  0.359D+00 0.335D+00 0.306D+00
 Coeff-En:   0.470D+00 0.130D+00 0.401D+00
 Coeff:      0.411D+00 0.238D+00 0.351D+00
 Gap=     0.236 Goal=   None    Shift=    0.000
 RMSDP=4.38D-03 MaxDP=1.93D-01 DE=-2.38D+00 OVMax= 6.38D-01

 Cycle   4  Pass 1  IDiag  1:
 E= -1235.70193475322     Delta-E=       -0.277192269491 Rises=F Damp=F
 DIIS: error= 5.75D-02 at cycle   4 NSaved=   4.
 NSaved= 4 IEnMin= 4 EnMin= -1235.70193475322     IErMin= 1 ErrMin= 4.25D-02
 ErrMax= 5.75D-02  0.00D+00 EMaxC= 1.00D-01 BMatC= 8.65D-01 BMatP= 1.22D+00
 IDIUse=3 WtCom= 4.25D-01 WtEn= 5.75D-01
 EnCoef did     2 forward-backward iterations
 Coeff-Com:  0.316D+00 0.225D+00 0.298D+00 0.162D+00
 Coeff-En:   0.228D+00 0.000D+00 0.330D+00 0.442D+00
 Coeff:      0.265D+00 0.956D-01 0.316D+00 0.323D+00
 Gap=     0.143 Goal=   None    Shift=    0.000
 RMSDP=2.16D-03 MaxDP=1.57D-01 DE=-2.77D-01 OVMax= 5.43D-01

 Cycle   5  Pass 1  IDiag  1:
 E= -1236.34887692554     Delta-E=       -0.646942172316 Rises=F Damp=F
 DIIS: error= 2.03D-02 at cycle   5 NSaved=   5.
 NSaved= 5 IEnMin= 5 EnMin= -1236.34887692554     IErMin= 5 ErrMin= 2.03D-02
 ErrMax= 2.03D-02  0.00D+00 EMaxC= 1.00D-01 BMatC= 1.34D-01 BMatP= 8.65D-01
 IDIUse=3 WtCom= 7.97D-01 WtEn= 2.03D-01
 Coeff-Com:  0.639D-01 0.124D+00 0.117D+00 0.155D+00 0.540D+00
 Coeff-En:   0.000D+00 0.000D+00 0.000D+00 0.251D+00 0.749D+00
 Coeff:      0.509D-01 0.987D-01 0.933D-01 0.175D+00 0.582D+00
 Gap=     0.111 Goal=   None    Shift=    0.000
 RMSDP=9.71D-04 MaxDP=7.34D-02 DE=-6.47D-01 OVMax= 1.96D-01

 Cycle   6  Pass 1  IDiag  1:
 E= -1236.43259341196     Delta-E=       -0.083716486423 Rises=F Damp=F
 DIIS: error= 1.38D-02 at cycle   6 NSaved=   6.
 NSaved= 6 IEnMin= 6 EnMin= -1236.43259341196     IErMin= 6 ErrMin= 1.38D-02
 ErrMax= 1.38D-02  0.00D+00 EMaxC= 1.00D-01 BMatC= 6.08D-02 BMatP= 1.34D-01
 IDIUse=3 WtCom= 8.62D-01 WtEn= 1.38D-01
 EnCoef did     7 forward-backward iterations
 Coeff-Com: -0.594D-01 0.803D-01 0.609D-04 0.577D-01 0.475D+00 0.446D+00
 Coeff-En:   0.000D+00 0.000D+00 0.000D+00 0.109D+00 0.370D+00 0.521D+00
 Coeff:     -0.511D-01 0.692D-01 0.525D-04 0.648D-01 0.461D+00 0.456D+00
 Gap=     0.059 Goal=   None    Shift=    0.000
 RMSDP=7.13D-04 MaxDP=3.22D-02 DE=-8.37D-02 OVMax= 1.24D-01

 Cycle   7  Pass 1  IDiag  1:
 E= -1236.47690521522     Delta-E=       -0.044311803254 Rises=F Damp=F
 DIIS: error= 8.07D-03 at cycle   7 NSaved=   7.
 NSaved= 7 IEnMin= 7 EnMin= -1236.47690521522     IErMin= 7 ErrMin= 8.07D-03
 ErrMax= 8.07D-03  0.00D+00 EMaxC= 1.00D-01 BMatC= 1.43D-02 BMatP= 6.08D-02
 IDIUse=3 WtCom= 9.19D-01 WtEn= 8.07D-02
 Coeff-Com: -0.506D-01 0.287D-01-0.316D-01 0.197D-01 0.148D+00 0.344D+00
 Coeff-Com:  0.541D+00
 Coeff-En:   0.000D+00 0.000D+00 0.000D+00 0.000D+00 0.000D+00 0.215D+00
 Coeff-En:   0.785D+00
 Coeff:     -0.465D-01 0.264D-01-0.290D-01 0.182D-01 0.136D+00 0.333D+00
 Coeff:      0.561D+00
 Gap=     0.073 Goal=   None    Shift=    0.000
 RMSDP=3.28D-04 MaxDP=1.73D-02 DE=-4.43D-02 OVMax= 5.47D-02

 Cycle   8  Pass 1  IDiag  1:
 E= -1236.48893920743     Delta-E=       -0.012033992209 Rises=F Damp=F
 DIIS: error= 1.80D-03 at cycle   8 NSaved=   8.
 NSaved= 8 IEnMin= 8 EnMin= -1236.48893920743     IErMin= 8 ErrMin= 1.80D-03
 ErrMax= 1.80D-03  0.00D+00 EMaxC= 1.00D-01 BMatC= 2.15D-03 BMatP= 1.43D-02
 IDIUse=3 WtCom= 9.82D-01 WtEn= 1.80D-02
 Coeff-Com:  0.685D-02 0.689D-03-0.729D-02 0.812D-02-0.948D-01 0.218D-01
 Coeff-Com:  0.283D+00 0.782D+00
 Coeff-En:   0.000D+00 0.000D+00 0.000D+00 0.000D+00 0.000D+00 0.000D+00
 Coeff-En:   0.000D+00 0.100D+01
 Coeff:      0.673D-02 0.676D-03-0.716D-02 0.797D-02-0.931D-01 0.214D-01
 Coeff:      0.278D+00 0.786D+00
 Gap=     0.059 Goal=   None    Shift=    0.000
 RMSDP=2.44D-04 MaxDP=1.52D-02 DE=-1.20D-02 OVMax= 4.06D-02

 Cycle   9  Pass 1  IDiag  1:
 E= -1236.49195684566     Delta-E=       -0.003017638234 Rises=F Damp=F
 DIIS: error= 1.70D-03 at cycle   9 NSaved=   9.
 NSaved= 9 IEnMin= 9 EnMin= -1236.49195684566     IErMin= 9 ErrMin= 1.70D-03
 ErrMax= 1.70D-03  0.00D+00 EMaxC= 1.00D-01 BMatC= 1.78D-03 BMatP= 2.15D-03
 IDIUse=3 WtCom= 9.83D-01 WtEn= 1.70D-02
 Coeff-Com:  0.128D-01-0.186D-02-0.177D-02 0.445D-02-0.787D-01 0.836D-02
 Coeff-Com:  0.195D+00 0.569D+00 0.292D+00
 Coeff-En:   0.000D+00 0.000D+00 0.000D+00 0.000D+00 0.000D+00 0.000D+00
 Coeff-En:   0.000D+00 0.000D+00 0.100D+01
 Coeff:      0.126D-01-0.183D-02-0.174D-02 0.438D-02-0.774D-01 0.822D-02
 Coeff:      0.192D+00 0.560D+00 0.304D+00
 Gap=     0.058 Goal=   None    Shift=    0.000
 RMSDP=4.54D-05 MaxDP=2.72D-03 DE=-3.02D-03 OVMax= 5.65D-03

 Cycle  10  Pass 1  IDiag  1:
 E= -1236.49216881417     Delta-E=       -0.000211968514 Rises=F Damp=F
 DIIS: error= 1.56D-03 at cycle  10 NSaved=  10.
 NSaved=10 IEnMin=10 EnMin= -1236.49216881417     IErMin=10 ErrMin= 1.56D-03
 ErrMax= 1.56D-03  0.00D+00 EMaxC= 1.00D-01 BMatC= 1.41D-03 BMatP= 1.78D-03
 IDIUse=3 WtCom= 9.84D-01 WtEn= 1.56D-02
 Coeff-Com:  0.116D-01 0.955D-03 0.311D-02-0.494D-02 0.721D-02 0.638D-01
 Coeff-Com:  0.989D-01-0.835D-03-0.145D+00 0.965D+00
 Coeff-En:   0.000D+00 0.000D+00 0.000D+00 0.000D+00 0.000D+00 0.000D+00
 Coeff-En:   0.000D+00 0.000D+00 0.210D+00 0.790D+00
 Coeff:      0.114D-01 0.940D-03 0.306D-02-0.487D-02 0.710D-02 0.628D-01
 Coeff:      0.974D-01-0.822D-03-0.139D+00 0.962D+00
 Gap=     0.060 Goal=   None    Shift=    0.000
 RMSDP=7.23D-05 MaxDP=1.01D-02 DE=-2.12D-04 OVMax= 5.61D-03

 Cycle  11  Pass 1  IDiag  1:
 E= -1236.49234971918     Delta-E=       -0.000180905005 Rises=F Damp=F
 DIIS: error= 6.94D-04 at cycle  11 NSaved=  11.
 NSaved=11 IEnMin=11 EnMin= -1236.49234971918     IErMin=11 ErrMin= 6.94D-04
 ErrMax= 6.94D-04  0.00D+00 EMaxC= 1.00D-01 BMatC= 3.89D-04 BMatP= 1.41D-03
 IDIUse=3 WtCom= 9.93D-01 WtEn= 6.94D-03
 Coeff-Com: -0.246D-02-0.186D-03-0.470D-03-0.827D-02 0.743D-01 0.648D-01
 Coeff-Com: -0.139D-01-0.335D+00-0.566D+00 0.907D+00 0.880D+00
 Coeff-En:   0.000D+00 0.000D+00 0.000D+00 0.000D+00 0.000D+00 0.000D+00
 Coeff-En:   0.000D+00 0.000D+00 0.000D+00 0.199D+00 0.801D+00
 Coeff:     -0.244D-02-0.185D-03-0.466D-03-0.822D-02 0.738D-01 0.643D-01
 Coeff:     -0.138D-01-0.333D+00-0.562D+00 0.902D+00 0.880D+00
 Gap=     0.061 Goal=   None    Shift=    0.000
 RMSDP=7.58D-05 MaxDP=5.23D-03 DE=-1.81D-04 OVMax= 9.25D-03

 Cycle  12  Pass 1  IDiag  1:
 E= -1236.49276329505     Delta-E=       -0.000413575871 Rises=F Damp=F
 DIIS: error= 4.43D-04 at cycle  12 NSaved=  12.
 NSaved=12 IEnMin=12 EnMin= -1236.49276329505     IErMin=12 ErrMin= 4.43D-04
 ErrMax= 4.43D-04  0.00D+00 EMaxC= 1.00D-01 BMatC= 1.33D-04 BMatP= 3.89D-04
 IDIUse=3 WtCom= 9.96D-01 WtEn= 4.43D-03
 Coeff-Com: -0.397D-02-0.463D-03-0.212D-03-0.580D-02 0.569D-01 0.343D-01
 Coeff-Com: -0.351D-01-0.254D+00-0.415D+00 0.495D+00 0.670D+00 0.458D+00
 Coeff-En:   0.000D+00 0.000D+00 0.000D+00 0.000D+00 0.000D+00 0.000D+00
 Coeff-En:   0.000D+00 0.000D+00 0.000D+00 0.000D+00 0.000D+00 0.100D+01
 Coeff:     -0.396D-02-0.460D-03-0.211D-03-0.578D-02 0.567D-01 0.342D-01
 Coeff:     -0.349D-01-0.253D+00-0.413D+00 0.493D+00 0.667D+00 0.460D+00
 Gap=     0.054 Goal=   None    Shift=    0.000
 RMSDP=3.69D-05 MaxDP=1.97D-03 DE=-4.14D-04 OVMax= 4.87D-03

 Cycle  13  Pass 1  IDiag  1:
 E= -1236.49284478017     Delta-E=       -0.000081485121 Rises=F Damp=F
 DIIS: error= 2.74D-04 at cycle  13 NSaved=  13.
 NSaved=13 IEnMin=13 EnMin= -1236.49284478017     IErMin=13 ErrMin= 2.74D-04
 ErrMax= 2.74D-04  0.00D+00 EMaxC= 1.00D-01 BMatC= 5.82D-05 BMatP= 1.33D-04
 IDIUse=3 WtCom= 9.97D-01 WtEn= 2.74D-03
 Coeff-Com: -0.129D-02 0.215D-03 0.640D-03-0.200D-02 0.173D-01 0.543D-02
 Coeff-Com: -0.141D-01-0.627D-01-0.174D+00 0.388D-01 0.285D+00 0.362D+00
 Coeff-Com:  0.544D+00
 Coeff-En:   0.000D+00 0.000D+00 0.000D+00 0.000D+00 0.000D+00 0.000D+00
 Coeff-En:   0.000D+00 0.000D+00 0.000D+00 0.000D+00 0.000D+00 0.217D+00
 Coeff-En:   0.783D+00
 Coeff:     -0.128D-02 0.215D-03 0.638D-03-0.199D-02 0.172D-01 0.542D-02
 Coeff:     -0.141D-01-0.625D-01-0.173D+00 0.387D-01 0.285D+00 0.361D+00
 Coeff:      0.545D+00
 Gap=     0.055 Goal=   None    Shift=    0.000
 RMSDP=2.04D-05 MaxDP=2.24D-03 DE=-8.15D-05 OVMax= 2.73D-03

 Cycle  14  Pass 1  IDiag  1:
 E= -1236.49287682088     Delta-E=       -0.000032040709 Rises=F Damp=F
 DIIS: error= 7.29D-05 at cycle  14 NSaved=  14.
 NSaved=14 IEnMin=14 EnMin= -1236.49287682088     IErMin=14 ErrMin= 7.29D-05
 ErrMax= 7.29D-05  0.00D+00 EMaxC= 1.00D-01 BMatC= 1.54D-06 BMatP= 5.82D-05
 IDIUse=1 WtCom= 1.00D+00 WtEn= 0.00D+00
 Coeff-Com: -0.242D-03 0.196D-04 0.280D-03-0.295D-03 0.220D-02-0.205D-02
 Coeff-Com: -0.782D-03-0.354D-02-0.429D-01-0.358D-01 0.808D-01 0.121D+00
 Coeff-Com:  0.261D+00 0.620D+00
 Coeff:     -0.242D-03 0.196D-04 0.280D-03-0.295D-03 0.220D-02-0.205D-02
 Coeff:     -0.782D-03-0.354D-02-0.429D-01-0.358D-01 0.808D-01 0.121D+00
 Coeff:      0.261D+00 0.620D+00
 Gap=     0.055 Goal=   None    Shift=    0.000
 RMSDP=3.06D-06 MaxDP=1.18D-04 DE=-3.20D-05 OVMax= 4.08D-04

 Cycle  15  Pass 1  IDiag  1:
 E= -1236.49287822869     Delta-E=       -0.000001407810 Rises=F Damp=F
 DIIS: error= 1.71D-05 at cycle  15 NSaved=  15.
 NSaved=15 IEnMin=15 EnMin= -1236.49287822869     IErMin=15 ErrMin= 1.71D-05
 ErrMax= 1.71D-05  0.00D+00 EMaxC= 1.00D-01 BMatC= 1.39D-07 BMatP= 1.54D-06
 IDIUse=1 WtCom= 1.00D+00 WtEn= 0.00D+00
 Coeff-Com: -0.721D-04-0.921D-05 0.124D-03-0.668D-04 0.459D-03-0.147D-02
 Coeff-Com:  0.402D-03-0.379D-03-0.171D-01-0.195D-01 0.349D-01 0.498D-01
 Coeff-Com:  0.117D+00 0.338D+00 0.498D+00
 Coeff:     -0.721D-04-0.921D-05 0.124D-03-0.668D-04 0.459D-03-0.147D-02
 Coeff:      0.402D-03-0.379D-03-0.171D-01-0.195D-01 0.349D-01 0.498D-01
 Coeff:      0.117D+00 0.338D+00 0.498D+00
 Gap=     0.055 Goal=   None    Shift=    0.000
 RMSDP=9.02D-07 MaxDP=2.16D-05 DE=-1.41D-06 OVMax= 1.52D-04

 Cycle  16  Pass 1  IDiag  1:
 E= -1236.49287831111     Delta-E=       -0.000000082416 Rises=F Damp=F
 DIIS: error= 5.30D-06 at cycle  16 NSaved=  16.
 NSaved=16 IEnMin=16 EnMin= -1236.49287831111     IErMin=16 ErrMin= 5.30D-06
 ErrMax= 5.30D-06  0.00D+00 EMaxC= 1.00D-01 BMatC= 2.75D-08 BMatP= 1.39D-07
 IDIUse=1 WtCom= 1.00D+00 WtEn= 0.00D+00
 Coeff-Com: -0.218D-04-0.650D-05 0.488D-04-0.105D-04 0.831D-04-0.743D-03
 Coeff-Com:  0.506D-03 0.758D-04-0.798D-02-0.901D-02 0.170D-01 0.210D-01
 Coeff-Com:  0.500D-01 0.161D+00 0.342D+00 0.426D+00
 Coeff:     -0.218D-04-0.650D-05 0.488D-04-0.105D-04 0.831D-04-0.743D-03
 Coeff:      0.506D-03 0.758D-04-0.798D-02-0.901D-02 0.170D-01 0.210D-01
 Coeff:      0.500D-01 0.161D+00 0.342D+00 0.426D+00
 Gap=     0.055 Goal=   None    Shift=    0.000
 RMSDP=4.27D-07 MaxDP=1.60D-05 DE=-8.24D-08 OVMax= 5.53D-05

 Cycle  17  Pass 1  IDiag  1:
 E= -1236.49287833078     Delta-E=       -0.000000019678 Rises=F Damp=F
 DIIS: error= 2.74D-06 at cycle  17 NSaved=  17.
 NSaved=17 IEnMin=17 EnMin= -1236.49287833078     IErMin=17 ErrMin= 2.74D-06
 ErrMax= 2.74D-06  0.00D+00 EMaxC= 1.00D-01 BMatC= 5.93D-09 BMatP= 2.75D-08
 IDIUse=1 WtCom= 1.00D+00 WtEn= 0.00D+00
 Coeff-Com:  0.198D-05-0.136D-05 0.124D-04 0.360D-05-0.371D-04-0.244D-03
 Coeff-Com:  0.322D-03 0.972D-04-0.266D-02-0.244D-02 0.593D-02 0.502D-02
 Coeff-Com:  0.121D-01 0.502D-01 0.156D+00 0.336D+00 0.439D+00
 Coeff:      0.198D-05-0.136D-05 0.124D-04 0.360D-05-0.371D-04-0.244D-03
 Coeff:      0.322D-03 0.972D-04-0.266D-02-0.244D-02 0.593D-02 0.502D-02
 Coeff:      0.121D-01 0.502D-01 0.156D+00 0.336D+00 0.439D+00
 Gap=     0.055 Goal=   None    Shift=    0.000
 RMSDP=1.76D-07 MaxDP=9.31D-06 DE=-1.97D-08 OVMax= 1.99D-05

 Cycle  18  Pass 1  IDiag  1:
 E= -1236.49287833310     Delta-E=       -0.000000002315 Rises=F Damp=F
 DIIS: error= 4.77D-07 at cycle  18 NSaved=  18.
 NSaved=18 IEnMin=18 EnMin= -1236.49287833310     IErMin=18 ErrMin= 4.77D-07
 ErrMax= 4.77D-07  0.00D+00 EMaxC= 1.00D-01 BMatC= 1.23D-10 BMatP= 5.93D-09
 IDIUse=1 WtCom= 1.00D+00 WtEn= 0.00D+00
 Coeff-Com:  0.226D-05-0.654D-07 0.582D-05-0.250D-06-0.157D-04-0.805D-04
 Coeff-Com:  0.657D-04 0.232D-04-0.723D-03-0.632D-03 0.153D-02 0.122D-02
 Coeff-Com:  0.299D-02 0.139D-01 0.455D-01 0.115D+00 0.190D+00 0.631D+00
 Coeff:      0.226D-05-0.654D-07 0.582D-05-0.250D-06-0.157D-04-0.805D-04
 Coeff:      0.657D-04 0.232D-04-0.723D-03-0.632D-03 0.153D-02 0.122D-02
 Coeff:      0.299D-02 0.139D-01 0.455D-01 0.115D+00 0.190D+00 0.631D+00
 Gap=     0.055 Goal=   None    Shift=    0.000
 RMSDP=6.61D-08 MaxDP=3.73D-06 DE=-2.32D-09 OVMax= 1.11D-05

 Cycle  19  Pass 1  IDiag  1:
 E= -1236.49287833324     Delta-E=       -0.000000000141 Rises=F Damp=F
 DIIS: error= 3.14D-07 at cycle  19 NSaved=  19.
 NSaved=19 IEnMin=19 EnMin= -1236.49287833324     IErMin=19 ErrMin= 3.14D-07
 ErrMax= 3.14D-07  0.00D+00 EMaxC= 1.00D-01 BMatC= 5.27D-11 BMatP= 1.23D-10
 IDIUse=1 WtCom= 1.00D+00 WtEn= 0.00D+00
 Coeff-Com:  0.107D-05 0.738D-07 0.192D-05-0.561D-07-0.628D-05-0.246D-04
 Coeff-Com:  0.195D-04 0.255D-05-0.243D-03-0.145D-03 0.468D-03 0.242D-03
 Coeff-Com:  0.557D-03 0.404D-02 0.159D-01 0.476D-01 0.908D-01 0.435D+00
 Coeff-Com:  0.406D+00
 Coeff:      0.107D-05 0.738D-07 0.192D-05-0.561D-07-0.628D-05-0.246D-04
 Coeff:      0.195D-04 0.255D-05-0.243D-03-0.145D-03 0.468D-03 0.242D-03
 Coeff:      0.557D-03 0.404D-02 0.159D-01 0.476D-01 0.908D-01 0.435D+00
 Coeff:      0.406D+00
 Gap=     0.055 Goal=   None    Shift=    0.000
 RMSDP=1.64D-08 MaxDP=8.88D-07 DE=-1.41D-10 OVMax= 1.79D-06

 Cycle  20  Pass 1  IDiag  1:
 E= -1236.49287833332     Delta-E=       -0.000000000075 Rises=F Damp=F
 DIIS: error= 1.25D-07 at cycle  20 NSaved=  20.
 NSaved=20 IEnMin=20 EnMin= -1236.49287833332     IErMin=20 ErrMin= 1.25D-07
 ErrMax= 1.25D-07  0.00D+00 EMaxC= 1.00D-01 BMatC= 8.17D-12 BMatP= 5.27D-11
 IDIUse=1 WtCom= 1.00D+00 WtEn= 0.00D+00
 Coeff-Com:  0.360D-06 0.750D-07 0.248D-06 0.139D-06-0.206D-05-0.414D-05
 Coeff-Com:  0.721D-05-0.465D-05-0.809D-04-0.410D-05 0.138D-03-0.117D-04
 Coeff-Com: -0.948D-04 0.842D-03 0.525D-02 0.195D-01 0.421D-01 0.233D+00
 Coeff-Com:  0.297D+00 0.402D+00
 Coeff:      0.360D-06 0.750D-07 0.248D-06 0.139D-06-0.206D-05-0.414D-05
 Coeff:      0.721D-05-0.465D-05-0.809D-04-0.410D-05 0.138D-03-0.117D-04
 Coeff:     -0.948D-04 0.842D-03 0.525D-02 0.195D-01 0.421D-01 0.233D+00
 Coeff:      0.297D+00 0.402D+00
 Gap=     0.055 Goal=   None    Shift=    0.000
 RMSDP=8.85D-09 MaxDP=4.65D-07 DE=-7.55D-11 OVMax= 1.15D-06

 SCF Done:  E(RB-P86) =  -1236.49287833     A.U. after   20 cycles
            NFock= 20  Conv=0.89D-08     -V/T= 2.2919
 KE= 9.570857725342D+02 PE=-4.169266239559D+03 EE= 1.292452128537D+03
 Leave Link  502 at Wed Jul  5 10:36:34 2023, MaxMem=  2147483648 cpu:             875.5 elap:             175.3
 (Enter /home/pcmt/gaussian/g16.C.01/g16/l601.exe)
 Copying SCF densities to generalized density rwf, IOpCl= 0 IROHF=0.

 **********************************************************************

            Population analysis using the SCF Density.

 **********************************************************************

 Orbital symmetries:
       Occupied  (A) (A) (A) (A) (A) (A) (A) (A) (A) (A) (A) (A)
                 (A) (A) (A) (A) (A) (A) (A) (A) (A) (A) (A) (A)
                 (A) (A) (A) (A) (A) (A) (A) (A) (A) (A) (A) (A)
                 (A) (A) (A) (A) (A) (A) (A) (A) (A) (A) (A) (A)
       Virtual   (A) (A) (A) (A) (A) (A) (A) (A) (A) (A) (A) (A)
                 (A) (A) (A) (A) (A) (A) (A) (A) (A) (A) (A) (A)
                 (A) (A) (A) (A) (A) (A) (A) (A) (A) (A) (A) (A)
                 (A) (A) (A) (A) (A) (A) (A) (A) (A) (A) (A) (A)
                 (A) (A) (A) (A) (A) (A) (A) (A) (A) (A) (A) (A)
                 (A) (A) (A) (A) (A) (A) (A) (A) (A) (A) (A) (A)
                 (A) (A) (A) (A) (A) (A) (A) (A) (A) (A) (A) (A)
                 (A) (A) (A) (A) (A) (A) (A) (A) (A) (A) (A) (A)
                 (A) (A) (A) (A) (A) (A) (A) (A) (A) (A) (A) (A)
                 (A) (A) (A) (A) (A) (A) (A) (A) (A) (A) (A) (A)
                 (A) (A) (A) (A) (A) (A) (A) (A) (A) (A) (A) (A)
                 (A) (A) (A) (A) (A) (A) (A) (A) (A) (A) (A) (A)
                 (A) (A) (A) (A) (A) (A) (A) (A) (A) (A) (A) (A)
                 (A) (A) (A) (A) (A) (A) (A) (A) (A) (A) (A) (A)
                 (A) (A) (A) (A) (A) (A) (A) (A) (A) (A) (A) (A)
                 (A) (A) (A) (A) (A) (A) (A) (A) (A) (A) (A) (A)
                 (A) (A) (A) (A) (A) (A) (A) (A) (A) (A) (A) (A)
                 (A) (A) (A) (A) (A) (A) (A) (A) (A) (A) (A) (A)
                 (A) (A) (A) (A) (A) (A) (A) (A) (A) (A) (A) (A)
                 (A) (A) (A) (A) (A) (A) (A) (A) (A) (A) (A) (A)
                 (A) (A) (A) (A) (A) (A) (A) (A) (A) (A) (A) (A)
                 (A) (A) (A) (A) (A) (A) (A) (A) (A) (A) (A) (A)
                 (A) (A) (A) (A) (A) (A) (A) (A) (A) (A) (A) (A)
                 (A) (A) (A) (A) (A) (A) (A) (A) (A) (A) (A) (A)
                 (A) (A) (A) (A) (A) (A) (A) (A) (A) (A)
 The electronic state is 1-A.
 Alpha  occ. eigenvalues --  -88.06779 -18.78644 -18.78471 -18.77853 -18.77824
 Alpha  occ. eigenvalues --  -13.98287 -11.12581  -9.95221  -7.64798  -7.19080
 Alpha  occ. eigenvalues --   -7.18759  -7.18645  -5.66944  -5.66288  -5.66227
 Alpha  occ. eigenvalues --   -3.54528  -3.54503  -3.54470  -3.54315  -3.54164
 Alpha  occ. eigenvalues --   -1.73984  -0.97096  -0.94935  -0.94433  -0.90424
 Alpha  occ. eigenvalues --   -0.83610  -0.81506  -0.80510  -0.79556  -0.66694
 Alpha  occ. eigenvalues --   -0.47384  -0.45966  -0.44167  -0.41277  -0.39505
 Alpha  occ. eigenvalues --   -0.35125  -0.33446  -0.33173  -0.32406  -0.31741
 Alpha  occ. eigenvalues --   -0.30806  -0.30350  -0.29886  -0.29368  -0.29214
 Alpha  occ. eigenvalues --   -0.28155  -0.20270  -0.19903
 Alpha virt. eigenvalues --   -0.14387  -0.13685  -0.12733  -0.12698  -0.11822
 Alpha virt. eigenvalues --   -0.11223  -0.10023  -0.08715  -0.04176  -0.03393
 Alpha virt. eigenvalues --   -0.02393  -0.00177   0.00145   0.01196   0.01794
 Alpha virt. eigenvalues --    0.02572   0.03990   0.04544   0.05221   0.07337
 Alpha virt. eigenvalues --    0.09008   0.10271   0.11708   0.15431   0.15722
 Alpha virt. eigenvalues --    0.19377   0.21757   0.22412   0.23146   0.23915
 Alpha virt. eigenvalues --    0.25123   0.25373   0.25694   0.27299   0.27821
[...]
  33         O                -0.441673          3.375927
  34         O                -0.412774          2.666135
  35         O                -0.395048          2.511460
  36         O                -0.351251          2.867350
  37         O                -0.334463          1.663695
  38         O                -0.331728          1.484490
  39         O                -0.324062          2.094493
  40         O                -0.317409          2.366574
  41         O                -0.308055          2.885079
  42         O                -0.303499          2.334211
  43         O                -0.298861          3.100574
  44         O                -0.293681          2.365248
  45         O                -0.292139          5.032339
  46         O                -0.281547          2.921519
  47         O                -0.202700          2.428139
  48         O                -0.199033          1.913383
  49         V                -0.143869        170.879908
  50         V                -0.136847          5.316197
  51         V                -0.127326          8.994872
  52         V                -0.126977          5.174007
  53         V                -0.118219         67.386477
  54         V                -0.112229        141.839041
  55         V                -0.100231          5.219728
  56         V                -0.087146          7.414804
  57         V                -0.041756         16.905621
  58         V                -0.033931          1.756556
  59         V                -0.023928          1.712182
  60         V                -0.001766          1.563262
  61         V                 0.001448          2.307224
  62         V                 0.011963          1.029982
  63         V                 0.017940          1.207675
  64         V                 0.025719          1.493035
  65         V                 0.039900          2.305757
  66         V                 0.045435          1.434009
  67         V                 0.052206          2.074122
  68         V                 0.073371          2.357932
  69         V                 0.090080          5.372653
  70         V                 0.102714          0.900103
  71         V                 0.117077          1.020628
  72         V                 0.154311          1.683841
  73         V                 0.157223          1.040722
  74         V                 0.193770          1.028018
  75         V                 0.217572          1.106856
  76         V                 0.224115          1.033688
  77         V                 0.231459          1.508913
  78         V                 0.239153          1.953669
  79         V                 0.251229          1.433118
  80         V                 0.253730          1.255655
  81         V                 0.256943          1.465353
  82         V                 0.272988          1.130178
  83         V                 0.278210          1.209823
  84         V                 0.284770          1.265771
  85         V                 0.292207          1.849993
  86         V                 0.297823          1.588660
  87         V                 0.311432          1.377149
  88         V                 0.319585          1.482994
  89         V                 0.329505          1.238387
  90         V                 0.332913          1.179179
  91         V                 0.352515          1.462737
  92         V                 0.374272          2.790305
  93         V                 0.386810          1.483422
  94         V                 0.404058          1.826155
  95         V                 0.407934          2.008308
  96         V                 0.424419          1.852090
  97         V                 0.431482          2.032228
  98         V                 0.433530          1.601530
  99         V                 0.448204          1.757112
 100         V                 0.455052          1.790847
 101         V                 0.463734          2.480369
 102         V                 0.479254          1.402843
 103         V                 0.481669          1.680967
 104         V                 0.502750          1.676586
 105         V                 0.512078          1.956672
 106         V                 0.522729          1.740293
 107         V                 0.532038          1.406691
 108         V                 0.544152          1.678376
 109         V                 0.554226          1.467471
 110         V                 0.572286          2.050864
 111         V                 0.578362          1.865906
 112         V                 0.597650          1.606099
 113         V                 0.638080          1.532496
 114         V                 0.648431          1.579659
 115         V                 0.655664          1.885407
 116         V                 0.668820          1.717754
 117         V                 0.688230          1.541195
 118         V                 0.697045          1.448468
 119         V                 0.727490          1.639893
 120         V                 0.743222          1.664688
 121         V                 0.754425          1.670388
 122         V                 0.772484          1.950892
 123         V                 0.816028          2.287835
 124         V                 0.843726          2.576883
 125         V                 0.867458          2.105300
 126         V                 0.881667          2.001328
 127         V                 0.923943          3.781817
 128         V                 0.931517          2.353440
 129         V                 0.957332          2.550874
 130         V                 1.003742          2.624601
 131         V                 1.019806          2.261869
 132         V                 1.042323          2.192131
 133         V                 1.047042          2.563698
 134         V                 1.068979          3.058639
 135         V                 1.088479          2.459198
 136         V                 1.093605          3.105165
 137         V                 1.095399          3.094775
 138         V                 1.119226          2.939202
 139         V                 1.125006          2.479883
 140         V                 1.138334          2.314157
 141         V                 1.160566          2.836002
 142         V                 1.167522          2.452124
 143         V                 1.170606          2.320645
 144         V                 1.194358          2.444830
 145         V                 1.218722          2.797852
 146         V                 1.226343          2.868094
 147         V                 1.248785          3.847684
 148         V                 1.265440          3.092935
 149         V                 1.300302          3.034387
 150         V                 1.313450          2.655100
 151         V                 1.331526          2.807943
 152         V                 1.365765          2.555167
 153         V                 1.376958          2.661220
 154         V                 1.405197          2.612759
 155         V                 1.418445          2.954643
 156         V                 1.422873          3.707639
 157         V                 1.423964          3.676313
 158         V                 1.429904          2.960090
 159         V                 1.434598          3.224802
 160         V                 1.449588          3.274983
 161         V                 1.459198          3.330009
 162         V                 1.472965          3.154361
 163         V                 1.484714          3.076932
 164         V                 1.497387          3.229857
 165         V                 1.526126          3.515122
 166         V                 1.530525          3.388386
 167         V                 1.560224          3.594785
 168         V                 1.566333          3.245564
 169         V                 1.595669          3.642794
 170         V                 1.605809          3.611845
 171         V                 1.621650          2.500905
 172         V                 1.621655          2.501035
 173         V                 1.643714          3.385460
 174         V                 1.654874          3.108615
 175         V                 1.673016          3.219096
 176         V                 1.691468          3.533484
 177         V                 1.701515          3.295737
 178         V                 1.707853          2.843119
 179         V                 1.711342          2.908239
 180         V                 1.726115          3.347836
 181         V                 1.768233          4.307413
 182         V                 1.770948          4.975950
 183         V                 1.774416          4.349746
 184         V                 1.786401          3.467551
 185         V                 1.795625          3.703426
 186         V                 1.812156          3.883447
 187         V                 1.841824          3.239201
 188         V                 1.845240          3.404758
 189         V                 1.871575          3.548603
 190         V                 1.886888          3.883039
 191         V                 1.913081          3.506121
 192         V                 1.935018          3.688238
 193         V                 1.953782          3.620376
 194         V                 2.082333          4.411883
 195         V                 2.135338          4.035423
 196         V                 2.148855          4.379744
 197         V                 2.156313          4.369305
 198         V                 2.164168          4.044045
 199         V                 2.188857          3.673063
 200         V                 2.203633          4.208443
 201         V                 2.215072          3.817692
 202         V                 2.229226          4.315207
 203         V                 2.243232          4.195007
 204         V                 2.258871          4.677623
 205         V                 2.274966          3.823347
 206         V                 2.346129          5.070790
 207         V                 2.387272          4.653304
 208         V                 2.462053          4.281914
 209         V                 2.477682          5.445722
 210         V                 2.510899          4.537069
 211         V                 2.522095          4.040788
 212         V                 2.556566          6.936452
 213         V                 2.591434          6.093514
 214         V                 2.593269          5.836140
 215         V                 2.597843          3.462904
 216         V                 2.598858          4.041095
 217         V                 2.617146          6.649995
 218         V                 2.636477          6.489500
 219         V                 2.664376          5.911780
 220         V                 2.668366          4.947396
 221         V                 2.673497          5.182720
 222         V                 2.705880          6.060502
 223         V                 2.712707          6.278608
 224         V                 2.759779          6.448352
 225         V                 2.767382          6.559786
 226         V                 2.832567          5.503234
 227         V                 2.839172          6.097246
 228         V                 2.846356          4.141201
 229         V                 2.882178          4.489102
 230         V                 2.904320          4.338673
 231         V                 2.942986          5.804903
 232         V                 2.962691          6.624996
 233         V                 3.007527          6.540374
 234         V                 3.037304          4.693563
 235         V                 3.077492          4.944476
 236         V                 3.289954          5.702549
 237         V                 3.418286          8.334245
 238         V                 3.456938          8.354819
 239         V                 3.540179          5.656330
 240         V                 3.550418          5.786866
 241         V                 3.583152          7.792420
 242         V                 3.642845          6.855619
 243         V                 3.656179          8.283554
 244         V                 3.680377          7.053347
 245         V                 3.715949          6.923011
 246         V                 3.731881          6.659232
 247         V                 3.775964          7.882064
 248         V                 3.831202          8.609705
 249         V                 3.865324          8.393321
 250         V                 3.874297          5.546343
 251         V                 3.876944          6.224470
 252         V                 3.908286          8.843252
 253         V                 4.043893          8.229363
 254         V                 4.136074          9.103033
 255         V                 4.199882          9.439821
 256         V                 4.207758          9.201338
 257         V                 4.298077          7.244726
 258         V                 4.406316          6.100441
 259         V                 4.426658          6.038849
 260         V                 4.512569          6.481492
 261         V                 4.545481          6.654693
 262         V                 4.985164          6.699638
 263         V                 4.989781          6.524886
 264         V                 4.992256          6.481891
 265         V                 4.994448          6.451430
 266         V                 4.998402          6.618405
 267         V                 5.000626          6.578432
 268         V                 5.007599          6.476297
 269         V                 5.011599          6.730362
 270         V                 5.022020          6.501847
 271         V                 5.028535          6.666765
 272         V                 5.057766          6.677633
 273         V                 5.067009          6.676524
 274         V                 5.082730          6.700902
 275         V                 5.092072          6.690332
 276         V                 5.106352          6.719066
 277         V                 5.128461          6.887578
 278         V                 5.147163          6.878319
 279         V                 5.159070          6.963774
 280         V                 5.306059          7.691969
 281         V                 5.315744          7.238998
 282         V                 5.323347          7.056491
 283         V                 5.340429          7.138708
 284         V                 5.377202          7.062393
 285         V                 5.400437          7.125034
 286         V                 5.419149          7.222751
 287         V                 5.429535          7.227117
 288         V                 5.435509          7.326362
 289         V                 5.441984          7.341171
 290         V                 5.647579          8.784433
 291         V                 5.788313          9.226593
 292         V                 6.063302          9.950141
 293         V                 6.078780          9.204944
 294         V                 6.094966          9.184007
 295         V                 6.109376          9.120041
 296         V                 6.130579          9.299649
 297         V                 6.164182          9.149046
 298         V                 6.175420          9.255389
 299         V                 6.201001          9.443890
 300         V                 6.225613          9.366661
 301         V                 6.245749          9.288338
 302         V                 6.261051          9.317670
 303         V                 6.281454          9.584555
 304         V                 6.310602          9.508136
 305         V                 6.409017          9.620585
 306         V                 6.431035          9.648202
 307         V                 6.460466          9.663477
 308         V                 6.489461          9.674324
 309         V                 6.614450         10.076360
 310         V                 6.639540         10.307199
 311         V                 6.646534         10.006785
 312         V                 6.765108         10.137996
 313         V                 6.938862         10.296246
 314         V                 6.985995         10.034629
 315         V                 7.024445         10.047847
 316         V                 7.095868         11.060416
 317         V                 7.257065         13.028467
 318         V                 7.423961         13.777074
 319         V                 7.554836         14.025868
 320         V                 8.144742         15.789916
 321         V                 8.148320         15.813560
 322         V                 8.213014         15.818014
 323         V                 8.634784         16.154277
 324         V                 8.741929         27.833350
 325         V                 8.742249         27.832535
 326         V                 9.007349         16.533853
 327         V                 9.268433         27.934336
 328         V                20.218367         37.540452
 329         V                22.576596         55.153221
 330         V                29.292508         36.043857
 331         V                29.436608         36.187239
 332         V                29.531360         36.451679
 333         V                32.209591         80.269412
 334         V                43.227925        108.601735
 335         V                43.350822        108.706618
 336         V                43.397321        108.766614
 337         V                43.418614        108.786606
 338         V                54.090095         39.997346
 339         V                70.198775         83.965716
 340         V                70.281041         84.122676
 341         V                70.337546         84.232675
 342         V               142.595060        242.451364
 343         V               142.754953        242.652951
 344         V               142.866440        242.791843
 345         V               202.579029        130.104087
 346         V               626.087902       1034.518997
 Total kinetic energy from orbitals= 9.570857725342D+02
 No NMR shielding tensors so no spin-rotation constants.
 Leave Link  601 at Wed Jul  5 10:36:34 2023, MaxMem=  2147483648 cpu:               3.6 elap:               0.5
 (Enter /home/pcmt/gaussian/g16.C.01/g16/l9999.exe)

 Test job not archived.
 1\1\GINC-U-0-13\SP\RBP86\Gen\C1H4N1O4Pa1S1\ROOT\05-Jul-2023\0\\#p BP86
 /GEN Pseudo=Read GFInput GFPrint IOP(6/7=3) Symm=(Loose) Int=(UltraFin
 e) Guess=(Harris) Scf=(NoVarAcc,MaxCycle=100,conver=8)\\pa_oh4_ncs-bp8
 6-cosmors-deftzvp-gp.com SGP in PCM calculation\\0,1\Pa,0,-0.118443367
 ,0.0645677373,-0.3841633303\N,0,0.8584914908,1.6753200596,-1.864483527
 \H,0,-1.4108229534,1.8617867307,1.474393794\O,0,-1.1113154587,1.648383
 975,0.581149079\H,0,2.3477621635,-0.2586904684,1.0977727508\O,0,0.7770
 498331,-1.429257331,-1.5403713315\H,0,1.1360270705,-2.3252153925,-1.51
 79798021\O,0,-1.0684513984,-1.3676298814,0.8154881052\H,0,-1.021114137
 3,-2.1672542745,1.3511611695\O,0,1.5451969854,0.2243663286,0.870256674
 7\C,0,1.537960675,2.4471324924,-2.4450163513\S,0,2.4587166277,3.499909
 0684,-3.2405263394\\Version=ES64L-G16RevC.01\State=1-A\HF=-1236.492878
 3\RMSD=8.852e-09\Dipole=-0.9805891,-2.5156673,1.5473053\Quadrupole=0.7
 209113,0.7146114,-1.4355227,-6.1828834,4.0975942,3.203861\PG=C01 [X(C1
 H4N1O4Pa1S1)]\\@


 DON'T WORRY CHARLIE BROWN...WE LEARN MORE FROM LOSING 
 THAN WE DO FROM WINNING.
 THEN THAT MAKES ME THE SMARTEST PERSON IN THE WORLD...
 CHARLES SCHULZ 'PEANUTS'
 Job cpu time:       0 days  0 hours 15 minutes 12.2 seconds.
 Elapsed time:       0 days  0 hours  3 minutes  0.6 seconds.
 File lengths (MBytes):  RWF=     48 Int=      0 D2E=      0 Chk=      8 Scr=      1
 Normal termination of Gaussian 16 at Wed Jul  5 10:36:35 2023.
