 Entering Gaussian System, Link 0=/home/pcmt/gaussian/g16.C.01/g16/g16
 AtFile(1): /home/shaaban/basis.gaussian/Pa-def-TZVP
 AtFile(1): /home/shaaban/basis.gaussian/Pa-ECP60MWB
 Initial command:
 /home/pcmt/gaussian/g16.C.01/g16/l1.exe "/state/partition2/shaaban/973081.phlam-s-sakura/Gau-51304.inp" -scrdir="/state/partition2/shaaban/973081.phlam-s-sakura/"
 Entering Link 1 = /home/pcmt/gaussian/g16.C.01/g16/l1.exe PID=     51305.
  
 Copyright (c) 1988-2019, Gaussian, Inc.  All Rights Reserved.
  
 This is part of the Gaussian(R) 16 program.  It is based on
 the Gaussian(R) 09 system (copyright 2009, Gaussian, Inc.),
 the Gaussian(R) 03 system (copyright 2003, Gaussian, Inc.),
 the Gaussian(R) 98 system (copyright 1998, Gaussian, Inc.),
 the Gaussian(R) 94 system (copyright 1995, Gaussian, Inc.),
 the Gaussian 92(TM) system (copyright 1992, Gaussian, Inc.),
 the Gaussian 90(TM) system (copyright 1990, Gaussian, Inc.),
 the Gaussian 88(TM) system (copyright 1988, Gaussian, Inc.),
 the Gaussian 86(TM) system (copyright 1986, Carnegie Mellon
 University), and the Gaussian 82(TM) system (copyright 1983,
 Carnegie Mellon University). Gaussian is a federally registered
 trademark of Gaussian, Inc.
  
 This software contains proprietary and confidential information,
 including trade secrets, belonging to Gaussian, Inc.
  
 This software is provided under written license and may be
 used, copied, transmitted, or stored only in accord with that
 written license.
  
 The following legend is applicable only to US Government
 contracts under FAR:
  
                    RESTRICTED RIGHTS LEGEND
  
 Use, reproduction and disclosure by the US Government is
 subject to restrictions as set forth in subparagraphs (a)
 and (c) of the Commercial Computer Software - Restricted
 Rights clause in FAR 52.227-19.
  
 Gaussian, Inc.
 340 Quinnipiac St., Bldg. 40, Wallingford CT 06492
  
  
 ---------------------------------------------------------------
 Warning -- This program may not be used in any manner that
 competes with the business of Gaussian, Inc. or will provide
 assistance to any competitor of Gaussian, Inc.  The licensee
 of this program is prohibited from giving any competitor of
 Gaussian, Inc. access to this program.  By using this program,
 the user acknowledges that Gaussian, Inc. is engaged in the
 business of creating and licensing software in the field of
 computational chemistry and represents and warrants to the
 licensee that it is not a competitor of Gaussian, Inc. and that
 it will not use this program in any manner prohibited above.
 ---------------------------------------------------------------
  

 Cite this work as:
 Gaussian 16, Revision C.01,
 M. J. Frisch, G. W. Trucks, H. B. Schlegel, G. E. Scuseria, 
 M. A. Robb, J. R. Cheeseman, G. Scalmani, V. Barone, 
 G. A. Petersson, H. Nakatsuji, X. Li, M. Caricato, A. V. Marenich, 
 J. Bloino, B. G. Janesko, R. Gomperts, B. Mennucci, H. P. Hratchian, 
 J. V. Ortiz, A. F. Izmaylov, J. L. Sonnenberg, D. Williams-Young, 
 F. Ding, F. Lipparini, F. Egidi, J. Goings, B. Peng, A. Petrone, 
 T. Henderson, D. Ranasinghe, V. G. Zakrzewski, J. Gao, N. Rega, 
 G. Zheng, W. Liang, M. Hada, M. Ehara, K. Toyota, R. Fukuda, 
 J. Hasegawa, M. Ishida, T. Nakajima, Y. Honda, O. Kitao, H. Nakai, 
 T. Vreven, K. Throssell, J. A. Montgomery, Jr., J. E. Peralta, 
 F. Ogliaro, M. J. Bearpark, J. J. Heyd, E. N. Brothers, K. N. Kudin, 
 V. N. Staroverov, T. A. Keith, R. Kobayashi, J. Normand, 
 K. Raghavachari, A. P. Rendell, J. C. Burant, S. S. Iyengar, 
 J. Tomasi, M. Cossi, J. M. Millam, M. Klene, C. Adamo, R. Cammi, 
 J. W. Ochterski, R. L. Martin, K. Morokuma, O. Farkas, 
 J. B. Foresman, and D. J. Fox, Gaussian, Inc., Wallingford CT, 2019.
 
 ******************************************
 Gaussian 16:  ES64L-G16RevC.01  3-Jul-2019
                 5-Jul-2023 
 ******************************************
 %mem=16Gb
 %NProc=8
 Will use up to    8 processors via shared memory.
 %chk=pa_oh4_ncs-bp86-cosmors-deftzvp-klamt.chk
 ----------------------------------------------------------------------
 #p BP86/GEN Pseudo=Read GFInput GFPrint IOP(6/7=3) Symm=(Loose) Int=(U
 ltraFine) Guess=(Harris) SCRF=(COSMORS) Scf=(NoVarAcc,MaxCycle=100,con
 ver=8)
 ----------------------------------------------------------------------
 1/38=1,172=1/1;
 2/12=2,17=4,18=3,40=1/2;
 3/5=7,11=2,16=1,17=8,24=110,25=1,30=1,70=12101,74=404,75=-5/1,2,3;
 4/11=8/1;
 5/5=2,6=8,7=100,38=1/2;
 6/7=3,8=2,9=2,10=2,28=1/1;
 99/5=1,9=1/99;
 Leave Link    1 at Wed Jul  5 10:33:34 2023, MaxMem=  2147483648 cpu:               0.7 elap:               0.1
 (Enter /home/pcmt/gaussian/g16.C.01/g16/l101.exe)
 ----------------------------------------------------------------
 pa_oh4_ncs-bp86-cosmors-deftzvp-klamt.com SGP in PCM calculation
 ----------------------------------------------------------------
 Symbolic Z-matrix:
 Charge =  0 Multiplicity = 1
 Pa                   -0.11844   0.06457  -0.38416 
 N                     0.85849   1.67532  -1.86448 
 H                    -1.41082   1.86179   1.47439 
 O                    -1.11132   1.64838   0.58115 
 H                     2.34776  -0.25869   1.09777 
 O                     0.77705  -1.42926  -1.54037 
 H                     1.13603  -2.32522  -1.51798 
 O                    -1.06845  -1.36763   0.81549 
 H                    -1.02111  -2.16725   1.35116 
 O                     1.5452    0.22437   0.87026 
 C                     1.53796   2.44713  -2.44502 
 S                     2.45872   3.49991  -3.24053 
 
 ITRead=  0  0  0  0  0  0  0  0  0  0  0  0
 MicOpt= -1 -1 -1 -1 -1 -1 -1 -1 -1 -1 -1 -1
 NAtoms=     12 NQM=       12 NQMF=       0 NMMI=      0 NMMIF=      0
                NMic=       0 NMicF=      0.
                    Isotopes and Nuclear Properties:
 (Nuclear quadrupole moments (NQMom) in fm**2, nuclear magnetic moments (NMagM)
  in nuclear magnetons)

  Atom         1           2           3           4           5           6           7           8           9          10
 IAtWgt=         231          14           1          16           1          16           1          16           1          16
 AtmWgt= 231.0359000  14.0030740   1.0078250  15.9949146   1.0078250  15.9949146   1.0078250  15.9949146   1.0078250  15.9949146
 NucSpn=           3           2           1           0           1           0           1           0           1           0
 AtZEff=  -0.0000000  -0.0000000  -0.0000000  -0.0000000  -0.0000000  -0.0000000  -0.0000000  -0.0000000  -0.0000000  -0.0000000
 NQMom= -172.0000000   2.0440000   0.0000000   0.0000000   0.0000000   0.0000000   0.0000000   0.0000000   0.0000000   0.0000000
 NMagM=    2.0100000   0.4037610   2.7928460   0.0000000   2.7928460   0.0000000   2.7928460   0.0000000   2.7928460   0.0000000
 AtZNuc=  91.0000000   7.0000000   1.0000000   8.0000000   1.0000000   8.0000000   1.0000000   8.0000000   1.0000000   8.0000000

  Atom        11          12
 IAtWgt=          12          32
 AtmWgt=  12.0000000  31.9720718
 NucSpn=           0           0
 AtZEff=  -0.0000000  -0.0000000
 NQMom=    0.0000000   0.0000000
 NMagM=    0.0000000   0.0000000
 AtZNuc=   6.0000000  16.0000000
 Leave Link  101 at Wed Jul  5 10:33:35 2023, MaxMem=  2147483648 cpu:               1.4 elap:               0.2
 (Enter /home/pcmt/gaussian/g16.C.01/g16/l202.exe)
                          Input orientation:                          
 ---------------------------------------------------------------------
 Center     Atomic      Atomic             Coordinates (Angstroms)
 Number     Number       Type             X           Y           Z
 ---------------------------------------------------------------------
      1         91           0       -0.118443    0.064568   -0.384163
      2          7           0        0.858491    1.675320   -1.864484
      3          1           0       -1.410823    1.861787    1.474394
      4          8           0       -1.111315    1.648384    0.581149
      5          1           0        2.347762   -0.258690    1.097773
      6          8           0        0.777050   -1.429257   -1.540371
      7          1           0        1.136027   -2.325215   -1.517980
      8          8           0       -1.068451   -1.367630    0.815488
      9          1           0       -1.021114   -2.167254    1.351161
     10          8           0        1.545197    0.224366    0.870257
     11          6           0        1.537961    2.447132   -2.445016
     12         16           0        2.458717    3.499909   -3.240526
 ---------------------------------------------------------------------
                    Distance matrix (angstroms):
                    1          2          3          4          5
     1  Pa   0.000000
     2  N    2.395887   0.000000
     3  H    2.890411   4.041369   0.000000
     4  O    2.103829   3.140380   0.965987   0.000000
     5  H    2.895307   3.838396   4.331885   3.983598   0.000000
     6  O    2.090512   3.122512   4.970570   4.187917   3.285904
     7  H    2.927507   4.025093   5.742102   5.024578   3.546969
     8  O    2.095917   4.489421   3.313685   3.025408   3.602769
     9  H    2.967692   5.351511   4.049720   3.893604   3.880225
    10  O    2.089690   3.171062   3.432810   3.027948   0.963960
    11  C    3.559130   1.180843   4.939608   4.100529   4.530851
    12  S    5.157726   2.789864   6.315636   5.547835   5.741099
                    6          7          8          9         10
     6  O    0.000000
     7  H    0.965457   0.000000
     8  O    2.993284   3.349891   0.000000
     9  H    3.484106   3.593074   0.963631   0.000000
    10  O    3.022524   3.517309   3.060818   3.540773   0.000000
    11  C    4.052625   4.878140   5.654793   6.500184   3.991463
    12  S    5.478614   6.216812   7.251559   8.081433   5.335001
                   11         12
    11  C    0.000000
    12  S    1.609026   0.000000
 Stoichiometry    CH4NO4PaS
 Framework group  C1[X(CH4NO4PaS)]
 Deg. of freedom    30
 Full point group                 C1      NOp   1
 Largest Abelian subgroup         C1      NOp   1
 Largest concise Abelian subgroup C1      NOp   1
                         Standard orientation:                         
 ---------------------------------------------------------------------
 Center     Atomic      Atomic             Coordinates (Angstroms)
 Number     Number       Type             X           Y           Z
 ---------------------------------------------------------------------
      1         91           0       -0.656725    0.013447   -0.131597
      2          7           0        1.732403    0.040393   -0.309403
      3          1           0       -1.131213    2.843520    0.214847
      4          8           0       -0.619062    2.116709   -0.162748
      5          1           0       -0.567469   -0.673996    2.679498
      6          8           0       -0.570020   -2.068811   -0.295675
      7          1           0       -1.013820   -2.891134   -0.052911
      8          8           0       -2.752133   -0.028165   -0.111576
      9          1           0       -3.573382   -0.386846    0.242660
     10          8           0       -0.490307   -0.047977    1.950550
     11          6           0        2.902350    0.015788   -0.151256
     12         16           0        4.497445   -0.016674    0.057514
 ---------------------------------------------------------------------
 Rotational constants (GHZ):           2.1683777           0.4532274           0.4222525
 Leave Link  202 at Wed Jul  5 10:33:35 2023, MaxMem=  2147483648 cpu:               0.2 elap:               0.1
 (Enter /home/pcmt/gaussian/g16.C.01/g16/l301.exe)
 General basis read from cards:  (5D, 7F)
 Centers:       1
 S 3 1.00
     Exponent=  1.2047376000D+04 Coefficients=  3.4500000000D-04
     Exponent=  1.8116841000D+03 Coefficients=  2.7420000000D-03
     Exponent=  3.4770104000D+02 Coefficients=  1.0053000000D-02
 S 1 1.00
     Exponent=  9.8678010000D+01 Coefficients=  1.0000000000D+00
 S 3 1.00
     Exponent=  5.7507376000D+01 Coefficients=  5.1528000000D-02
     Exponent=  3.3502601000D+01 Coefficients= -2.3692400000D-01
     Exponent=  1.9554451000D+01 Coefficients=  7.1904800000D-01
 S 1 1.00
     Exponent=  9.7164210000D+00 Coefficients=  1.0000000000D+00
 S 1 1.00
     Exponent=  2.6920960000D+00 Coefficients=  1.0000000000D+00
 S 1 1.00
     Exponent=  1.4538470000D+00 Coefficients=  1.0000000000D+00
 S 1 1.00
     Exponent=  5.7435200000D-01 Coefficients=  1.0000000000D+00
 S 1 1.00
     Exponent=  2.6346800000D-01 Coefficients=  1.0000000000D+00
 S 1 1.00
     Exponent=  5.6557000000D-02 Coefficients=  1.0000000000D+00
 S 1 1.00
     Exponent=  2.3169000000D-02 Coefficients=  1.0000000000D+00
 P 5 1.00
     Exponent=  2.9033676000D+03 Coefficients=  3.5000000000D-05
     Exponent=  6.4486356000D+02 Coefficients=  2.0500000000D-04
     Exponent=  2.2025896000D+02 Coefficients=  1.2510000000D-03
     Exponent=  8.0276401000D+01 Coefficients=  2.4570000000D-03
     Exponent=  2.4080211000D+01 Coefficients=  1.1190000000D-02
 P 1 1.00
     Exponent=  1.4077580000D+01 Coefficients=  1.0000000000D+00
 P 1 1.00
     Exponent=  8.2658460000D+00 Coefficients=  1.0000000000D+00
 P 1 1.00
     Exponent=  3.5948000000D+00 Coefficients=  1.0000000000D+00
 P 1 1.00
     Exponent=  1.7531110000D+00 Coefficients=  1.0000000000D+00
 P 1 1.00
     Exponent=  6.5776700000D-01 Coefficients=  1.0000000000D+00
 P 1 1.00
     Exponent=  2.8463900000D-01 Coefficients=  1.0000000000D+00
 P 1 1.00
     Exponent=  1.0054300000D-01 Coefficients=  1.0000000000D+00
 P 1 1.00
     Exponent=  3.0190000000D-02 Coefficients=  1.0000000000D+00
 D 6 1.00
     Exponent=  4.4814991000D+02 Coefficients=  2.6000000000D-05
     Exponent=  1.5446145000D+02 Coefficients=  2.2800000000D-04
     Exponent=  6.0925377000D+01 Coefficients=  9.0400000000D-04
     Exponent=  1.7032091000D+01 Coefficients=  2.5647000000D-02
     Exponent=  1.0018877000D+01 Coefficients= -1.0575100000D-01
     Exponent=  3.4091930000D+00 Coefficients=  4.4743200000D-01
 D 1 1.00
     Exponent=  1.6702130000D+00 Coefficients=  1.0000000000D+00
 D 1 1.00
     Exponent=  7.4109500000D-01 Coefficients=  1.0000000000D+00
 D 1 1.00
     Exponent=  2.6139300000D-01 Coefficients=  1.0000000000D+00
 D 1 1.00
     Exponent=  8.2811000000D-02 Coefficients=  1.0000000000D+00
 F 5 1.00
     Exponent=  8.7991327000D+01 Coefficients=  2.2600000000D-04
     Exponent=  2.8340195000D+01 Coefficients=  2.3230000000D-03
     Exponent=  1.2440994000D+01 Coefficients=  4.5850000000D-03
     Exponent=  3.9572960000D+00 Coefficients=  1.5696100000D-01
     Exponent=  1.8759440000D+00 Coefficients=  3.4497700000D-01
 F 1 1.00
     Exponent=  8.2758900000D-01 Coefficients=  1.0000000000D+00
 F 1 1.00
     Exponent=  3.3274800000D-01 Coefficients=  1.0000000000D+00
 F 1 1.00
     Exponent=  1.1468500000D-01 Coefficients=  1.0000000000D+00
 G 1 1.00
     Exponent=  3.5000000000D-01 Coefficients=  1.0000000000D+00
 ****
 Centers:       4      6      8     10
 Def2TZVP
 ****
 Centers:       3      5      7      9
 Def2TZVP
 ****
 Centers:      12
 Def2TZVP
 ****
 Centers:      11
 Def2TZVP
 ****
 Centers:       2
 Def2TZVP
 ****
 ======================================================================================================
                                       Pseudopotential Parameters
 ======================================================================================================
  Center     Atomic      Valence      Angular      Power
  Number     Number     Electrons     Momentum     of R      Exponent        Coefficient   SO-Coeffient
 ======================================================================================================
    1         91           31
                                      H and up 
                                                     2        1.0000000        0.00000000    0.00000000
                                      S - H
                                                     2       15.2691737      475.47573283    0.00000000
                                      P - H
                                                     2        9.9577370      207.66485962    0.00000000
                                      D - H
                                                     2        8.9431413      156.67411988    0.00000000
                                      F - H
                                                     2        7.0104666       67.98223685    0.00000000
                                      G - H
                                                     2       12.2010560      -57.63059989    0.00000000
    2          7
                                   No pseudopotential on this center.
    3          1
                                   No pseudopotential on this center.
    4          8
                                   No pseudopotential on this center.
    5          1
                                   No pseudopotential on this center.
    6          8
                                   No pseudopotential on this center.
    7          1
                                   No pseudopotential on this center.
    8          8
                                   No pseudopotential on this center.
    9          1
                                   No pseudopotential on this center.
   10          8
                                   No pseudopotential on this center.
   11          6
                                   No pseudopotential on this center.
   12         16
                                   No pseudopotential on this center.
 ======================================================================================================
 Ernie: Thresh=  0.10000D-02 Tol=  0.10000D-05 Strict=F.
 AO basis set in the form of general basis input (Overlap normalization):
      1 0
 S   3 1.00       0.000000000000
      0.1204737600D+05  0.2857094961D-01
      0.1811684100D+04  0.2270769386D+00
      0.3477010400D+03  0.8325326273D+00
 S   3 1.00       0.000000000000
      0.5750737600D+02  0.9569327984D-01
      0.3350260100D+02 -0.4399944619D+00
      0.1955445100D+02  0.1335352847D+01
 S   1 1.00       0.000000000000
      0.9867801000D+02  0.1000000000D+01
 S   1 1.00       0.000000000000
      0.9716421000D+01  0.1000000000D+01
 S   1 1.00       0.000000000000
      0.2692096000D+01  0.1000000000D+01
 S   1 1.00       0.000000000000
      0.1453847000D+01  0.1000000000D+01
 S   1 1.00       0.000000000000
      0.5743520000D+00  0.1000000000D+01
 S   1 1.00       0.000000000000
      0.2634680000D+00  0.1000000000D+01
 S   1 1.00       0.000000000000
      0.5655700000D-01  0.1000000000D+01
 S   1 1.00       0.000000000000
      0.2316900000D-01  0.1000000000D+01
 P   5 1.00       0.000000000000
      0.2903367600D+04  0.2594222647D-02
      0.6448635600D+03  0.1519473264D-01
      0.2202589600D+03  0.9272492945D-01
      0.8027640100D+02  0.1821144298D+00
      0.2408021100D+02  0.8294100404D+00
 P   1 1.00       0.000000000000
      0.1407758000D+02  0.1000000000D+01
 P   1 1.00       0.000000000000
      0.8265846000D+01  0.1000000000D+01
 P   1 1.00       0.000000000000
      0.3594800000D+01  0.1000000000D+01
 P   1 1.00       0.000000000000
      0.1753111000D+01  0.1000000000D+01
 P   1 1.00       0.000000000000
      0.6577670000D+00  0.1000000000D+01
 P   1 1.00       0.000000000000
      0.2846390000D+00  0.1000000000D+01
 P   1 1.00       0.000000000000
      0.1005430000D+00  0.1000000000D+01
 P   1 1.00       0.000000000000
      0.3019000000D-01  0.1000000000D+01
 D   6 1.00       0.000000000000
      0.4481499100D+03  0.6556927566D-04
      0.1544614500D+03  0.5749921096D-03
      0.6092537700D+02  0.2279793277D-02
      0.1703209100D+02  0.6467904664D-01
      0.1001887700D+02 -0.2666929411D+00
      0.3409193000D+01  0.1128376621D+01
 D   1 1.00       0.000000000000
      0.1670213000D+01  0.1000000000D+01
 D   1 1.00       0.000000000000
      0.7410950000D+00  0.1000000000D+01
 D   1 1.00       0.000000000000
      0.2613930000D+00  0.1000000000D+01
 D   1 1.00       0.000000000000
      0.8281100000D-01  0.1000000000D+01
 F   5 1.00       0.000000000000
      0.8799132700D+02  0.4766318191D-03
      0.2834019500D+02  0.4899184583D-02
      0.1244099400D+02  0.9669720755D-02
      0.3957296000D+01  0.3310292343D+00
      0.1875944000D+01  0.7275531640D+00
 F   1 1.00       0.000000000000
      0.8275890000D+00  0.1000000000D+01
 F   1 1.00       0.000000000000
      0.3327480000D+00  0.1000000000D+01
 F   1 1.00       0.000000000000
      0.1146850000D+00  0.1000000000D+01
 G   1 1.00       0.000000000000
      0.3500000000D+00  0.1000000000D+01
 ****
      2 0
 S   6 1.00       0.000000000000
      0.1973080065D+05  0.5862640263D-03
      0.2957895874D+04  0.4542882059D-02
      0.6732213360D+03  0.2355841345D-01
      0.1906824949D+03  0.9470919329D-01
      0.6229544190D+02  0.2971978491D+00
      0.2265416118D+02  0.6691624690D+00
 S   2 1.00       0.000000000000
      0.8979147743D+01  0.6459668363D+00
      0.3686300237D+01  0.3870057439D+00
 S   1 1.00       0.000000000000
      0.8466007680D+00  0.1000000000D+01
 S   1 1.00       0.000000000000
      0.3364713377D+00  0.1000000000D+01
 S   1 1.00       0.000000000000
      0.1364765367D+00  0.1000000000D+01
 P   4 1.00       0.000000000000
      0.4920038051D+02  0.1144882510D-01
      0.1134679054D+02  0.7842233797D-01
      0.3427397241D+01  0.3081809474D+00
      0.1178552513D+01  0.7202719637D+00
 P   1 1.00       0.000000000000
      0.4164220497D+00  0.1000000000D+01
 P   1 1.00       0.000000000000
      0.1426082601D+00  0.1000000000D+01
 D   1 1.00       0.000000000000
      0.1654000000D+01  0.1000000000D+01
 D   1 1.00       0.000000000000
      0.4690000000D+00  0.1000000000D+01
 F   1 1.00       0.000000000000
      0.1093000000D+01  0.1000000000D+01
 ****
      3 0
 S   3 1.00       0.000000000000
      0.3406134100D+02  0.2543930721D-01
      0.5123574600D+01  0.1900859489D+00
      0.1164662600D+01  0.8524411301D+00
 S   1 1.00       0.000000000000
      0.3272304100D+00  0.1000000000D+01
 S   1 1.00       0.000000000000
      0.1030724100D+00  0.1000000000D+01
 P   1 1.00       0.000000000000
      0.8000000000D+00  0.1000000000D+01
 ****
      4 0
 S   6 1.00       0.000000000000
      0.2703238263D+05  0.5722733521D-03
      0.4052387139D+04  0.4435323349D-02
      0.9223272271D+03  0.2302010771D-01
      0.2612407099D+03  0.9282249067D-01
      0.8535464135D+02  0.2937850001D+00
      0.3103503524D+02  0.6740160450D+00
 S   2 1.00       0.000000000000
      0.1226086073D+02  0.6383993703D+00
      0.4998707601D+01  0.3953458713D+00
 S   1 1.00       0.000000000000
      0.1170310816D+01  0.1000000000D+01
 S   1 1.00       0.000000000000
      0.4647474099D+00  0.1000000000D+01
 S   1 1.00       0.000000000000
      0.1850453636D+00  0.1000000000D+01
 P   4 1.00       0.000000000000
      0.6327495480D+02  0.1201833222D-01
      0.1462704938D+02  0.8300542179D-01
      0.4450122346D+01  0.3199174393D+00
      0.1527579965D+01  0.7071554292D+00
 P   1 1.00       0.000000000000
      0.5293511794D+00  0.1000000000D+01
 P   1 1.00       0.000000000000
      0.1747842127D+00  0.1000000000D+01
 D   1 1.00       0.000000000000
      0.2314000000D+01  0.1000000000D+01
 D   1 1.00       0.000000000000
      0.6450000000D+00  0.1000000000D+01
 F   1 1.00       0.000000000000
      0.1428000000D+01  0.1000000000D+01
 ****
      5 0
 S   3 1.00       0.000000000000
      0.3406134100D+02  0.2543930721D-01
      0.5123574600D+01  0.1900859489D+00
      0.1164662600D+01  0.8524411301D+00
 S   1 1.00       0.000000000000
      0.3272304100D+00  0.1000000000D+01
 S   1 1.00       0.000000000000
      0.1030724100D+00  0.1000000000D+01
 P   1 1.00       0.000000000000
      0.8000000000D+00  0.1000000000D+01
 ****
      6 0
 S   6 1.00       0.000000000000
      0.2703238263D+05  0.5722733521D-03
      0.4052387139D+04  0.4435323349D-02
      0.9223272271D+03  0.2302010771D-01
      0.2612407099D+03  0.9282249067D-01
      0.8535464135D+02  0.2937850001D+00
      0.3103503524D+02  0.6740160450D+00
 S   2 1.00       0.000000000000
      0.1226086073D+02  0.6383993703D+00
      0.4998707601D+01  0.3953458713D+00
 S   1 1.00       0.000000000000
      0.1170310816D+01  0.1000000000D+01
 S   1 1.00       0.000000000000
      0.4647474099D+00  0.1000000000D+01
 S   1 1.00       0.000000000000
      0.1850453636D+00  0.1000000000D+01
 P   4 1.00       0.000000000000
      0.6327495480D+02  0.1201833222D-01
      0.1462704938D+02  0.8300542179D-01
      0.4450122346D+01  0.3199174393D+00
      0.1527579965D+01  0.7071554292D+00
 P   1 1.00       0.000000000000
      0.5293511794D+00  0.1000000000D+01
 P   1 1.00       0.000000000000
      0.1747842127D+00  0.1000000000D+01
 D   1 1.00       0.000000000000
      0.2314000000D+01  0.1000000000D+01
 D   1 1.00       0.000000000000
      0.6450000000D+00  0.1000000000D+01
 F   1 1.00       0.000000000000
      0.1428000000D+01  0.1000000000D+01
 ****
      7 0
 S   3 1.00       0.000000000000
      0.3406134100D+02  0.2543930721D-01
      0.5123574600D+01  0.1900859489D+00
      0.1164662600D+01  0.8524411301D+00
 S   1 1.00       0.000000000000
      0.3272304100D+00  0.1000000000D+01
 S   1 1.00       0.000000000000
      0.1030724100D+00  0.1000000000D+01
 P   1 1.00       0.000000000000
      0.8000000000D+00  0.1000000000D+01
 ****
      8 0
 S   6 1.00       0.000000000000
      0.2703238263D+05  0.5722733521D-03
      0.4052387139D+04  0.4435323349D-02
      0.9223272271D+03  0.2302010771D-01
      0.2612407099D+03  0.9282249067D-01
      0.8535464135D+02  0.2937850001D+00
      0.3103503524D+02  0.6740160450D+00
 S   2 1.00       0.000000000000
      0.1226086073D+02  0.6383993703D+00
      0.4998707601D+01  0.3953458713D+00
 S   1 1.00       0.000000000000
      0.1170310816D+01  0.1000000000D+01
 S   1 1.00       0.000000000000
      0.4647474099D+00  0.1000000000D+01
 S   1 1.00       0.000000000000
      0.1850453636D+00  0.1000000000D+01
 P   4 1.00       0.000000000000
      0.6327495480D+02  0.1201833222D-01
      0.1462704938D+02  0.8300542179D-01
      0.4450122346D+01  0.3199174393D+00
      0.1527579965D+01  0.7071554292D+00
 P   1 1.00       0.000000000000
      0.5293511794D+00  0.1000000000D+01
 P   1 1.00       0.000000000000
      0.1747842127D+00  0.1000000000D+01
 D   1 1.00       0.000000000000
      0.2314000000D+01  0.1000000000D+01
 D   1 1.00       0.000000000000
      0.6450000000D+00  0.1000000000D+01
 F   1 1.00       0.000000000000
      0.1428000000D+01  0.1000000000D+01
 ****
      9 0
 S   3 1.00       0.000000000000
      0.3406134100D+02  0.2543930721D-01
      0.5123574600D+01  0.1900859489D+00
      0.1164662600D+01  0.8524411301D+00
 S   1 1.00       0.000000000000
      0.3272304100D+00  0.1000000000D+01
 S   1 1.00       0.000000000000
      0.1030724100D+00  0.1000000000D+01
 P   1 1.00       0.000000000000
      0.8000000000D+00  0.1000000000D+01
 ****
     10 0
 S   6 1.00       0.000000000000
      0.2703238263D+05  0.5722733521D-03
      0.4052387139D+04  0.4435323349D-02
      0.9223272271D+03  0.2302010771D-01
      0.2612407099D+03  0.9282249067D-01
      0.8535464135D+02  0.2937850001D+00
      0.3103503524D+02  0.6740160450D+00
 S   2 1.00       0.000000000000
      0.1226086073D+02  0.6383993703D+00
      0.4998707601D+01  0.3953458713D+00
 S   1 1.00       0.000000000000
      0.1170310816D+01  0.1000000000D+01
 S   1 1.00       0.000000000000
      0.4647474099D+00  0.1000000000D+01
 S   1 1.00       0.000000000000
      0.1850453636D+00  0.1000000000D+01
 P   4 1.00       0.000000000000
      0.6327495480D+02  0.1201833222D-01
      0.1462704938D+02  0.8300542179D-01
      0.4450122346D+01  0.3199174393D+00
      0.1527579965D+01  0.7071554292D+00
 P   1 1.00       0.000000000000
      0.5293511794D+00  0.1000000000D+01
 P   1 1.00       0.000000000000
      0.1747842127D+00  0.1000000000D+01
 D   1 1.00       0.000000000000
      0.2314000000D+01  0.1000000000D+01
 D   1 1.00       0.000000000000
      0.6450000000D+00  0.1000000000D+01
 F   1 1.00       0.000000000000
      0.1428000000D+01  0.1000000000D+01
 ****
     11 0
 S   6 1.00       0.000000000000
      0.1357534968D+05  0.6064550360D-03
      0.2035233368D+04  0.4697908888D-02
      0.4632256236D+03  0.2433247765D-01
      0.1312001960D+03  0.9739996831D-01
      0.4285301589D+02  0.3019558425D+00
      0.1558418577D+02  0.6623360914D+00
 S   2 1.00       0.000000000000
      0.6206713851D+01  0.6559530854D+00
      0.2576489653D+01  0.3758563329D+00
 S   1 1.00       0.000000000000
      0.5769633942D+00  0.1000000000D+01
 S   1 1.00       0.000000000000
      0.2297283136D+00  0.1000000000D+01
 S   1 1.00       0.000000000000
      0.9516444003D-01  0.1000000000D+01
 P   4 1.00       0.000000000000
      0.3469723224D+02  0.1132722000D-01
      0.7958262283D+01  0.7616965920D-01
      0.2378082688D+01  0.3019225220D+00
      0.8143320818D+00  0.7278502735D+00
 P   1 1.00       0.000000000000
      0.2888754725D+00  0.1000000000D+01
 P   1 1.00       0.000000000000
      0.1005682367D+00  0.1000000000D+01
 D   1 1.00       0.000000000000
      0.1097000000D+01  0.1000000000D+01
 D   1 1.00       0.000000000000
      0.3180000000D+00  0.1000000000D+01
 F   1 1.00       0.000000000000
      0.7610000000D+00  0.1000000000D+01
 ****
     12 0
 S   7 1.00       0.000000000000
      0.6070092810D+05  0.5238007490D-03
      0.9102610685D+04  0.4050632678D-02
      0.2071416601D+04  0.2082700417D-01
      0.5860247682D+03  0.8149685034D-01
      0.1905539502D+03  0.2374911384D+00
      0.6763038426D+02  0.4472617151D+00
      0.2512730691D+02  0.3489191844D+00
 S   3 1.00       0.000000000000
      0.1125746301D+03  0.1004556989D+00
      0.3479555422D+02  0.4339117295D+00
      0.6511555622D+01 -0.1208433059D+01
 S   2 1.00       0.000000000000
      0.3239903226D+01  0.6749812942D+00
      0.1547716088D+01  0.3470879576D+00
 S   1 1.00       0.000000000000
      0.4054103011D+00  0.1000000000D+01
 S   1 1.00       0.000000000000
      0.1455065106D+00  0.1000000000D+01
 P   5 1.00       0.000000000000
      0.5643671603D+03  0.3488692363D-02
      0.1334262438D+03  0.2768512678D-01
      0.4246827119D+02  0.1265940018D+00
      0.1561652758D+02  0.3616592567D+00
      0.6109398847D+01  0.6122203444D+00
 P   1 1.00       0.000000000000
      0.2440416020D+01  0.1000000000D+01
 P   1 1.00       0.000000000000
      0.8388220130D+00  0.1000000000D+01
 P   1 1.00       0.000000000000
      0.3128874690D+00  0.1000000000D+01
 P   1 1.00       0.000000000000
      0.1077010900D+00  0.1000000000D+01
 D   2 1.00       0.000000000000
      0.3756000000D+01  0.1828519746D+00
      0.8120000000D+00  0.9142598730D+00
 D   1 1.00       0.000000000000
      0.2730000000D+00  0.1000000000D+01
 F   1 1.00       0.000000000000
      0.5570000000D+00  0.1000000000D+01
 ****

 AO basis set (Overlap normalization):
 Atom Pa1      Shell     1 S   3     bf    1 -     1         -1.241030128066          0.025411786035         -0.248683133012
      0.1204737600D+05  0.2857094961D-01
      0.1811684100D+04  0.2270769386D+00
      0.3477010400D+03  0.8325326273D+00
 Atom Pa1      Shell     2 S   3     bf    2 -     2         -1.241030128066          0.025411786035         -0.248683133012
      0.5750737600D+02  0.9569327984D-01
      0.3350260100D+02 -0.4399944619D+00
      0.1955445100D+02  0.1335352847D+01
 Atom Pa1      Shell     3 S   1     bf    3 -     3         -1.241030128066          0.025411786035         -0.248683133012
      0.9867801000D+02  0.1000000000D+01
 Atom Pa1      Shell     4 S   1     bf    4 -     4         -1.241030128066          0.025411786035         -0.248683133012
      0.9716421000D+01  0.1000000000D+01
 Atom Pa1      Shell     5 S   1     bf    5 -     5         -1.241030128066          0.025411786035         -0.248683133012
      0.2692096000D+01  0.1000000000D+01
 Atom Pa1      Shell     6 S   1     bf    6 -     6         -1.241030128066          0.025411786035         -0.248683133012
      0.1453847000D+01  0.1000000000D+01
 Atom Pa1      Shell     7 S   1     bf    7 -     7         -1.241030128066          0.025411786035         -0.248683133012
      0.5743520000D+00  0.1000000000D+01
 Atom Pa1      Shell     8 S   1     bf    8 -     8         -1.241030128066          0.025411786035         -0.248683133012
      0.2634680000D+00  0.1000000000D+01
 Atom Pa1      Shell     9 S   1     bf    9 -     9         -1.241030128066          0.025411786035         -0.248683133012
      0.5655700000D-01  0.1000000000D+01
 Atom Pa1      Shell    10 S   1     bf   10 -    10         -1.241030128066          0.025411786035         -0.248683133012
      0.2316900000D-01  0.1000000000D+01
 Atom Pa1      Shell    11 P   5     bf   11 -    13         -1.241030128066          0.025411786035         -0.248683133012
      0.2903367600D+04  0.2594222647D-02
      0.6448635600D+03  0.1519473264D-01
      0.2202589600D+03  0.9272492945D-01
      0.8027640100D+02  0.1821144298D+00
      0.2408021100D+02  0.8294100404D+00
 Atom Pa1      Shell    12 P   1     bf   14 -    16         -1.241030128066          0.025411786035         -0.248683133012
      0.1407758000D+02  0.1000000000D+01
 Atom Pa1      Shell    13 P   1     bf   17 -    19         -1.241030128066          0.025411786035         -0.248683133012
      0.8265846000D+01  0.1000000000D+01
 Atom Pa1      Shell    14 P   1     bf   20 -    22         -1.241030128066          0.025411786035         -0.248683133012
      0.3594800000D+01  0.1000000000D+01
 Atom Pa1      Shell    15 P   1     bf   23 -    25         -1.241030128066          0.025411786035         -0.248683133012
      0.1753111000D+01  0.1000000000D+01
 Atom Pa1      Shell    16 P   1     bf   26 -    28         -1.241030128066          0.025411786035         -0.248683133012
      0.6577670000D+00  0.1000000000D+01
 Atom Pa1      Shell    17 P   1     bf   29 -    31         -1.241030128066          0.025411786035         -0.248683133012
      0.2846390000D+00  0.1000000000D+01
 Atom Pa1      Shell    18 P   1     bf   32 -    34         -1.241030128066          0.025411786035         -0.248683133012
      0.1005430000D+00  0.1000000000D+01
 Atom Pa1      Shell    19 P   1     bf   35 -    37         -1.241030128066          0.025411786035         -0.248683133012
      0.3019000000D-01  0.1000000000D+01
 Atom Pa1      Shell    20 D   6     bf   38 -    42         -1.241030128066          0.025411786035         -0.248683133012
      0.4481499100D+03  0.6556927566D-04
      0.1544614500D+03  0.5749921096D-03
      0.6092537700D+02  0.2279793277D-02
      0.1703209100D+02  0.6467904664D-01
      0.1001887700D+02 -0.2666929411D+00
      0.3409193000D+01  0.1128376621D+01
 Atom Pa1      Shell    21 D   1     bf   43 -    47         -1.241030128066          0.025411786035         -0.248683133012
      0.1670213000D+01  0.1000000000D+01
 Atom Pa1      Shell    22 D   1     bf   48 -    52         -1.241030128066          0.025411786035         -0.248683133012
      0.7410950000D+00  0.1000000000D+01
 Atom Pa1      Shell    23 D   1     bf   53 -    57         -1.241030128066          0.025411786035         -0.248683133012
      0.2613930000D+00  0.1000000000D+01
 Atom Pa1      Shell    24 D   1     bf   58 -    62         -1.241030128066          0.025411786035         -0.248683133012
      0.8281100000D-01  0.1000000000D+01
 Atom Pa1      Shell    25 F   5     bf   63 -    69         -1.241030128066          0.025411786035         -0.248683133012
      0.8799132700D+02  0.4766318191D-03
      0.2834019500D+02  0.4899184583D-02
      0.1244099400D+02  0.9669720755D-02
      0.3957296000D+01  0.3310292343D+00
      0.1875944000D+01  0.7275531640D+00
 Atom Pa1      Shell    26 F   1     bf   70 -    76         -1.241030128066          0.025411786035         -0.248683133012
      0.8275890000D+00  0.1000000000D+01
 Atom Pa1      Shell    27 F   1     bf   77 -    83         -1.241030128066          0.025411786035         -0.248683133012
      0.3327480000D+00  0.1000000000D+01
 Atom Pa1      Shell    28 F   1     bf   84 -    90         -1.241030128066          0.025411786035         -0.248683133012
      0.1146850000D+00  0.1000000000D+01
 Atom Pa1      Shell    29 G   1     bf   91 -    99         -1.241030128066          0.025411786035         -0.248683133012
      0.3500000000D+00  0.1000000000D+01
 Atom N2       Shell    30 S   6     bf  100 -   100          3.273767194514          0.076331248023         -0.584686223892
      0.1973080065D+05  0.5862640263D-03
      0.2957895874D+04  0.4542882059D-02
      0.6732213360D+03  0.2355841345D-01
      0.1906824949D+03  0.9470919329D-01
      0.6229544190D+02  0.2971978491D+00
      0.2265416118D+02  0.6691624690D+00
 Atom N2       Shell    31 S   2     bf  101 -   101          3.273767194514          0.076331248023         -0.584686223892
      0.8979147743D+01  0.6459668363D+00
      0.3686300237D+01  0.3870057439D+00
 Atom N2       Shell    32 S   1     bf  102 -   102          3.273767194514          0.076331248023         -0.584686223892
      0.8466007680D+00  0.1000000000D+01
 Atom N2       Shell    33 S   1     bf  103 -   103          3.273767194514          0.076331248023         -0.584686223892
      0.3364713377D+00  0.1000000000D+01
 Atom N2       Shell    34 S   1     bf  104 -   104          3.273767194514          0.076331248023         -0.584686223892
      0.1364765367D+00  0.1000000000D+01
 Atom N2       Shell    35 P   4     bf  105 -   107          3.273767194514          0.076331248023         -0.584686223892
      0.4920038051D+02  0.1144882510D-01
      0.1134679054D+02  0.7842233797D-01
      0.3427397241D+01  0.3081809474D+00
      0.1178552513D+01  0.7202719637D+00
 Atom N2       Shell    36 P   1     bf  108 -   110          3.273767194514          0.076331248023         -0.584686223892
      0.4164220497D+00  0.1000000000D+01
 Atom N2       Shell    37 P   1     bf  111 -   113          3.273767194514          0.076331248023         -0.584686223892
      0.1426082601D+00  0.1000000000D+01
 Atom N2       Shell    38 D   1     bf  114 -   118          3.273767194514          0.076331248023         -0.584686223892
      0.1654000000D+01  0.1000000000D+01
 Atom N2       Shell    39 D   1     bf  119 -   123          3.273767194514          0.076331248023         -0.584686223892
      0.4690000000D+00  0.1000000000D+01
 Atom N2       Shell    40 F   1     bf  124 -   130          3.273767194514          0.076331248023         -0.584686223892
      0.1093000000D+01  0.1000000000D+01
 Atom H3       Shell    41 S   3     bf  131 -   131         -2.137683294652          5.373474464276          0.406002258395
      0.3406134100D+02  0.2543930721D-01
      0.5123574600D+01  0.1900859489D+00
      0.1164662600D+01  0.8524411301D+00
 Atom H3       Shell    42 S   1     bf  132 -   132         -2.137683294652          5.373474464276          0.406002258395
      0.3272304100D+00  0.1000000000D+01
 Atom H3       Shell    43 S   1     bf  133 -   133         -2.137683294652          5.373474464276          0.406002258395
      0.1030724100D+00  0.1000000000D+01
 Atom H3       Shell    44 P   1     bf  134 -   136         -2.137683294652          5.373474464276          0.406002258395
      0.8000000000D+00  0.1000000000D+01
 Atom O4       Shell    45 S   6     bf  137 -   137         -1.169857972636          3.999999615806         -0.307548306509
      0.2703238263D+05  0.5722733521D-03
      0.4052387139D+04  0.4435323349D-02
      0.9223272271D+03  0.2302010771D-01
      0.2612407099D+03  0.9282249067D-01
      0.8535464135D+02  0.2937850001D+00
      0.3103503524D+02  0.6740160450D+00
 Atom O4       Shell    46 S   2     bf  138 -   138         -1.169857972636          3.999999615806         -0.307548306509
      0.1226086073D+02  0.6383993703D+00
      0.4998707601D+01  0.3953458713D+00
 Atom O4       Shell    47 S   1     bf  139 -   139         -1.169857972636          3.999999615806         -0.307548306509
      0.1170310816D+01  0.1000000000D+01
 Atom O4       Shell    48 S   1     bf  140 -   140         -1.169857972636          3.999999615806         -0.307548306509
      0.4647474099D+00  0.1000000000D+01
 Atom O4       Shell    49 S   1     bf  141 -   141         -1.169857972636          3.999999615806         -0.307548306509
      0.1850453636D+00  0.1000000000D+01
 Atom O4       Shell    50 P   4     bf  142 -   144         -1.169857972636          3.999999615806         -0.307548306509
      0.6327495480D+02  0.1201833222D-01
      0.1462704938D+02  0.8300542179D-01
      0.4450122346D+01  0.3199174393D+00
      0.1527579965D+01  0.7071554292D+00
 Atom O4       Shell    51 P   1     bf  145 -   147         -1.169857972636          3.999999615806         -0.307548306509
      0.5293511794D+00  0.1000000000D+01
 Atom O4       Shell    52 P   1     bf  148 -   150         -1.169857972636          3.999999615806         -0.307548306509
      0.1747842127D+00  0.1000000000D+01
 Atom O4       Shell    53 D   1     bf  151 -   155         -1.169857972636          3.999999615806         -0.307548306509
      0.2314000000D+01  0.1000000000D+01
 Atom O4       Shell    54 D   1     bf  156 -   160         -1.169857972636          3.999999615806         -0.307548306509
      0.6450000000D+00  0.1000000000D+01
 Atom O4       Shell    55 F   1     bf  161 -   167         -1.169857972636          3.999999615806         -0.307548306509
      0.1428000000D+01  0.1000000000D+01
 Atom H5       Shell    56 S   3     bf  168 -   168         -1.072360703174         -1.273667566407          5.063516615055
      0.3406134100D+02  0.2543930721D-01
      0.5123574600D+01  0.1900859489D+00
      0.1164662600D+01  0.8524411301D+00
 Atom H5       Shell    57 S   1     bf  169 -   169         -1.072360703174         -1.273667566407          5.063516615055
      0.3272304100D+00  0.1000000000D+01
 Atom H5       Shell    58 S   1     bf  170 -   170         -1.072360703174         -1.273667566407          5.063516615055
      0.1030724100D+00  0.1000000000D+01
 Atom H5       Shell    59 P   1     bf  171 -   173         -1.072360703174         -1.273667566407          5.063516615055
      0.8000000000D+00  0.1000000000D+01
 Atom O6       Shell    60 S   6     bf  174 -   174         -1.077182605465         -3.909485933529         -0.558745018594
      0.2703238263D+05  0.5722733521D-03
      0.4052387139D+04  0.4435323349D-02
      0.9223272271D+03  0.2302010771D-01
      0.2612407099D+03  0.9282249067D-01
      0.8535464135D+02  0.2937850001D+00
      0.3103503524D+02  0.6740160450D+00
 Atom O6       Shell    61 S   2     bf  175 -   175         -1.077182605465         -3.909485933529         -0.558745018594
      0.1226086073D+02  0.6383993703D+00
      0.4998707601D+01  0.3953458713D+00
 Atom O6       Shell    62 S   1     bf  176 -   176         -1.077182605465         -3.909485933529         -0.558745018594
      0.1170310816D+01  0.1000000000D+01
 Atom O6       Shell    63 S   1     bf  177 -   177         -1.077182605465         -3.909485933529         -0.558745018594
      0.4647474099D+00  0.1000000000D+01
 Atom O6       Shell    64 S   1     bf  178 -   178         -1.077182605465         -3.909485933529         -0.558745018594
      0.1850453636D+00  0.1000000000D+01
 Atom O6       Shell    65 P   4     bf  179 -   181         -1.077182605465         -3.909485933529         -0.558745018594
      0.6327495480D+02  0.1201833222D-01
      0.1462704938D+02  0.8300542179D-01
      0.4450122346D+01  0.3199174393D+00
      0.1527579965D+01  0.7071554292D+00
 Atom O6       Shell    66 P   1     bf  182 -   184         -1.077182605465         -3.909485933529         -0.558745018594
      0.5293511794D+00  0.1000000000D+01
 Atom O6       Shell    67 P   1     bf  185 -   187         -1.077182605465         -3.909485933529         -0.558745018594
      0.1747842127D+00  0.1000000000D+01
 Atom O6       Shell    68 D   1     bf  188 -   192         -1.077182605465         -3.909485933529         -0.558745018594
      0.2314000000D+01  0.1000000000D+01
 Atom O6       Shell    69 D   1     bf  193 -   197         -1.077182605465         -3.909485933529         -0.558745018594
      0.6450000000D+00  0.1000000000D+01
 Atom O6       Shell    70 F   1     bf  198 -   204         -1.077182605465         -3.909485933529         -0.558745018594
      0.1428000000D+01  0.1000000000D+01
 Atom H7       Shell    71 S   3     bf  205 -   205         -1.915841770169         -5.463450878224         -0.099988145147
      0.3406134100D+02  0.2543930721D-01
      0.5123574600D+01  0.1900859489D+00
      0.1164662600D+01  0.8524411301D+00
 Atom H7       Shell    72 S   1     bf  206 -   206         -1.915841770169         -5.463450878224         -0.099988145147
      0.3272304100D+00  0.1000000000D+01
 Atom H7       Shell    73 S   1     bf  207 -   207         -1.915841770169         -5.463450878224         -0.099988145147
      0.1030724100D+00  0.1000000000D+01
 Atom H7       Shell    74 P   1     bf  208 -   210         -1.915841770169         -5.463450878224         -0.099988145147
      0.8000000000D+00  0.1000000000D+01
 Atom O8       Shell    75 S   6     bf  211 -   211         -5.200778151349         -0.053223201721         -0.210847304260
      0.2703238263D+05  0.5722733521D-03
      0.4052387139D+04  0.4435323349D-02
      0.9223272271D+03  0.2302010771D-01
      0.2612407099D+03  0.9282249067D-01
      0.8535464135D+02  0.2937850001D+00
      0.3103503524D+02  0.6740160450D+00
 Atom O8       Shell    76 S   2     bf  212 -   212         -5.200778151349         -0.053223201721         -0.210847304260
      0.1226086073D+02  0.6383993703D+00
      0.4998707601D+01  0.3953458713D+00
 Atom O8       Shell    77 S   1     bf  213 -   213         -5.200778151349         -0.053223201721         -0.210847304260
      0.1170310816D+01  0.1000000000D+01
 Atom O8       Shell    78 S   1     bf  214 -   214         -5.200778151349         -0.053223201721         -0.210847304260
      0.4647474099D+00  0.1000000000D+01
 Atom O8       Shell    79 S   1     bf  215 -   215         -5.200778151349         -0.053223201721         -0.210847304260
      0.1850453636D+00  0.1000000000D+01
 Atom O8       Shell    80 P   4     bf  216 -   218         -5.200778151349         -0.053223201721         -0.210847304260
      0.6327495480D+02  0.1201833222D-01
      0.1462704938D+02  0.8300542179D-01
      0.4450122346D+01  0.3199174393D+00
      0.1527579965D+01  0.7071554292D+00
 Atom O8       Shell    81 P   1     bf  219 -   221         -5.200778151349         -0.053223201721         -0.210847304260
      0.5293511794D+00  0.1000000000D+01
 Atom O8       Shell    82 P   1     bf  222 -   224         -5.200778151349         -0.053223201721         -0.210847304260
      0.1747842127D+00  0.1000000000D+01
 Atom O8       Shell    83 D   1     bf  225 -   229         -5.200778151349         -0.053223201721         -0.210847304260
      0.2314000000D+01  0.1000000000D+01
 Atom O8       Shell    84 D   1     bf  230 -   234         -5.200778151349         -0.053223201721         -0.210847304260
      0.6450000000D+00  0.1000000000D+01
 Atom O8       Shell    85 F   1     bf  235 -   241         -5.200778151349         -0.053223201721         -0.210847304260
      0.1428000000D+01  0.1000000000D+01
 Atom H9       Shell    86 S   3     bf  242 -   242         -6.752714211115         -0.731033220322          0.458561004112
      0.3406134100D+02  0.2543930721D-01
      0.5123574600D+01  0.1900859489D+00
      0.1164662600D+01  0.8524411301D+00
 Atom H9       Shell    87 S   1     bf  243 -   243         -6.752714211115         -0.731033220322          0.458561004112
      0.3272304100D+00  0.1000000000D+01
 Atom H9       Shell    88 S   1     bf  244 -   244         -6.752714211115         -0.731033220322          0.458561004112
      0.1030724100D+00  0.1000000000D+01
 Atom H9       Shell    89 P   1     bf  245 -   247         -6.752714211115         -0.731033220322          0.458561004112
      0.8000000000D+00  0.1000000000D+01
 Atom O10      Shell    90 S   6     bf  248 -   248         -0.926546709972         -0.090663805493          3.686004667841
      0.2703238263D+05  0.5722733521D-03
      0.4052387139D+04  0.4435323349D-02
      0.9223272271D+03  0.2302010771D-01
      0.2612407099D+03  0.9282249067D-01
      0.8535464135D+02  0.2937850001D+00
      0.3103503524D+02  0.6740160450D+00
 Atom O10      Shell    91 S   2     bf  249 -   249         -0.926546709972         -0.090663805493          3.686004667841
      0.1226086073D+02  0.6383993703D+00
      0.4998707601D+01  0.3953458713D+00
 Atom O10      Shell    92 S   1     bf  250 -   250         -0.926546709972         -0.090663805493          3.686004667841
      0.1170310816D+01  0.1000000000D+01
 Atom O10      Shell    93 S   1     bf  251 -   251         -0.926546709972         -0.090663805493          3.686004667841
      0.4647474099D+00  0.1000000000D+01
 Atom O10      Shell    94 S   1     bf  252 -   252         -0.926546709972         -0.090663805493          3.686004667841
      0.1850453636D+00  0.1000000000D+01
 Atom O10      Shell    95 P   4     bf  253 -   255         -0.926546709972         -0.090663805493          3.686004667841
      0.6327495480D+02  0.1201833222D-01
      0.1462704938D+02  0.8300542179D-01
      0.4450122346D+01  0.3199174393D+00
      0.1527579965D+01  0.7071554292D+00
 Atom O10      Shell    96 P   1     bf  256 -   258         -0.926546709972         -0.090663805493          3.686004667841
      0.5293511794D+00  0.1000000000D+01
 Atom O10      Shell    97 P   1     bf  259 -   261         -0.926546709972         -0.090663805493          3.686004667841
      0.1747842127D+00  0.1000000000D+01
 Atom O10      Shell    98 D   1     bf  262 -   266         -0.926546709972         -0.090663805493          3.686004667841
      0.2314000000D+01  0.1000000000D+01
 Atom O10      Shell    99 D   1     bf  267 -   271         -0.926546709972         -0.090663805493          3.686004667841
      0.6450000000D+00  0.1000000000D+01
 Atom O10      Shell   100 F   1     bf  272 -   278         -0.926546709972         -0.090663805493          3.686004667841
      0.1428000000D+01  0.1000000000D+01
 Atom C11      Shell   101 S   6     bf  279 -   279          5.484646223651          0.029835632921         -0.285832889704
      0.1357534968D+05  0.6064550360D-03
      0.2035233368D+04  0.4697908888D-02
      0.4632256236D+03  0.2433247765D-01
      0.1312001960D+03  0.9739996831D-01
      0.4285301589D+02  0.3019558425D+00
      0.1558418577D+02  0.6623360914D+00
 Atom C11      Shell   102 S   2     bf  280 -   280          5.484646223651          0.029835632921         -0.285832889704
      0.6206713851D+01  0.6559530854D+00
      0.2576489653D+01  0.3758563329D+00
 Atom C11      Shell   103 S   1     bf  281 -   281          5.484646223651          0.029835632921         -0.285832889704
      0.5769633942D+00  0.1000000000D+01
 Atom C11      Shell   104 S   1     bf  282 -   282          5.484646223651          0.029835632921         -0.285832889704
      0.2297283136D+00  0.1000000000D+01
 Atom C11      Shell   105 S   1     bf  283 -   283          5.484646223651          0.029835632921         -0.285832889704
      0.9516444003D-01  0.1000000000D+01
 Atom C11      Shell   106 P   4     bf  284 -   286          5.484646223651          0.029835632921         -0.285832889704
      0.3469723224D+02  0.1132722000D-01
      0.7958262283D+01  0.7616965920D-01
      0.2378082688D+01  0.3019225220D+00
      0.8143320818D+00  0.7278502735D+00
 Atom C11      Shell   107 P   1     bf  287 -   289          5.484646223651          0.029835632921         -0.285832889704
      0.2888754725D+00  0.1000000000D+01
 Atom C11      Shell   108 P   1     bf  290 -   292          5.484646223651          0.029835632921         -0.285832889704
      0.1005682367D+00  0.1000000000D+01
 Atom C11      Shell   109 D   1     bf  293 -   297          5.484646223651          0.029835632921         -0.285832889704
      0.1097000000D+01  0.1000000000D+01
 Atom C11      Shell   110 D   1     bf  298 -   302          5.484646223651          0.029835632921         -0.285832889704
      0.3180000000D+00  0.1000000000D+01
 Atom C11      Shell   111 F   1     bf  303 -   309          5.484646223651          0.029835632921         -0.285832889704
      0.7610000000D+00  0.1000000000D+01
 Atom S12      Shell   112 S   7     bf  310 -   310          8.498938590314         -0.031508828920          0.108685123081
      0.6070092810D+05  0.5238007490D-03
      0.9102610685D+04  0.4050632678D-02
      0.2071416601D+04  0.2082700417D-01
      0.5860247682D+03  0.8149685034D-01
      0.1905539502D+03  0.2374911384D+00
      0.6763038426D+02  0.4472617151D+00
      0.2512730691D+02  0.3489191844D+00
 Atom S12      Shell   113 S   3     bf  311 -   311          8.498938590314         -0.031508828920          0.108685123081
      0.1125746301D+03  0.1004556989D+00
      0.3479555422D+02  0.4339117295D+00
      0.6511555622D+01 -0.1208433059D+01
 Atom S12      Shell   114 S   2     bf  312 -   312          8.498938590314         -0.031508828920          0.108685123081
      0.3239903226D+01  0.6749812942D+00
      0.1547716088D+01  0.3470879576D+00
 Atom S12      Shell   115 S   1     bf  313 -   313          8.498938590314         -0.031508828920          0.108685123081
      0.4054103011D+00  0.1000000000D+01
 Atom S12      Shell   116 S   1     bf  314 -   314          8.498938590314         -0.031508828920          0.108685123081
      0.1455065106D+00  0.1000000000D+01
 Atom S12      Shell   117 P   5     bf  315 -   317          8.498938590314         -0.031508828920          0.108685123081
      0.5643671603D+03  0.3488692363D-02
      0.1334262438D+03  0.2768512678D-01
      0.4246827119D+02  0.1265940018D+00
      0.1561652758D+02  0.3616592567D+00
      0.6109398847D+01  0.6122203444D+00
 Atom S12      Shell   118 P   1     bf  318 -   320          8.498938590314         -0.031508828920          0.108685123081
      0.2440416020D+01  0.1000000000D+01
 Atom S12      Shell   119 P   1     bf  321 -   323          8.498938590314         -0.031508828920          0.108685123081
      0.8388220130D+00  0.1000000000D+01
 Atom S12      Shell   120 P   1     bf  324 -   326          8.498938590314         -0.031508828920          0.108685123081
      0.3128874690D+00  0.1000000000D+01
 Atom S12      Shell   121 P   1     bf  327 -   329          8.498938590314         -0.031508828920          0.108685123081
      0.1077010900D+00  0.1000000000D+01
 Atom S12      Shell   122 D   2     bf  330 -   334          8.498938590314         -0.031508828920          0.108685123081
      0.3756000000D+01  0.1828519746D+00
      0.8120000000D+00  0.9142598730D+00
 Atom S12      Shell   123 D   1     bf  335 -   339          8.498938590314         -0.031508828920          0.108685123081
      0.2730000000D+00  0.1000000000D+01
 Atom S12      Shell   124 F   1     bf  340 -   346          8.498938590314         -0.031508828920          0.108685123081
      0.5570000000D+00  0.1000000000D+01
 Effective core potential in the form of general ECP input:
      1 0
 Pa1-ECP   5 60
 H component
  1
  2        1.0000000        0.00000000    0.00000000
 S-H projection
  1
  2       15.2691737      475.47573283    0.00000000
 P-H projection
  1
  2        9.9577370      207.66485962    0.00000000
 D-H projection
  1
  2        8.9431413      156.67411988    0.00000000
 F-H projection
  1
  2        7.0104666       67.98223685    0.00000000
 G-H projection
  1
  2       12.2010560      -57.63059989    0.00000000
 
 There are   404 symmetry adapted cartesian basis functions of A   symmetry.
 There are   346 symmetry adapted basis functions of A   symmetry.
   346 basis functions,   615 primitive gaussians,   404 cartesian basis functions
    48 alpha electrons       48 beta electrons
       nuclear repulsion energy       683.2354601551 Hartrees.
 IExCor=  404 DFT=T Ex=B Corr=P86 ExCW=0 ScaHFX=  0.000000
 ScaDFX=  1.000000  1.000000  1.000000  1.000000 ScalE2=  1.000000  1.000000
 IRadAn=      5 IRanWt=     -1 IRanGd=            0 ICorTp=0 IEmpDi=  4
 NAtoms=   12 NActive=   12 NUniq=   12 SFac= 1.00D+00 NAtFMM=   60 NAOKFM=F Big=F
 Integral buffers will be    131072 words long.
 Raffenetti 2 integral format.
 Two-electron integral symmetry is turned on.
 Warning! Using old PCM defaults because the COSMOthermo output has been requested.
 These settings can be overridden by following keywords.
 ------------------------------------------------------------------------------
 Polarizable Continuum Model (PCM)
 =================================
 Model                : C-PCM.
 Atomic radii         : Klamt.
 XCosmo               : -1.000 (infinite dielectric limit)
 Polarization charges : Electronic and nuclear charges.
 Charge compensation  : Type 3 (Electronic density weighted correction).
 Solution method      : On-the-fly selection.
 Cavity type          : VdW (van der Waals Surface) (Alpha=1.000).
 Cavity algorithm     : GePol (No added spheres)
                        Default sphere list used, NSphG=   12.
                        Tesserae with average area of 0.200 Ang**2.
                        Smoothing algorithm: None.
                        Polarization charges: point-like.
                        Self-potential: constant (ISelfS= 1).
                        Self-field    : global E.n sum rule (ISelfD= 3).
 Solvent              : Water, Eps=  78.355300 Eps(inf)=   1.777849
 ------------------------------------------------------------------------------
 Spheres list:
 ISph  on   Nord     Re0    Alpha      Xe            Ye            Ze
    1  Pa      1    2.0000  1.170     -0.656725      0.013447     -0.131597
    2   N      2    1.8300  1.000      1.732403      0.040393     -0.309403
    3   H      3    1.3000  1.000     -1.131213      2.843520      0.214847
    4   O      4    1.7200  1.000     -0.619062      2.116709     -0.162748
    5   H      5    1.3000  1.000     -0.567469     -0.673996      2.679498
    6   O      6    1.7200  1.000     -0.570020     -2.068811     -0.295675
    7   H      7    1.3000  1.000     -1.013820     -2.891134     -0.052911
    8   O      8    1.7200  1.000     -2.752133     -0.028165     -0.111576
    9   H      9    1.3000  1.000     -3.573382     -0.386846      0.242660
   10   O     10    1.7200  1.000     -0.490307     -0.047977      1.950550
   11   C     11    2.0000  1.000      2.902350      0.015788     -0.151256
   12   S     12    2.1600  1.000      4.497445     -0.016674      0.057514
 ------------------------------------------------------------------------------
 GePol: Number of generator spheres                  =      12
 GePol: Total number of spheres                      =      12
 GePol: Number of exposed spheres                    =      12 (100.00%)
 GePol: Number of tesserae                           =    1280
 GePol: Average area of tesserae                     =       0.15 Ang**2
 GePol: Minimum area of tessera                      =   0.10D-02 Ang**2
 GePol: Maximum area of tessera                      =    0.35817 Ang**2
 GePol: Number of small tesserae                     =       7
 GePol: Fraction of small tesserae (<1% of avg)      =       0.55%
 GePol: Total count of vertices                      =    4231
 GePol: Maximum number of vertices in a tessera      =       6
 GePol: Cavity surface area                          =    196.704 Ang**2
 GePol: Cavity volume                                =    168.008 Ang**3
 DisRep: Neglecting contributions from atom    1 of solute.
 Leave Link  301 at Wed Jul  5 10:33:35 2023, MaxMem=  2147483648 cpu:               1.6 elap:               0.3
 (Enter /home/pcmt/gaussian/g16.C.01/g16/l302.exe)
 NPDir=0 NMtPBC=     1 NCelOv=     1 NCel=       1 NClECP=     1 NCelD=      1
         NCelK=      1 NCelE2=     1 NClLst=     1 CellRange=     0.0.
 One-electron integrals computed using PRISM.
 One-electron integral symmetry used in STVInt
   1 Symmetry operations used in ECPInt.
 ECPInt:  NShTT=    7750 NPrTT=   23874 LenC2=    7160 LenP2D=   16287.
 LDataN:  DoStor=T MaxTD1= 9 Len=  602
 NBasis=   346 RedAO= T EigKep=  1.95D-04  NBF=   346
 NBsUse=   346 1.00D-06 EigRej= -1.00D+00 NBFU=   346
 Precomputing XC quadrature grid using
 IXCGrd= 4 IRadAn=           5 IRanWt=          -1 IRanGd=           0 AccXCQ= 0.00D+00.
 Defaulting to unpruned grid for atomic number  91.
 Generated NRdTot=       0 NPtTot=           0 NUsed=           0 NTot=          32
 NSgBfM=   398   398   398   398   398 MxSgAt=    12 MxSgA2=    12.
 Leave Link  302 at Wed Jul  5 10:33:37 2023, MaxMem=  2147483648 cpu:               8.0 elap:               1.2
 (Enter /home/pcmt/gaussian/g16.C.01/g16/l303.exe)
 DipDrv:  MaxL=1.
 Leave Link  303 at Wed Jul  5 10:33:37 2023, MaxMem=  2147483648 cpu:               0.7 elap:               0.1
 (Enter /home/pcmt/gaussian/g16.C.01/g16/l401.exe)
 ExpMin= 2.32D-02 ExpMax= 6.07D+04 ExpMxC= 1.20D+04 IAcc=3 IRadAn=         5 AccDes= 0.00D+00
 Harris functional with IExCor=  404 and IRadAn=       5 diagonalized for initial guess.
 HarFok:  IExCor=  404 AccDes= 0.00D+00 IRadAn=         5 IDoV= 1 UseB2=F ITyADJ=14
 ICtDFT=  3500011 ScaDFX=  1.000000  1.000000  1.000000  1.000000
 Defaulting to unpruned grid for atomic number  91.
 FoFCou: FMM=F IPFlag=           0 FMFlag=      100000 FMFlg1=           0
         NFxFlg=           0 DoJE=T BraDBF=F KetDBF=T FulRan=T
         wScrn=  0.000000 ICntrl=       500 IOpCl=  0 I1Cent=   200000004 NGrid=           0
         NMat0=    1 NMatS0=      1 NMatT0=    0 NMatD0=    1 NMtDS0=    0 NMtDT0=    0
 Petite list used in FoFCou.
 Harris En= -1237.92342467515    
 JPrj=0 DoOrth=F DoCkMO=F.
 Leave Link  401 at Wed Jul  5 10:33:39 2023, MaxMem=  2147483648 cpu:              18.7 elap:               2.5
 (Enter /home/pcmt/gaussian/g16.C.01/g16/l502.exe)
 Keep J ints in memory in canonical form, NReq=1835107390.
 FoFCou: FMM=F IPFlag=           0 FMFlag=           0 FMFlg1=           0
         NFxFlg=           0 DoJE=F BraDBF=F KetDBF=F FulRan=T
         wScrn=  0.000000 ICntrl=       600 IOpCl=  0 I1Cent=           0 NGrid=           0
         NMat0=    1 NMatS0=  60031 NMatT0=    0 NMatD0=    1 NMtDS0=    0 NMtDT0=    0
 Symmetry not used in FoFCou.
 Two-electron integral symmetry not used.
 Closed shell SCF:
 Using DIIS extrapolation, IDIIS=  1040.
 NGot=  2147483648 LenX=   345259756 LenY=   345096099
 Requested convergence on RMS density matrix=1.00D-08 within 100 cycles.
 Requested convergence on MAX density matrix=1.00D-06.
 Requested convergence on             energy=1.00D-06.
 No special actions if energy rises.

 Cycle   1  Pass 1  IDiag  1:
 Defaulting to unpruned grid for atomic number  91.
 Defaulting to unpruned grid for atomic number  91.
 Defaulting to unpruned grid for atomic number  91.
 Defaulting to unpruned grid for atomic number  91.
 Defaulting to unpruned grid for atomic number  91.
 Defaulting to unpruned grid for atomic number  91.
 Defaulting to unpruned grid for atomic number  91.
 Defaulting to unpruned grid for atomic number  91.
 Inv3:  Mode=1 IEnd=     4915200.
 Iteration    1 A*A^-1 deviation from unit magnitude is 4.44D-15 for   1276.
 Iteration    1 A*A^-1 deviation from orthogonality  is 3.30D-15 for    965    768.
 Iteration    1 A^-1*A deviation from unit magnitude is 4.44D-15 for   1276.
 Iteration    1 A^-1*A deviation from orthogonality  is 3.31D-15 for    587     65.
 E= -1235.48156902131    
 DIIS: error= 4.21D-02 at cycle   1 NSaved=   1.
 NSaved= 1 IEnMin= 1 EnMin= -1235.48156902131     IErMin= 1 ErrMin= 4.21D-02
 ErrMax= 4.21D-02  0.00D+00 EMaxC= 1.00D-01 BMatC= 1.50D+00 BMatP= 1.50D+00
 IDIUse=3 WtCom= 5.79D-01 WtEn= 4.21D-01
 Coeff-Com:  0.100D+01
 Coeff-En:   0.100D+01
 Coeff:      0.100D+01
 Gap=     0.166 Goal=   None    Shift=    0.000
 GapD=    0.166 DampG=1.000 DampE=0.250 DampFc=0.2500 IDamp=-1.
 Damping current iteration by 2.50D-01
 RMSDP=1.18D-02 MaxDP=1.40D+00              OVMax= 9.97D-01

 Cycle   2  Pass 1  IDiag  1:
 E= -1233.26471025819     Delta-E=        2.216858763116 Rises=F Damp=T
 DIIS: error= 5.27D-02 at cycle   2 NSaved=   2.
 NSaved= 2 IEnMin= 1 EnMin= -1235.48156902131     IErMin= 1 ErrMin= 4.21D-02
 ErrMax= 5.27D-02  0.00D+00 EMaxC= 1.00D-01 BMatC= 1.40D+00 BMatP= 1.50D+00
 IDIUse=3 WtCom= 4.73D-01 WtEn= 5.27D-01
 Coeff-Com:  0.490D+00 0.510D+00
 Coeff-En:   0.741D+00 0.259D+00
 Coeff:      0.622D+00 0.378D+00
 Gap=    -0.061 Goal=   None    Shift=    0.000
 RMSDP=3.95D-03 MaxDP=1.46D-01 DE= 2.22D+00 OVMax= 9.43D-01

 Cycle   3  Pass 1  IDiag  1:
 E= -1235.70868159948     Delta-E=       -2.443971341281 Rises=F Damp=F
 DIIS: error= 3.38D-02 at cycle   3 NSaved=   3.
 NSaved= 3 IEnMin= 3 EnMin= -1235.70868159948     IErMin= 3 ErrMin= 3.38D-02
 ErrMax= 3.38D-02  0.00D+00 EMaxC= 1.00D-01 BMatC= 9.86D-01 BMatP= 1.40D+00
 IDIUse=3 WtCom= 6.62D-01 WtEn= 3.38D-01
 EnCoef did     1 forward-backward iterations
 Coeff-Com:  0.348D+00 0.325D+00 0.327D+00
 Coeff-En:   0.428D+00 0.900D-01 0.482D+00
 Coeff:      0.375D+00 0.246D+00 0.379D+00
 Gap=     0.241 Goal=   None    Shift=    0.000
 RMSDP=3.29D-03 MaxDP=1.42D-01 DE=-2.44D+00 OVMax= 2.67D-01

 Cycle   4  Pass 1  IDiag  1:
 E= -1236.43028670859     Delta-E=       -0.721605109113 Rises=F Damp=F
 DIIS: error= 1.78D-02 at cycle   4 NSaved=   4.
 NSaved= 4 IEnMin= 4 EnMin= -1236.43028670859     IErMin= 4 ErrMin= 1.78D-02
 ErrMax= 1.78D-02  0.00D+00 EMaxC= 1.00D-01 BMatC= 1.07D-01 BMatP= 9.86D-01
 IDIUse=3 WtCom= 8.22D-01 WtEn= 1.78D-01
 Coeff-Com:  0.941D-01 0.161D+00 0.213D+00 0.532D+00
 Coeff-En:   0.000D+00 0.000D+00 0.758D-01 0.924D+00
 Coeff:      0.773D-01 0.133D+00 0.188D+00 0.602D+00
 Gap=     0.123 Goal=   None    Shift=    0.000
 RMSDP=9.95D-04 MaxDP=6.03D-02 DE=-7.22D-01 OVMax= 1.98D-01

 Cycle   5  Pass 1  IDiag  1:
 E= -1236.41510202904     Delta-E=        0.015184679552 Rises=F Damp=F
 DIIS: error= 2.23D-02 at cycle   5 NSaved=   5.
 NSaved= 5 IEnMin= 4 EnMin= -1236.43028670859     IErMin= 4 ErrMin= 1.78D-02
 ErrMax= 2.23D-02  0.00D+00 EMaxC= 1.00D-01 BMatC= 1.25D-01 BMatP= 1.07D-01
 IDIUse=2 WtCom= 0.00D+00 WtEn= 1.00D+00
 Coeff-En:   0.000D+00 0.000D+00 0.000D+00 0.534D+00 0.466D+00
 Coeff:      0.000D+00 0.000D+00 0.000D+00 0.534D+00 0.466D+00
 Gap=    -0.000 Goal=   None    Shift=    0.000
 RMSDP=3.40D-03 MaxDP=2.77D-01 DE= 1.52D-02 OVMax= 9.94D-01

 Cycle   6  Pass 1  IDiag  1:
 E= -1229.75583886377     Delta-E=        6.659263165266 Rises=F Damp=F
 DIIS: error= 2.04D-01 at cycle   6 NSaved=   6.
 NSaved= 6 IEnMin= 4 EnMin= -1236.43028670859     IErMin= 4 ErrMin= 1.78D-02
 ErrMax= 2.04D-01  0.00D+00 EMaxC= 1.00D-01 BMatC= 1.31D+01 BMatP= 1.07D-01
 IDIUse=2 WtCom= 0.00D+00 WtEn= 1.00D+00
 EnCoef did     2 forward-backward iterations
 Coeff-En:   0.000D+00 0.000D+00 0.000D+00 0.518D+00 0.464D+00 0.178D-01
 Coeff:      0.000D+00 0.000D+00 0.000D+00 0.518D+00 0.464D+00 0.178D-01
 Gap=    -0.038 Goal=   None    Shift=    0.000
 RMSDP=2.47D-03 MaxDP=2.76D-01 DE= 6.66D+00 OVMax= 9.99D-01

 Cycle   7  Pass 1  IDiag  1:
 E= -1235.87771346640     Delta-E=       -6.121874602625 Rises=F Damp=F
 DIIS: error= 5.61D-02 at cycle   7 NSaved=   7.
 NSaved= 7 IEnMin= 4 EnMin= -1236.43028670859     IErMin= 4 ErrMin= 1.78D-02
 ErrMax= 5.61D-02  0.00D+00 EMaxC= 1.00D-01 BMatC= 1.05D+00 BMatP= 1.07D-01
 IDIUse=2 WtCom= 0.00D+00 WtEn= 1.00D+00
 EnCoef did     3 forward-backward iterations
 Coeff-En:   0.000D+00 0.000D+00 0.000D+00 0.459D+00 0.417D+00 0.000D+00
 Coeff-En:   0.124D+00
 Coeff:      0.000D+00 0.000D+00 0.000D+00 0.459D+00 0.417D+00 0.000D+00
 Coeff:      0.124D+00
 Gap=     0.075 Goal=   None    Shift=    0.000
 RMSDP=8.88D-04 MaxDP=6.00D-02 DE=-6.12D+00 OVMax= 1.59D-01

 Cycle   8  Pass 1  IDiag  1:
 E= -1236.48835573294     Delta-E=       -0.610642266545 Rises=F Damp=F
 DIIS: error= 1.07D-02 at cycle   8 NSaved=   8.
 NSaved= 8 IEnMin= 8 EnMin= -1236.48835573294     IErMin= 8 ErrMin= 1.07D-02
 ErrMax= 1.07D-02  0.00D+00 EMaxC= 1.00D-01 BMatC= 5.47D-02 BMatP= 1.07D-01
 IDIUse=3 WtCom= 8.93D-01 WtEn= 1.07D-01
 EnCoef did     2 forward-backward iterations
 Coeff-Com:  0.101D-01-0.912D-02-0.250D-01 0.158D+00 0.191D+00 0.477D-02
 Coeff-Com: -0.107D+00 0.777D+00
 Coeff-En:   0.000D+00 0.000D+00 0.000D+00 0.238D+00 0.220D+00 0.000D+00
 Coeff-En:   0.000D+00 0.542D+00
 Coeff:      0.901D-02-0.814D-02-0.223D-01 0.167D+00 0.194D+00 0.426D-02
 Coeff:     -0.952D-01 0.751D+00
 Gap=     0.088 Goal=   None    Shift=    0.000
 RMSDP=3.17D-04 MaxDP=2.75D-02 DE=-6.11D-01 OVMax= 4.46D-02

 Cycle   9  Pass 1  IDiag  1:
 E= -1236.52757761333     Delta-E=       -0.039221880386 Rises=F Damp=F
 DIIS: error= 1.38D-03 at cycle   9 NSaved=   9.
 NSaved= 9 IEnMin= 9 EnMin= -1236.52757761333     IErMin= 9 ErrMin= 1.38D-03
 ErrMax= 1.38D-03  0.00D+00 EMaxC= 1.00D-01 BMatC= 6.59D-04 BMatP= 5.47D-02
 IDIUse=3 WtCom= 9.86D-01 WtEn= 1.38D-02
 Coeff-Com:  0.156D-01-0.804D-02-0.123D-01-0.864D-02 0.213D-01 0.382D-02
 Coeff-Com: -0.713D-01 0.360D+00 0.700D+00
 Coeff-En:   0.000D+00 0.000D+00 0.000D+00 0.000D+00 0.000D+00 0.000D+00
 Coeff-En:   0.000D+00 0.000D+00 0.100D+01
 Coeff:      0.154D-01-0.793D-02-0.121D-01-0.852D-02 0.210D-01 0.377D-02
 Coeff:     -0.703D-01 0.355D+00 0.704D+00
 Gap=     0.086 Goal=   None    Shift=    0.000
 RMSDP=1.54D-04 MaxDP=1.21D-02 DE=-3.92D-02 OVMax= 1.93D-02

 Cycle  10  Pass 1  IDiag  1:
 E= -1236.52827805106     Delta-E=       -0.000700437733 Rises=F Damp=F
 DIIS: error= 1.70D-03 at cycle  10 NSaved=  10.
 NSaved=10 IEnMin=10 EnMin= -1236.52827805106     IErMin= 9 ErrMin= 1.38D-03
 ErrMax= 1.70D-03  0.00D+00 EMaxC= 1.00D-01 BMatC= 1.80D-03 BMatP= 6.59D-04
 IDIUse=3 WtCom= 9.86D-01 WtEn= 1.38D-02
 Coeff-Com:  0.228D-01-0.635D-02 0.301D-03-0.826D-01-0.599D-01 0.242D-02
 Coeff-Com: -0.469D-01 0.107D+00 0.601D+00 0.463D+00
 Coeff-En:   0.000D+00 0.000D+00 0.000D+00 0.000D+00 0.000D+00 0.000D+00
 Coeff-En:   0.000D+00 0.000D+00 0.000D+00 0.100D+01
 Coeff:      0.225D-01-0.626D-02 0.297D-03-0.814D-01-0.591D-01 0.238D-02
 Coeff:     -0.463D-01 0.105D+00 0.592D+00 0.470D+00
 Gap=     0.086 Goal=   None    Shift=    0.000
 RMSDP=1.47D-04 MaxDP=1.08D-02 DE=-7.00D-04 OVMax= 2.23D-02

 Cycle  11  Pass 1  IDiag  1:
 E= -1236.52899169726     Delta-E=       -0.000713646200 Rises=F Damp=F
 DIIS: error= 2.03D-03 at cycle  11 NSaved=  11.
 NSaved=11 IEnMin=11 EnMin= -1236.52899169726     IErMin= 9 ErrMin= 1.38D-03
 ErrMax= 2.03D-03  0.00D+00 EMaxC= 1.00D-01 BMatC= 2.25D-03 BMatP= 6.59D-04
 IDIUse=3 WtCom= 9.86D-01 WtEn= 1.38D-02
 Coeff-Com:  0.275D-01-0.565D-02 0.227D-02-0.727D-01-0.473D-01 0.245D-02
 Coeff-Com: -0.567D-01 0.161D+00 0.368D+00 0.229D+00 0.393D+00
 Coeff-En:   0.000D+00 0.000D+00 0.000D+00 0.000D+00 0.000D+00 0.000D+00
 Coeff-En:   0.000D+00 0.000D+00 0.000D+00 0.000D+00 0.100D+01
 Coeff:      0.272D-01-0.557D-02 0.223D-02-0.717D-01-0.467D-01 0.242D-02
 Coeff:     -0.559D-01 0.159D+00 0.362D+00 0.226D+00 0.401D+00
 Gap=     0.089 Goal=   None    Shift=    0.000
 RMSDP=5.05D-05 MaxDP=7.13D-03 DE=-7.14D-04 OVMax= 5.15D-03

 Cycle  12  Pass 1  IDiag  1:
 E= -1236.52939418064     Delta-E=       -0.000402483382 Rises=F Damp=F
 DIIS: error= 1.29D-03 at cycle  12 NSaved=  12.
 NSaved=12 IEnMin=12 EnMin= -1236.52939418064     IErMin=12 ErrMin= 1.29D-03
 ErrMax= 1.29D-03  0.00D+00 EMaxC= 1.00D-01 BMatC= 9.13D-04 BMatP= 6.59D-04
 IDIUse=3 WtCom= 9.86D-01 WtEn= 1.38D-02
 Coeff-Com:  0.603D-02-0.107D-02 0.274D-02-0.257D-02 0.708D-02 0.489D-03
 Coeff-Com: -0.185D-01 0.333D-01-0.198D-01-0.586D+00-0.447D+00 0.203D+01
 Coeff-En:   0.000D+00 0.000D+00 0.000D+00 0.000D+00 0.000D+00 0.000D+00
 Coeff-En:   0.000D+00 0.000D+00 0.000D+00 0.000D+00 0.000D+00 0.100D+01
 Coeff:      0.594D-02-0.106D-02 0.270D-02-0.253D-02 0.699D-02 0.483D-03
 Coeff:     -0.183D-01 0.329D-01-0.195D-01-0.578D+00-0.441D+00 0.201D+01
 Gap=     0.093 Goal=   None    Shift=    0.000
 RMSDP=8.47D-05 MaxDP=7.96D-03 DE=-4.02D-04 OVMax= 8.62D-03

 Cycle  13  Pass 1  IDiag  1:
 E= -1236.52985096988     Delta-E=       -0.000456789241 Rises=F Damp=F
 DIIS: error= 4.47D-04 at cycle  13 NSaved=  13.
 NSaved=13 IEnMin=13 EnMin= -1236.52985096988     IErMin=13 ErrMin= 4.47D-04
 ErrMax= 4.47D-04  0.00D+00 EMaxC= 1.00D-01 BMatC= 1.11D-04 BMatP= 6.59D-04
 IDIUse=3 WtCom= 9.96D-01 WtEn= 4.47D-03
 Coeff-Com:  0.283D-02-0.235D-03 0.193D-02-0.320D-02 0.177D-02 0.740D-04
 Coeff-Com: -0.566D-02-0.600D-02 0.135D-01-0.394D+00-0.385D+00 0.143D+01
 Coeff-Com:  0.345D+00
 Coeff-En:   0.000D+00 0.000D+00 0.000D+00 0.000D+00 0.000D+00 0.000D+00
 Coeff-En:   0.000D+00 0.000D+00 0.000D+00 0.000D+00 0.000D+00 0.111D+00
 Coeff-En:   0.889D+00
 Coeff:      0.282D-02-0.234D-03 0.192D-02-0.318D-02 0.176D-02 0.736D-04
 Coeff:     -0.564D-02-0.597D-02 0.135D-01-0.392D+00-0.383D+00 0.142D+01
 Coeff:      0.347D+00
 Gap=     0.085 Goal=   None    Shift=    0.000
 RMSDP=2.16D-05 MaxDP=1.20D-03 DE=-4.57D-04 OVMax= 3.03D-03

 Cycle  14  Pass 1  IDiag  1:
 E= -1236.52994247550     Delta-E=       -0.000091505623 Rises=F Damp=F
 DIIS: error= 9.23D-05 at cycle  14 NSaved=  14.
 NSaved=14 IEnMin=14 EnMin= -1236.52994247550     IErMin=14 ErrMin= 9.23D-05
 ErrMax= 9.23D-05  0.00D+00 EMaxC= 1.00D-01 BMatC= 8.68D-06 BMatP= 1.11D-04
 IDIUse=1 WtCom= 1.00D+00 WtEn= 0.00D+00
 Coeff-Com:  0.100D-02-0.425D-04 0.256D-03-0.294D-03 0.269D-02 0.706D-04
 Coeff-Com: -0.251D-02 0.230D-02 0.423D-01-0.190D+00-0.241D+00 0.715D+00
 Coeff-Com:  0.221D+00 0.449D+00
 Coeff:      0.100D-02-0.425D-04 0.256D-03-0.294D-03 0.269D-02 0.706D-04
 Coeff:     -0.251D-02 0.230D-02 0.423D-01-0.190D+00-0.241D+00 0.715D+00
 Coeff:      0.221D+00 0.449D+00
 Gap=     0.088 Goal=   None    Shift=    0.000
 RMSDP=2.24D-05 MaxDP=1.53D-03 DE=-9.15D-05 OVMax= 3.45D-03

 Cycle  15  Pass 1  IDiag  1:
 E= -1236.52995263814     Delta-E=       -0.000010162636 Rises=F Damp=F
 DIIS: error= 6.97D-05 at cycle  15 NSaved=  15.
 NSaved=15 IEnMin=15 EnMin= -1236.52995263814     IErMin=15 ErrMin= 6.97D-05
 ErrMax= 6.97D-05  0.00D+00 EMaxC= 1.00D-01 BMatC= 3.60D-06 BMatP= 8.68D-06
 IDIUse=1 WtCom= 1.00D+00 WtEn= 0.00D+00
 Coeff-Com:  0.104D-03 0.211D-04 0.128D-03-0.618D-03 0.337D-03-0.314D-04
 Coeff-Com:  0.313D-03-0.468D-02 0.763D-02-0.564D-01-0.599D-01 0.218D+00
 Coeff-Com:  0.785D-01 0.289D+00 0.527D+00
 Coeff:      0.104D-03 0.211D-04 0.128D-03-0.618D-03 0.337D-03-0.314D-04
 Coeff:      0.313D-03-0.468D-02 0.763D-02-0.564D-01-0.599D-01 0.218D+00
 Coeff:      0.785D-01 0.289D+00 0.527D+00
 Gap=     0.087 Goal=   None    Shift=    0.000
 RMSDP=1.08D-05 MaxDP=7.28D-04 DE=-1.02D-05 OVMax= 1.63D-03

 Cycle  16  Pass 1  IDiag  1:
 E= -1236.52995562669     Delta-E=       -0.000002988548 Rises=F Damp=F
 DIIS: error= 2.17D-05 at cycle  16 NSaved=  16.
 NSaved=16 IEnMin=16 EnMin= -1236.52995562669     IErMin=16 ErrMin= 2.17D-05
 ErrMax= 2.17D-05  0.00D+00 EMaxC= 1.00D-01 BMatC= 3.21D-07 BMatP= 3.60D-06
 IDIUse=1 WtCom= 1.00D+00 WtEn= 0.00D+00
 Coeff-Com:  0.133D-04 0.996D-06-0.685D-04-0.142D-03 0.401D-03-0.919D-07
 Coeff-Com:  0.707D-05-0.404D-03 0.803D-02-0.222D-01-0.315D-01 0.898D-01
 Coeff-Com:  0.357D-01 0.145D+00 0.318D+00 0.457D+00
 Coeff:      0.133D-04 0.996D-06-0.685D-04-0.142D-03 0.401D-03-0.919D-07
 Coeff:      0.707D-05-0.404D-03 0.803D-02-0.222D-01-0.315D-01 0.898D-01
 Coeff:      0.357D-01 0.145D+00 0.318D+00 0.457D+00
 Gap=     0.087 Goal=   None    Shift=    0.000
 RMSDP=4.00D-06 MaxDP=2.78D-04 DE=-2.99D-06 OVMax= 6.31D-04

 Cycle  17  Pass 1  IDiag  1:
 E= -1236.52995601309     Delta-E=       -0.000000386399 Rises=F Damp=F
 DIIS: error= 7.27D-06 at cycle  17 NSaved=  17.
 NSaved=17 IEnMin=17 EnMin= -1236.52995601309     IErMin=17 ErrMin= 7.27D-06
 ErrMax= 7.27D-06  0.00D+00 EMaxC= 1.00D-01 BMatC= 3.57D-08 BMatP= 3.21D-07
 IDIUse=1 WtCom= 1.00D+00 WtEn= 0.00D+00
 Coeff-Com:  0.617D-05 0.298D-05-0.264D-04-0.151D-03 0.722D-04 0.253D-06
 Coeff-Com:  0.235D-04-0.316D-03 0.307D-02-0.807D-02-0.118D-01 0.335D-01
 Coeff-Com:  0.147D-01 0.605D-01 0.149D+00 0.343D+00 0.416D+00
 Coeff:      0.617D-05 0.298D-05-0.264D-04-0.151D-03 0.722D-04 0.253D-06
 Coeff:      0.235D-04-0.316D-03 0.307D-02-0.807D-02-0.118D-01 0.335D-01
 Coeff:      0.147D-01 0.605D-01 0.149D+00 0.343D+00 0.416D+00
 Gap=     0.087 Goal=   None    Shift=    0.000
 RMSDP=9.01D-07 MaxDP=6.07D-05 DE=-3.86D-07 OVMax= 1.39D-04

 Cycle  18  Pass 1  IDiag  1:
 E= -1236.52995608510     Delta-E=       -0.000000072012 Rises=F Damp=F
 DIIS: error= 2.01D-06 at cycle  18 NSaved=  18.
 NSaved=18 IEnMin=18 EnMin= -1236.52995608510     IErMin=18 ErrMin= 2.01D-06
 ErrMax= 2.01D-06  0.00D+00 EMaxC= 1.00D-01 BMatC= 2.41D-09 BMatP= 3.57D-08
 IDIUse=1 WtCom= 1.00D+00 WtEn= 0.00D+00
 Coeff-Com: -0.515D-07 0.233D-05-0.235D-05-0.613D-04-0.921D-05-0.192D-06
 Coeff-Com:  0.159D-04-0.147D-03 0.368D-03-0.184D-02-0.241D-02 0.701D-02
 Coeff-Com:  0.364D-02 0.125D-01 0.357D-01 0.158D+00 0.295D+00 0.492D+00
 Coeff:     -0.515D-07 0.233D-05-0.235D-05-0.613D-04-0.921D-05-0.192D-06
 Coeff:      0.159D-04-0.147D-03 0.368D-03-0.184D-02-0.241D-02 0.701D-02
 Coeff:      0.364D-02 0.125D-01 0.357D-01 0.158D+00 0.295D+00 0.492D+00
 Gap=     0.087 Goal=   None    Shift=    0.000
 RMSDP=2.99D-07 MaxDP=2.03D-05 DE=-7.20D-08 OVMax= 4.63D-05

 Cycle  19  Pass 1  IDiag  1:
 E= -1236.52995606866     Delta-E=        0.000000016434 Rises=F Damp=F
 DIIS: error= 9.12D-07 at cycle  19 NSaved=  19.
 NSaved=19 IEnMin=18 EnMin= -1236.52995608510     IErMin=19 ErrMin= 9.12D-07
 ErrMax= 9.12D-07  0.00D+00 EMaxC= 1.00D-01 BMatC= 5.50D-10 BMatP= 2.41D-09
 IDIUse=1 WtCom= 1.00D+00 WtEn= 0.00D+00
 Coeff-Com:  0.457D-06 0.436D-06-0.404D-05-0.242D-05 0.548D-05-0.160D-06
 Coeff-Com: -0.135D-05 0.483D-04 0.882D-04-0.190D-03-0.533D-03 0.715D-03
 Coeff-Com:  0.265D-03-0.214D-04 0.428D-02 0.215D-01 0.860D-01 0.136D+00
 Coeff-Com:  0.752D+00
 Coeff:      0.457D-06 0.436D-06-0.404D-05-0.242D-05 0.548D-05-0.160D-06
 Coeff:     -0.135D-05 0.483D-04 0.882D-04-0.190D-03-0.533D-03 0.715D-03
 Coeff:      0.265D-03-0.214D-04 0.428D-02 0.215D-01 0.860D-01 0.136D+00
 Coeff:      0.752D+00
 Gap=     0.087 Goal=   None    Shift=    0.000
 RMSDP=1.71D-07 MaxDP=1.18D-05 DE= 1.64D-08 OVMax= 2.64D-05

 Cycle  20  Pass 1  IDiag  1:
 E= -1236.52995607155     Delta-E=       -0.000000002880 Rises=F Damp=F
 DIIS: error= 3.15D-07 at cycle  20 NSaved=  20.
 NSaved=20 IEnMin=18 EnMin= -1236.52995608510     IErMin=20 ErrMin= 3.15D-07
 ErrMax= 3.15D-07  0.00D+00 EMaxC= 1.00D-01 BMatC= 7.61D-11 BMatP= 5.50D-10
 IDIUse=1 WtCom= 1.00D+00 WtEn= 0.00D+00
 Coeff-Com:  0.196D-06 0.229D-06-0.164D-05-0.196D-07 0.249D-05-0.495D-07
 Coeff-Com: -0.715D-06 0.210D-04-0.644D-05-0.941D-04-0.175D-03 0.302D-03
 Coeff-Com:  0.402D-04-0.353D-03 0.681D-03 0.517D-02 0.303D-01 0.495D-01
 Coeff-Com:  0.425D+00 0.489D+00
 Coeff:      0.196D-06 0.229D-06-0.164D-05-0.196D-07 0.249D-05-0.495D-07
 Coeff:     -0.715D-06 0.210D-04-0.644D-05-0.941D-04-0.175D-03 0.302D-03
 Coeff:      0.402D-04-0.353D-03 0.681D-03 0.517D-02 0.303D-01 0.495D-01
 Coeff:      0.425D+00 0.489D+00
 Gap=     0.087 Goal=   None    Shift=    0.000
 RMSDP=3.38D-08 MaxDP=2.34D-06 DE=-2.88D-09 OVMax= 5.22D-06

 Cycle  21  Pass 1  IDiag  1:
 E= -1236.52995607219     Delta-E=       -0.000000000643 Rises=F Damp=F
 DIIS: error= 7.54D-08 at cycle  21 NSaved=  20.
 NSaved=20 IEnMin=17 EnMin= -1236.52995608510     IErMin=20 ErrMin= 7.54D-08
 ErrMax= 7.54D-08  0.00D+00 EMaxC= 1.00D-01 BMatC= 5.52D-12 BMatP= 7.61D-11
 IDIUse=1 WtCom= 1.00D+00 WtEn= 0.00D+00
 Coeff-Com:  0.363D-07 0.960D-07-0.707D-06 0.961D-06 0.151D-05-0.522D-06
[...]
  32         O                -0.449557          4.494851
  33         O                -0.430967          3.608748
  34         O                -0.408649          2.380188
  35         O                -0.401041          2.583159
  36         O                -0.363399          2.681879
  37         O                -0.351000          1.412996
  38         O                -0.350485          1.406072
  39         O                -0.318727          2.189832
  40         O                -0.308269          2.518563
  41         O                -0.297391          2.992075
  42         O                -0.293075          2.392736
  43         O                -0.290501          2.736351
  44         O                -0.286566          2.552083
  45         O                -0.283629          5.523041
  46         O                -0.274019          2.828725
  47         O                -0.224521          2.100763
  48         O                -0.221941          1.892729
  49         V                -0.134990        205.157357
  50         V                -0.130321          5.462109
  51         V                -0.121116         14.624425
  52         V                -0.120539         15.324837
  53         V                -0.112341         56.432817
  54         V                -0.104233        107.895133
  55         V                -0.094415          6.256245
  56         V                -0.079942          6.634142
  57         V                -0.035364          2.526507
  58         V                -0.029861          2.669530
  59         V                -0.019505         10.360426
  60         V                 0.012018          1.445513
  61         V                 0.017924          0.795813
  62         V                 0.027325          1.537578
  63         V                 0.029908          0.938067
  64         V                 0.035344          2.104701
  65         V                 0.040785          1.804386
  66         V                 0.048330          2.068621
  67         V                 0.054419          2.933621
  68         V                 0.068979          1.547812
  69         V                 0.110814          5.574041
  70         V                 0.116963          0.935282
  71         V                 0.130661          1.075754
  72         V                 0.143995          1.270330
  73         V                 0.158148          1.007607
  74         V                 0.187651          1.434603
  75         V                 0.207756          1.015450
  76         V                 0.215906          0.980092
  77         V                 0.239458          1.929092
  78         V                 0.250468          1.918318
  79         V                 0.255644          1.366949
  80         V                 0.258808          1.522665
  81         V                 0.268666          1.450261
  82         V                 0.270294          1.280610
  83         V                 0.273823          1.171609
  84         V                 0.282313          1.372505
  85         V                 0.283724          1.321111
  86         V                 0.300102          1.267229
  87         V                 0.306823          1.177186
  88         V                 0.308393          1.260143
  89         V                 0.310906          1.330142
  90         V                 0.320112          2.001771
  91         V                 0.360009          1.415131
  92         V                 0.380987          2.720209
  93         V                 0.390475          1.695537
  94         V                 0.402743          1.679858
  95         V                 0.412250          2.133061
  96         V                 0.424661          1.510686
  97         V                 0.431905          1.657955
  98         V                 0.445278          1.606772
  99         V                 0.457242          2.403636
 100         V                 0.466645          1.493656
 101         V                 0.473600          1.700344
 102         V                 0.478827          1.726790
 103         V                 0.496853          1.764435
 104         V                 0.512316          1.892761
 105         V                 0.521212          1.820196
 106         V                 0.533060          1.743887
 107         V                 0.542028          1.518288
 108         V                 0.544736          1.538994
 109         V                 0.561581          1.477809
 110         V                 0.569258          1.531784
 111         V                 0.583412          2.509998
 112         V                 0.606670          1.546541
 113         V                 0.633947          1.477248
 114         V                 0.640412          1.724154
 115         V                 0.646099          1.648684
 116         V                 0.663449          1.721968
 117         V                 0.685323          1.430467
 118         V                 0.694411          1.658383
 119         V                 0.734243          1.770495
 120         V                 0.749042          1.645758
 121         V                 0.759408          1.991424
 122         V                 0.769285          1.790446
 123         V                 0.807355          2.033734
 124         V                 0.829515          2.741751
 125         V                 0.865245          1.992540
 126         V                 0.886615          2.020675
 127         V                 0.921223          3.657743
 128         V                 0.937496          2.248683
 129         V                 0.960953          2.544550
 130         V                 0.999628          2.756873
 131         V                 1.018633          2.240036
 132         V                 1.044579          2.327912
 133         V                 1.053045          2.400264
 134         V                 1.077361          3.009908
 135         V                 1.095624          2.455816
 136         V                 1.103153          2.963790
 137         V                 1.104768          3.126455
 138         V                 1.127670          2.783429
 139         V                 1.131428          2.578857
 140         V                 1.149348          2.342569
 141         V                 1.161337          2.881509
 142         V                 1.163782          2.393701
 143         V                 1.170951          2.576444
 144         V                 1.188992          2.472177
 145         V                 1.219435          2.791066
 146         V                 1.227892          2.864181
 147         V                 1.246078          3.572859
 148         V                 1.269954          3.278007
 149         V                 1.305715          3.076468
 150         V                 1.319174          2.749674
 151         V                 1.336276          2.883150
 152         V                 1.372939          2.670698
 153         V                 1.382760          2.769626
 154         V                 1.397702          3.763094
 155         V                 1.398468          3.761602
 156         V                 1.408086          3.004025
 157         V                 1.419454          3.023915
 158         V                 1.427825          3.220729
 159         V                 1.439886          2.955383
 160         V                 1.443318          3.240116
 161         V                 1.455293          3.000321
 162         V                 1.470717          3.279500
 163         V                 1.492017          2.874557
 164         V                 1.501762          3.067759
 165         V                 1.530634          3.464928
 166         V                 1.535968          3.350848
 167         V                 1.565721          3.570614
 168         V                 1.573466          3.198992
 169         V                 1.596320          2.501253
 170         V                 1.596322          2.501376
 171         V                 1.600993          3.675638
 172         V                 1.608381          3.594574
 173         V                 1.651912          3.396643
 174         V                 1.661662          3.129668
 175         V                 1.673052          2.898854
 176         V                 1.683487          2.799672
 177         V                 1.691642          3.278112
 178         V                 1.699983          3.241657
 179         V                 1.720076          3.537558
 180         V                 1.734072          3.505772
 181         V                 1.747340          5.032321
 182         V                 1.749378          4.896879
 183         V                 1.782599          3.512036
 184         V                 1.796966          3.409022
 185         V                 1.801851          3.661189
 186         V                 1.826163          3.824804
 187         V                 1.843592          3.241224
 188         V                 1.851665          3.398593
 189         V                 1.875250          3.849824
 190         V                 1.892000          3.561477
 191         V                 1.919908          3.603696
 192         V                 1.940082          3.670277
 193         V                 1.958925          3.627092
 194         V                 2.087859          4.473391
 195         V                 2.131481          4.568850
 196         V                 2.132950          4.673054
 197         V                 2.158077          3.994037
 198         V                 2.175606          3.675104
 199         V                 2.201995          3.713733
 200         V                 2.209602          4.111127
 201         V                 2.228153          3.892176
 202         V                 2.240069          4.370964
 203         V                 2.257403          4.170398
 204         V                 2.272990          4.583088
 205         V                 2.292139          3.789511
 206         V                 2.345901          5.029892
 207         V                 2.404080          4.617837
 208         V                 2.462167          5.539519
 209         V                 2.481460          4.344801
 210         V                 2.530115          4.496437
 211         V                 2.543672          4.083729
 212         V                 2.565034          6.895117
 213         V                 2.571439          5.896069
 214         V                 2.575190          3.499603
 215         V                 2.575562          3.449155
 216         V                 2.603840          6.472482
 217         V                 2.627078          6.599094
 218         V                 2.644648          5.471997
 219         V                 2.650523          5.089480
 220         V                 2.653481          5.705900
 221         V                 2.682523          6.283852
 222         V                 2.719254          6.289318
 223         V                 2.724629          6.058953
 224         V                 2.761186          6.574532
 225         V                 2.777345          6.358395
 226         V                 2.820435          4.802191
 227         V                 2.828169          4.259987
 228         V                 2.844424          6.364521
 229         V                 2.864893          4.471956
 230         V                 2.882147          4.343197
 231         V                 2.937007          5.997087
 232         V                 2.970357          6.793600
 233         V                 3.012544          5.822424
 234         V                 3.021540          5.430643
 235         V                 3.060709          4.970382
 236         V                 3.268822          5.672843
 237         V                 3.426399          8.352713
 238         V                 3.465728          8.319243
 239         V                 3.524420          5.585158
 240         V                 3.535234          5.682619
 241         V                 3.589568          7.681068
 242         V                 3.645615          6.659826
 243         V                 3.665975          8.691058
 244         V                 3.692928          7.056224
 245         V                 3.720407          7.003065
 246         V                 3.745987          6.785790
 247         V                 3.788303          7.885496
 248         V                 3.835778          7.358585
 249         V                 3.855746          5.333107
 250         V                 3.861967          6.652367
 251         V                 3.877556          9.174318
 252         V                 3.914026          8.901611
 253         V                 4.050621          8.273991
 254         V                 4.141963          9.087702
 255         V                 4.206629          9.403734
 256         V                 4.213966          9.151151
 257         V                 4.279002          7.252070
 258         V                 4.389775          6.129697
 259         V                 4.410869          6.080100
 260         V                 4.495736          6.486586
 261         V                 4.528632          6.657132
 262         V                 4.979009          6.940166
 263         V                 4.988554          6.901223
 264         V                 5.001360          6.447048
 265         V                 5.004889          6.440869
 266         V                 5.006465          6.459513
 267         V                 5.009932          6.501848
 268         V                 5.012838          6.558885
 269         V                 5.016997          6.464991
 270         V                 5.030942          6.500533
 271         V                 5.032298          6.577148
 272         V                 5.067265          6.652287
 273         V                 5.078296          6.670382
 274         V                 5.093717          6.689355
 275         V                 5.101101          6.689969
 276         V                 5.114490          6.709188
 277         V                 5.135166          6.891016
 278         V                 5.155453          6.880900
 279         V                 5.168620          6.957021
 280         V                 5.314637          7.703450
 281         V                 5.325454          7.358117
 282         V                 5.333468          6.982264
 283         V                 5.351272          7.094929
 284         V                 5.381642          7.121026
 285         V                 5.401421          7.200314
 286         V                 5.421538          7.257485
 287         V                 5.428900          7.224745
 288         V                 5.436461          7.235020
 289         V                 5.450532          7.274368
 290         V                 5.634927          8.777917
 291         V                 5.778079          9.169791
 292         V                 6.072113         10.033746
 293         V                 6.089982          9.212100
 294         V                 6.106349          9.194692
 295         V                 6.122129          9.139370
 296         V                 6.140733          9.289674
 297         V                 6.175955          9.162658
 298         V                 6.187615          9.257911
 299         V                 6.212314          9.446799
 300         V                 6.233230          9.361627
 301         V                 6.256201          9.285955
 302         V                 6.274503          9.295205
 303         V                 6.293413          9.535598
 304         V                 6.321021          9.519837
 305         V                 6.418843          9.619114
 306         V                 6.442947          9.644556
 307         V                 6.470141          9.666497
 308         V                 6.501552          9.675329
 309         V                 6.624958         10.081722
 310         V                 6.648153         10.338627
 311         V                 6.662625          9.974840
 312         V                 6.775802         10.139288
 313         V                 6.947543         10.299019
 314         V                 6.995990         10.034721
 315         V                 7.040324         10.043203
 316         V                 7.107409         11.051382
 317         V                 7.263511         13.019333
 318         V                 7.430817         13.771844
 319         V                 7.560722         14.016934
 320         V                 8.151146         15.788074
 321         V                 8.153932         15.811928
 322         V                 8.218869         15.816667
 323         V                 8.641252         16.154365
 324         V                 8.720545         27.837866
 325         V                 8.720984         27.832453
 326         V                 9.012424         16.566207
 327         V                 9.247404         27.903361
 328         V                20.197429         37.539229
 329         V                22.557506         55.155994
 330         V                29.296995         36.043769
 331         V                29.441567         36.187153
 332         V                29.535351         36.454299
 333         V                32.193980         80.266591
 334         V                43.236264        108.601812
 335         V                43.360488        108.707505
 336         V                43.413648        108.765332
 337         V                43.430245        108.787199
 338         V                54.094465         39.997419
 339         V                70.202808         83.965660
 340         V                70.285767         84.122595
 341         V                70.341742         84.232508
 342         V               142.599259        242.451478
 343         V               142.759473        242.653114
 344         V               142.870560        242.792000
 345         V               202.583365        130.104007
 346         V               626.092123       1034.519394
 Total kinetic energy from orbitals= 9.569610056820D+02
 No NMR shielding tensors so no spin-rotation constants.
 Leave Link  601 at Wed Jul  5 10:36:52 2023, MaxMem=  2147483648 cpu:               4.1 elap:               0.6
 (Enter /home/pcmt/gaussian/g16.C.01/g16/l9999.exe)

 Test job not archived.
 1\1\GINC-U-0-0\SP\RBP86\Gen\C1H4N1O4Pa1S1\ROOT\05-Jul-2023\0\\#p BP86/
 GEN Pseudo=Read GFInput GFPrint IOP(6/7=3) Symm=(Loose) Int=(UltraFine
 ) Guess=(Harris) SCRF=(COSMORS) Scf=(NoVarAcc,MaxCycle=100,conver=8)\\
 pa_oh4_ncs-bp86-cosmors-deftzvp-klamt.com SGP in PCM calculation\\0,1\
 Pa,0,-0.118443367,0.0645677373,-0.3841633303\N,0,0.8584914908,1.675320
 0596,-1.864483527\H,0,-1.4108229534,1.8617867307,1.474393794\O,0,-1.11
 13154587,1.648383975,0.581149079\H,0,2.3477621635,-0.2586904684,1.0977
 727508\O,0,0.7770498331,-1.429257331,-1.5403713315\H,0,1.1360270705,-2
 .3252153925,-1.5179798021\O,0,-1.0684513984,-1.3676298814,0.8154881052
 \H,0,-1.0211141373,-2.1672542745,1.3511611695\O,0,1.5451969854,0.22436
 63286,0.8702566747\C,0,1.537960675,2.4471324924,-2.4450163513\S,0,2.45
 87166277,3.4999090684,-3.2405263394\\Version=ES64L-G16RevC.01\State=1-
 A\HF=-1236.5299561\RMSD=6.629e-09\Dipole=-1.5860894,-3.6119425,2.12244
 19\Quadrupole=1.1965387,0.542801,-1.7393397,-8.6064422,5.9626071,5.306
 8729\PG=C01 [X(C1H4N1O4Pa1S1)]\\@


 Mondays are the potholes in the road of life.
                                -- Tom Wilson
 Job cpu time:       0 days  0 hours 15 minutes 55.0 seconds.
 Elapsed time:       0 days  0 hours  3 minutes 16.9 seconds.
 File lengths (MBytes):  RWF=     62 Int=      0 D2E=      0 Chk=      9 Scr=      1
 Normal termination of Gaussian 16 at Wed Jul  5 10:36:52 2023.
