 Entering Gaussian System, Link 0=/home/pcmt/gaussian/g16.C.01/g16/g16
 AtFile(1): /home/shaaban/basis.gaussian/Pa-def-TZVP
 AtFile(1): /home/shaaban/basis.gaussian/Pa-ECP60MWB
 Initial command:
 /home/pcmt/gaussian/g16.C.01/g16/l1.exe "/state/partition2/shaaban/973083.phlam-s-sakura/Gau-188901.inp" -scrdir="/state/partition2/shaaban/973083.phlam-s-sakura/"
 Entering Link 1 = /home/pcmt/gaussian/g16.C.01/g16/l1.exe PID=    188902.
  
 Copyright (c) 1988-2019, Gaussian, Inc.  All Rights Reserved.
  
 This is part of the Gaussian(R) 16 program.  It is based on
 the Gaussian(R) 09 system (copyright 2009, Gaussian, Inc.),
 the Gaussian(R) 03 system (copyright 2003, Gaussian, Inc.),
 the Gaussian(R) 98 system (copyright 1998, Gaussian, Inc.),
 the Gaussian(R) 94 system (copyright 1995, Gaussian, Inc.),
 the Gaussian 92(TM) system (copyright 1992, Gaussian, Inc.),
 the Gaussian 90(TM) system (copyright 1990, Gaussian, Inc.),
 the Gaussian 88(TM) system (copyright 1988, Gaussian, Inc.),
 the Gaussian 86(TM) system (copyright 1986, Carnegie Mellon
 University), and the Gaussian 82(TM) system (copyright 1983,
 Carnegie Mellon University). Gaussian is a federally registered
 trademark of Gaussian, Inc.
  
 This software contains proprietary and confidential information,
 including trade secrets, belonging to Gaussian, Inc.
  
 This software is provided under written license and may be
 used, copied, transmitted, or stored only in accord with that
 written license.
  
 The following legend is applicable only to US Government
 contracts under FAR:
  
                    RESTRICTED RIGHTS LEGEND
  
 Use, reproduction and disclosure by the US Government is
 subject to restrictions as set forth in subparagraphs (a)
 and (c) of the Commercial Computer Software - Restricted
 Rights clause in FAR 52.227-19.
  
 Gaussian, Inc.
 340 Quinnipiac St., Bldg. 40, Wallingford CT 06492
  
  
 ---------------------------------------------------------------
 Warning -- This program may not be used in any manner that
 competes with the business of Gaussian, Inc. or will provide
 assistance to any competitor of Gaussian, Inc.  The licensee
 of this program is prohibited from giving any competitor of
 Gaussian, Inc. access to this program.  By using this program,
 the user acknowledges that Gaussian, Inc. is engaged in the
 business of creating and licensing software in the field of
 computational chemistry and represents and warrants to the
 licensee that it is not a competitor of Gaussian, Inc. and that
 it will not use this program in any manner prohibited above.
 ---------------------------------------------------------------
  

 Cite this work as:
 Gaussian 16, Revision C.01,
 M. J. Frisch, G. W. Trucks, H. B. Schlegel, G. E. Scuseria, 
 M. A. Robb, J. R. Cheeseman, G. Scalmani, V. Barone, 
 G. A. Petersson, H. Nakatsuji, X. Li, M. Caricato, A. V. Marenich, 
 J. Bloino, B. G. Janesko, R. Gomperts, B. Mennucci, H. P. Hratchian, 
 J. V. Ortiz, A. F. Izmaylov, J. L. Sonnenberg, D. Williams-Young, 
 F. Ding, F. Lipparini, F. Egidi, J. Goings, B. Peng, A. Petrone, 
 T. Henderson, D. Ranasinghe, V. G. Zakrzewski, J. Gao, N. Rega, 
 G. Zheng, W. Liang, M. Hada, M. Ehara, K. Toyota, R. Fukuda, 
 J. Hasegawa, M. Ishida, T. Nakajima, Y. Honda, O. Kitao, H. Nakai, 
 T. Vreven, K. Throssell, J. A. Montgomery, Jr., J. E. Peralta, 
 F. Ogliaro, M. J. Bearpark, J. J. Heyd, E. N. Brothers, K. N. Kudin, 
 V. N. Staroverov, T. A. Keith, R. Kobayashi, J. Normand, 
 K. Raghavachari, A. P. Rendell, J. C. Burant, S. S. Iyengar, 
 J. Tomasi, M. Cossi, J. M. Millam, M. Klene, C. Adamo, R. Cammi, 
 J. W. Ochterski, R. L. Martin, K. Morokuma, O. Farkas, 
 J. B. Foresman, and D. J. Fox, Gaussian, Inc., Wallingford CT, 2019.
 
 ******************************************
 Gaussian 16:  ES64L-G16RevC.01  3-Jul-2019
                 5-Jul-2023 
 ******************************************
 %mem=16Gb
 %NProc=8
 Will use up to    8 processors via shared memory.
 %chk=pao_oh2_ncs_h2o-bp86-cosmors-deftzvp-gp.chk
 ----------------------------------------------------------------------
 #p BP86/GEN Pseudo=Read GFInput GFPrint IOP(6/7=3) Symm=(Loose) Int=(U
 ltraFine) Guess=(Harris) Scf=(NoVarAcc,MaxCycle=100,conver=8)
 ----------------------------------------------------------------------
 1/38=1,172=1/1;
 2/12=2,17=4,18=3,40=1/2;
 3/5=7,11=2,16=1,17=8,24=110,25=1,30=1,74=404,75=-5/1,2,3;
 4/11=8/1;
 5/5=2,6=8,7=100,38=1/2;
 6/7=3,8=2,9=2,10=2,28=1/1;
 99/5=1,9=1/99;
 Leave Link    1 at Wed Jul  5 10:34:05 2023, MaxMem=  2147483648 cpu:               0.5 elap:               0.1
 (Enter /home/pcmt/gaussian/g16.C.01/g16/l101.exe)
 ------------------------------------------------------------------
 pao_oh2_ncs_h2o-bp86-cosmors-deftzvp-gp.com SGP in PCM calculation
 ------------------------------------------------------------------
 Symbolic Z-matrix:
 Charge =  0 Multiplicity = 1
 Pa                   -0.61745  -0.08848   0.62599 
 O                     0.71164   1.46838   0.01411 
 O                    -1.93373   0.53356  -0.88706 
 N                    -1.66629   1.37034   2.24973 
 H                    -1.93757   1.29927  -1.47804 
 O                     0.35268  -1.65349  -1.07203 
 H                     0.20075  -1.61966  -2.02566 
 H                     1.14955  -2.18107  -0.93011 
 H                     1.58333   1.67671   0.37072 
 O                     0.52955  -0.86712   1.86334 
 S                    -2.52674   3.33615   4.03844 
 C                    -2.02862   2.19971   3.00441 
 
 ITRead=  0  0  0  0  0  0  0  0  0  0  0  0
 MicOpt= -1 -1 -1 -1 -1 -1 -1 -1 -1 -1 -1 -1
 NAtoms=     12 NQM=       12 NQMF=       0 NMMI=      0 NMMIF=      0
                NMic=       0 NMicF=      0.
                    Isotopes and Nuclear Properties:
 (Nuclear quadrupole moments (NQMom) in fm**2, nuclear magnetic moments (NMagM)
  in nuclear magnetons)

  Atom         1           2           3           4           5           6           7           8           9          10
 IAtWgt=         231          16          16          14           1          16           1           1           1          16
 AtmWgt= 231.0359000  15.9949146  15.9949146  14.0030740   1.0078250  15.9949146   1.0078250   1.0078250   1.0078250  15.9949146
 NucSpn=           3           0           0           2           1           0           1           1           1           0
 AtZEff=  -0.0000000  -0.0000000  -0.0000000  -0.0000000  -0.0000000  -0.0000000  -0.0000000  -0.0000000  -0.0000000  -0.0000000
 NQMom= -172.0000000   0.0000000   0.0000000   2.0440000   0.0000000   0.0000000   0.0000000   0.0000000   0.0000000   0.0000000
 NMagM=    2.0100000   0.0000000   0.0000000   0.4037610   2.7928460   0.0000000   2.7928460   2.7928460   2.7928460   0.0000000
 AtZNuc=  91.0000000   8.0000000   8.0000000   7.0000000   1.0000000   8.0000000   1.0000000   1.0000000   1.0000000   8.0000000

  Atom        11          12
 IAtWgt=          32          12
 AtmWgt=  31.9720718  12.0000000
 NucSpn=           0           0
 AtZEff=  -0.0000000  -0.0000000
 NQMom=    0.0000000   0.0000000
 NMagM=    0.0000000   0.0000000
 AtZNuc=  16.0000000   6.0000000
 Leave Link  101 at Wed Jul  5 10:34:05 2023, MaxMem=  2147483648 cpu:               0.4 elap:               0.1
 (Enter /home/pcmt/gaussian/g16.C.01/g16/l202.exe)
                          Input orientation:                          
 ---------------------------------------------------------------------
 Center     Atomic      Atomic             Coordinates (Angstroms)
 Number     Number       Type             X           Y           Z
 ---------------------------------------------------------------------
      1         91           0       -0.617455   -0.088483    0.625987
      2          8           0        0.711642    1.468378    0.014105
      3          8           0       -1.933733    0.533559   -0.887063
      4          7           0       -1.666288    1.370338    2.249729
      5          1           0       -1.937570    1.299272   -1.478042
      6          8           0        0.352682   -1.653487   -1.072031
      7          1           0        0.200751   -1.619657   -2.025660
      8          1           0        1.149551   -2.181071   -0.930105
      9          1           0        1.583328    1.676707    0.370718
     10          8           0        0.529547   -0.867123    1.863344
     11         16           0       -2.526743    3.336152    4.038436
     12          6           0       -2.028622    2.199710    3.004406
 ---------------------------------------------------------------------
                    Distance matrix (angstroms):
                    1          2          3          4          5
     1  Pa   0.000000
     2  O    2.136519   0.000000
     3  O    2.099725   2.946862   0.000000
     4  N    2.421724   3.265299   3.257482   0.000000
     5  H    2.845260   3.045229   0.967257   3.738305   0.000000
     6  O    2.504730   3.324844   3.169397   4.924820   3.758840
     7  H    3.169415   3.735989   3.238636   5.541197   3.659569
     8  H    3.150025   3.794967   4.108248   5.536497   4.684371
     9  H    2.832755   0.964578   3.906215   3.766238   3.994633
    10  O    1.858210   2.984528   3.948974   3.158673   4.684527
    11  S    5.197914   5.492810   5.697958   2.793614   5.909952
    12  C    3.589442   4.121382   4.234217   1.178423   4.572900
                    6          7          8          9         10
     6  O    0.000000
     7  H    0.966248   0.000000
     8  H    0.966171   1.554235   0.000000
     9  H    3.832258   4.303506   4.094234   0.000000
    10  O    3.044023   3.974767   3.148686   3.132005   0.000000
    11  S    7.700939   8.292921   8.285004   5.753138   5.633778
    12  C    6.093856   6.697704   6.691218   4.500670   4.153519
                   11         12
    11  S    0.000000
    12  C    1.615191   0.000000
 Stoichiometry    CH4NO4PaS
 Framework group  C1[X(CH4NO4PaS)]
 Deg. of freedom    30
 Full point group                 C1      NOp   1
 Largest Abelian subgroup         C1      NOp   1
 Largest concise Abelian subgroup C1      NOp   1
                         Standard orientation:                         
 ---------------------------------------------------------------------
 Center     Atomic      Atomic             Coordinates (Angstroms)
 Number     Number       Type             X           Y           Z
 ---------------------------------------------------------------------
      1         91           0        0.603989   -0.050543   -0.136942
      2          8           0        0.544130    0.217100    1.981902
      3          8           0        0.716821    2.037319   -0.329154
      4          7           0       -1.814049   -0.012501   -0.264974
      5          1           0        0.627675    2.759617    0.307969
      6          8           0        3.108587   -0.031646   -0.119591
      7          1           0        3.668403    0.746324    0.002898
      8          1           0        3.655258   -0.806616    0.064961
      9          1           0        0.510243   -0.464198    2.663880
     10          8           0        0.709733   -1.905540   -0.109600
     11         16           0       -4.590570   -0.002169    0.043416
     12          6           0       -2.985207   -0.008564   -0.134379
 ---------------------------------------------------------------------
 Rotational constants (GHZ):           2.3793096           0.4244715           0.4049635
 Leave Link  202 at Wed Jul  5 10:34:05 2023, MaxMem=  2147483648 cpu:               0.1 elap:               0.0
 (Enter /home/pcmt/gaussian/g16.C.01/g16/l301.exe)
 General basis read from cards:  (5D, 7F)
 Centers:       1
 S 3 1.00
     Exponent=  1.2047376000D+04 Coefficients=  3.4500000000D-04
     Exponent=  1.8116841000D+03 Coefficients=  2.7420000000D-03
     Exponent=  3.4770104000D+02 Coefficients=  1.0053000000D-02
 S 1 1.00
     Exponent=  9.8678010000D+01 Coefficients=  1.0000000000D+00
 S 3 1.00
     Exponent=  5.7507376000D+01 Coefficients=  5.1528000000D-02
     Exponent=  3.3502601000D+01 Coefficients= -2.3692400000D-01
     Exponent=  1.9554451000D+01 Coefficients=  7.1904800000D-01
 S 1 1.00
     Exponent=  9.7164210000D+00 Coefficients=  1.0000000000D+00
 S 1 1.00
     Exponent=  2.6920960000D+00 Coefficients=  1.0000000000D+00
 S 1 1.00
     Exponent=  1.4538470000D+00 Coefficients=  1.0000000000D+00
 S 1 1.00
     Exponent=  5.7435200000D-01 Coefficients=  1.0000000000D+00
 S 1 1.00
     Exponent=  2.6346800000D-01 Coefficients=  1.0000000000D+00
 S 1 1.00
     Exponent=  5.6557000000D-02 Coefficients=  1.0000000000D+00
 S 1 1.00
     Exponent=  2.3169000000D-02 Coefficients=  1.0000000000D+00
 P 5 1.00
     Exponent=  2.9033676000D+03 Coefficients=  3.5000000000D-05
     Exponent=  6.4486356000D+02 Coefficients=  2.0500000000D-04
     Exponent=  2.2025896000D+02 Coefficients=  1.2510000000D-03
     Exponent=  8.0276401000D+01 Coefficients=  2.4570000000D-03
     Exponent=  2.4080211000D+01 Coefficients=  1.1190000000D-02
 P 1 1.00
     Exponent=  1.4077580000D+01 Coefficients=  1.0000000000D+00
 P 1 1.00
     Exponent=  8.2658460000D+00 Coefficients=  1.0000000000D+00
 P 1 1.00
     Exponent=  3.5948000000D+00 Coefficients=  1.0000000000D+00
 P 1 1.00
     Exponent=  1.7531110000D+00 Coefficients=  1.0000000000D+00
 P 1 1.00
     Exponent=  6.5776700000D-01 Coefficients=  1.0000000000D+00
 P 1 1.00
     Exponent=  2.8463900000D-01 Coefficients=  1.0000000000D+00
 P 1 1.00
     Exponent=  1.0054300000D-01 Coefficients=  1.0000000000D+00
 P 1 1.00
     Exponent=  3.0190000000D-02 Coefficients=  1.0000000000D+00
 D 6 1.00
     Exponent=  4.4814991000D+02 Coefficients=  2.6000000000D-05
     Exponent=  1.5446145000D+02 Coefficients=  2.2800000000D-04
     Exponent=  6.0925377000D+01 Coefficients=  9.0400000000D-04
     Exponent=  1.7032091000D+01 Coefficients=  2.5647000000D-02
     Exponent=  1.0018877000D+01 Coefficients= -1.0575100000D-01
     Exponent=  3.4091930000D+00 Coefficients=  4.4743200000D-01
 D 1 1.00
     Exponent=  1.6702130000D+00 Coefficients=  1.0000000000D+00
 D 1 1.00
     Exponent=  7.4109500000D-01 Coefficients=  1.0000000000D+00
 D 1 1.00
     Exponent=  2.6139300000D-01 Coefficients=  1.0000000000D+00
 D 1 1.00
     Exponent=  8.2811000000D-02 Coefficients=  1.0000000000D+00
 F 5 1.00
     Exponent=  8.7991327000D+01 Coefficients=  2.2600000000D-04
     Exponent=  2.8340195000D+01 Coefficients=  2.3230000000D-03
     Exponent=  1.2440994000D+01 Coefficients=  4.5850000000D-03
     Exponent=  3.9572960000D+00 Coefficients=  1.5696100000D-01
     Exponent=  1.8759440000D+00 Coefficients=  3.4497700000D-01
 F 1 1.00
     Exponent=  8.2758900000D-01 Coefficients=  1.0000000000D+00
 F 1 1.00
     Exponent=  3.3274800000D-01 Coefficients=  1.0000000000D+00
 F 1 1.00
     Exponent=  1.1468500000D-01 Coefficients=  1.0000000000D+00
 G 1 1.00
     Exponent=  3.5000000000D-01 Coefficients=  1.0000000000D+00
 ****
 Centers:       2      3      6     10
 Def2TZVP
 ****
 Centers:       5      7      8      9
 Def2TZVP
 ****
 Centers:      11
 Def2TZVP
 ****
 Centers:      12
 Def2TZVP
 ****
 Centers:       4
 Def2TZVP
 ****
 ======================================================================================================
                                       Pseudopotential Parameters
 ======================================================================================================
  Center     Atomic      Valence      Angular      Power
  Number     Number     Electrons     Momentum     of R      Exponent        Coefficient   SO-Coeffient
 ======================================================================================================
    1         91           31
                                      H and up 
                                                     2        1.0000000        0.00000000    0.00000000
                                      S - H
                                                     2       15.2691737      475.47573283    0.00000000
                                      P - H
                                                     2        9.9577370      207.66485962    0.00000000
                                      D - H
                                                     2        8.9431413      156.67411988    0.00000000
                                      F - H
                                                     2        7.0104666       67.98223685    0.00000000
                                      G - H
                                                     2       12.2010560      -57.63059989    0.00000000
    2          8
                                   No pseudopotential on this center.
    3          8
                                   No pseudopotential on this center.
    4          7
                                   No pseudopotential on this center.
    5          1
                                   No pseudopotential on this center.
    6          8
                                   No pseudopotential on this center.
    7          1
                                   No pseudopotential on this center.
    8          1
                                   No pseudopotential on this center.
    9          1
                                   No pseudopotential on this center.
   10          8
                                   No pseudopotential on this center.
   11         16
                                   No pseudopotential on this center.
   12          6
                                   No pseudopotential on this center.
 ======================================================================================================
 Ernie: Thresh=  0.10000D-02 Tol=  0.10000D-05 Strict=F.
 AO basis set in the form of general basis input (Overlap normalization):
      1 0
 S   3 1.00       0.000000000000
      0.1204737600D+05  0.2857094961D-01
      0.1811684100D+04  0.2270769386D+00
      0.3477010400D+03  0.8325326273D+00
 S   3 1.00       0.000000000000
      0.5750737600D+02  0.9569327984D-01
      0.3350260100D+02 -0.4399944619D+00
      0.1955445100D+02  0.1335352847D+01
 S   1 1.00       0.000000000000
      0.9867801000D+02  0.1000000000D+01
 S   1 1.00       0.000000000000
      0.9716421000D+01  0.1000000000D+01
 S   1 1.00       0.000000000000
      0.2692096000D+01  0.1000000000D+01
 S   1 1.00       0.000000000000
      0.1453847000D+01  0.1000000000D+01
 S   1 1.00       0.000000000000
      0.5743520000D+00  0.1000000000D+01
 S   1 1.00       0.000000000000
      0.2634680000D+00  0.1000000000D+01
 S   1 1.00       0.000000000000
      0.5655700000D-01  0.1000000000D+01
 S   1 1.00       0.000000000000
      0.2316900000D-01  0.1000000000D+01
 P   5 1.00       0.000000000000
      0.2903367600D+04  0.2594222647D-02
      0.6448635600D+03  0.1519473264D-01
      0.2202589600D+03  0.9272492945D-01
      0.8027640100D+02  0.1821144298D+00
      0.2408021100D+02  0.8294100404D+00
 P   1 1.00       0.000000000000
      0.1407758000D+02  0.1000000000D+01
 P   1 1.00       0.000000000000
      0.8265846000D+01  0.1000000000D+01
 P   1 1.00       0.000000000000
      0.3594800000D+01  0.1000000000D+01
 P   1 1.00       0.000000000000
      0.1753111000D+01  0.1000000000D+01
 P   1 1.00       0.000000000000
      0.6577670000D+00  0.1000000000D+01
 P   1 1.00       0.000000000000
      0.2846390000D+00  0.1000000000D+01
 P   1 1.00       0.000000000000
      0.1005430000D+00  0.1000000000D+01
 P   1 1.00       0.000000000000
      0.3019000000D-01  0.1000000000D+01
 D   6 1.00       0.000000000000
      0.4481499100D+03  0.6556927566D-04
      0.1544614500D+03  0.5749921096D-03
      0.6092537700D+02  0.2279793277D-02
      0.1703209100D+02  0.6467904664D-01
      0.1001887700D+02 -0.2666929411D+00
      0.3409193000D+01  0.1128376621D+01
 D   1 1.00       0.000000000000
      0.1670213000D+01  0.1000000000D+01
 D   1 1.00       0.000000000000
      0.7410950000D+00  0.1000000000D+01
 D   1 1.00       0.000000000000
      0.2613930000D+00  0.1000000000D+01
 D   1 1.00       0.000000000000
      0.8281100000D-01  0.1000000000D+01
 F   5 1.00       0.000000000000
      0.8799132700D+02  0.4766318191D-03
      0.2834019500D+02  0.4899184583D-02
      0.1244099400D+02  0.9669720755D-02
      0.3957296000D+01  0.3310292343D+00
      0.1875944000D+01  0.7275531640D+00
 F   1 1.00       0.000000000000
      0.8275890000D+00  0.1000000000D+01
 F   1 1.00       0.000000000000
      0.3327480000D+00  0.1000000000D+01
 F   1 1.00       0.000000000000
      0.1146850000D+00  0.1000000000D+01
 G   1 1.00       0.000000000000
      0.3500000000D+00  0.1000000000D+01
 ****
      2 0
 S   6 1.00       0.000000000000
      0.2703238263D+05  0.5722733521D-03
      0.4052387139D+04  0.4435323349D-02
      0.9223272271D+03  0.2302010771D-01
      0.2612407099D+03  0.9282249067D-01
      0.8535464135D+02  0.2937850001D+00
      0.3103503524D+02  0.6740160450D+00
 S   2 1.00       0.000000000000
      0.1226086073D+02  0.6383993703D+00
      0.4998707601D+01  0.3953458713D+00
 S   1 1.00       0.000000000000
      0.1170310816D+01  0.1000000000D+01
 S   1 1.00       0.000000000000
      0.4647474099D+00  0.1000000000D+01
 S   1 1.00       0.000000000000
      0.1850453636D+00  0.1000000000D+01
 P   4 1.00       0.000000000000
      0.6327495480D+02  0.1201833222D-01
      0.1462704938D+02  0.8300542179D-01
      0.4450122346D+01  0.3199174393D+00
      0.1527579965D+01  0.7071554292D+00
 P   1 1.00       0.000000000000
      0.5293511794D+00  0.1000000000D+01
 P   1 1.00       0.000000000000
      0.1747842127D+00  0.1000000000D+01
 D   1 1.00       0.000000000000
      0.2314000000D+01  0.1000000000D+01
 D   1 1.00       0.000000000000
      0.6450000000D+00  0.1000000000D+01
 F   1 1.00       0.000000000000
      0.1428000000D+01  0.1000000000D+01
 ****
      3 0
 S   6 1.00       0.000000000000
      0.2703238263D+05  0.5722733521D-03
      0.4052387139D+04  0.4435323349D-02
      0.9223272271D+03  0.2302010771D-01
      0.2612407099D+03  0.9282249067D-01
      0.8535464135D+02  0.2937850001D+00
      0.3103503524D+02  0.6740160450D+00
 S   2 1.00       0.000000000000
      0.1226086073D+02  0.6383993703D+00
      0.4998707601D+01  0.3953458713D+00
 S   1 1.00       0.000000000000
      0.1170310816D+01  0.1000000000D+01
 S   1 1.00       0.000000000000
      0.4647474099D+00  0.1000000000D+01
 S   1 1.00       0.000000000000
      0.1850453636D+00  0.1000000000D+01
 P   4 1.00       0.000000000000
      0.6327495480D+02  0.1201833222D-01
      0.1462704938D+02  0.8300542179D-01
      0.4450122346D+01  0.3199174393D+00
      0.1527579965D+01  0.7071554292D+00
 P   1 1.00       0.000000000000
      0.5293511794D+00  0.1000000000D+01
 P   1 1.00       0.000000000000
      0.1747842127D+00  0.1000000000D+01
 D   1 1.00       0.000000000000
      0.2314000000D+01  0.1000000000D+01
 D   1 1.00       0.000000000000
      0.6450000000D+00  0.1000000000D+01
 F   1 1.00       0.000000000000
      0.1428000000D+01  0.1000000000D+01
 ****
      4 0
 S   6 1.00       0.000000000000
      0.1973080065D+05  0.5862640263D-03
      0.2957895874D+04  0.4542882059D-02
      0.6732213360D+03  0.2355841345D-01
      0.1906824949D+03  0.9470919329D-01
      0.6229544190D+02  0.2971978491D+00
      0.2265416118D+02  0.6691624690D+00
 S   2 1.00       0.000000000000
      0.8979147743D+01  0.6459668363D+00
      0.3686300237D+01  0.3870057439D+00
 S   1 1.00       0.000000000000
      0.8466007680D+00  0.1000000000D+01
 S   1 1.00       0.000000000000
      0.3364713377D+00  0.1000000000D+01
 S   1 1.00       0.000000000000
      0.1364765367D+00  0.1000000000D+01
 P   4 1.00       0.000000000000
      0.4920038051D+02  0.1144882510D-01
      0.1134679054D+02  0.7842233797D-01
      0.3427397241D+01  0.3081809474D+00
      0.1178552513D+01  0.7202719637D+00
 P   1 1.00       0.000000000000
      0.4164220497D+00  0.1000000000D+01
 P   1 1.00       0.000000000000
      0.1426082601D+00  0.1000000000D+01
 D   1 1.00       0.000000000000
      0.1654000000D+01  0.1000000000D+01
 D   1 1.00       0.000000000000
      0.4690000000D+00  0.1000000000D+01
 F   1 1.00       0.000000000000
      0.1093000000D+01  0.1000000000D+01
 ****
      5 0
 S   3 1.00       0.000000000000
      0.3406134100D+02  0.2543930721D-01
      0.5123574600D+01  0.1900859489D+00
      0.1164662600D+01  0.8524411301D+00
 S   1 1.00       0.000000000000
      0.3272304100D+00  0.1000000000D+01
 S   1 1.00       0.000000000000
      0.1030724100D+00  0.1000000000D+01
 P   1 1.00       0.000000000000
      0.8000000000D+00  0.1000000000D+01
 ****
      6 0
 S   6 1.00       0.000000000000
      0.2703238263D+05  0.5722733521D-03
      0.4052387139D+04  0.4435323349D-02
      0.9223272271D+03  0.2302010771D-01
      0.2612407099D+03  0.9282249067D-01
      0.8535464135D+02  0.2937850001D+00
      0.3103503524D+02  0.6740160450D+00
 S   2 1.00       0.000000000000
      0.1226086073D+02  0.6383993703D+00
      0.4998707601D+01  0.3953458713D+00
 S   1 1.00       0.000000000000
      0.1170310816D+01  0.1000000000D+01
 S   1 1.00       0.000000000000
      0.4647474099D+00  0.1000000000D+01
 S   1 1.00       0.000000000000
      0.1850453636D+00  0.1000000000D+01
 P   4 1.00       0.000000000000
      0.6327495480D+02  0.1201833222D-01
      0.1462704938D+02  0.8300542179D-01
      0.4450122346D+01  0.3199174393D+00
      0.1527579965D+01  0.7071554292D+00
 P   1 1.00       0.000000000000
      0.5293511794D+00  0.1000000000D+01
 P   1 1.00       0.000000000000
      0.1747842127D+00  0.1000000000D+01
 D   1 1.00       0.000000000000
      0.2314000000D+01  0.1000000000D+01
 D   1 1.00       0.000000000000
      0.6450000000D+00  0.1000000000D+01
 F   1 1.00       0.000000000000
      0.1428000000D+01  0.1000000000D+01
 ****
      7 0
 S   3 1.00       0.000000000000
      0.3406134100D+02  0.2543930721D-01
      0.5123574600D+01  0.1900859489D+00
      0.1164662600D+01  0.8524411301D+00
 S   1 1.00       0.000000000000
      0.3272304100D+00  0.1000000000D+01
 S   1 1.00       0.000000000000
      0.1030724100D+00  0.1000000000D+01
 P   1 1.00       0.000000000000
      0.8000000000D+00  0.1000000000D+01
 ****
      8 0
 S   3 1.00       0.000000000000
      0.3406134100D+02  0.2543930721D-01
      0.5123574600D+01  0.1900859489D+00
      0.1164662600D+01  0.8524411301D+00
 S   1 1.00       0.000000000000
      0.3272304100D+00  0.1000000000D+01
 S   1 1.00       0.000000000000
      0.1030724100D+00  0.1000000000D+01
 P   1 1.00       0.000000000000
      0.8000000000D+00  0.1000000000D+01
 ****
      9 0
 S   3 1.00       0.000000000000
      0.3406134100D+02  0.2543930721D-01
      0.5123574600D+01  0.1900859489D+00
      0.1164662600D+01  0.8524411301D+00
 S   1 1.00       0.000000000000
      0.3272304100D+00  0.1000000000D+01
 S   1 1.00       0.000000000000
      0.1030724100D+00  0.1000000000D+01
 P   1 1.00       0.000000000000
      0.8000000000D+00  0.1000000000D+01
 ****
     10 0
 S   6 1.00       0.000000000000
      0.2703238263D+05  0.5722733521D-03
      0.4052387139D+04  0.4435323349D-02
      0.9223272271D+03  0.2302010771D-01
      0.2612407099D+03  0.9282249067D-01
      0.8535464135D+02  0.2937850001D+00
      0.3103503524D+02  0.6740160450D+00
 S   2 1.00       0.000000000000
      0.1226086073D+02  0.6383993703D+00
      0.4998707601D+01  0.3953458713D+00
 S   1 1.00       0.000000000000
      0.1170310816D+01  0.1000000000D+01
 S   1 1.00       0.000000000000
      0.4647474099D+00  0.1000000000D+01
 S   1 1.00       0.000000000000
      0.1850453636D+00  0.1000000000D+01
 P   4 1.00       0.000000000000
      0.6327495480D+02  0.1201833222D-01
      0.1462704938D+02  0.8300542179D-01
      0.4450122346D+01  0.3199174393D+00
      0.1527579965D+01  0.7071554292D+00
 P   1 1.00       0.000000000000
      0.5293511794D+00  0.1000000000D+01
 P   1 1.00       0.000000000000
      0.1747842127D+00  0.1000000000D+01
 D   1 1.00       0.000000000000
      0.2314000000D+01  0.1000000000D+01
 D   1 1.00       0.000000000000
      0.6450000000D+00  0.1000000000D+01
 F   1 1.00       0.000000000000
      0.1428000000D+01  0.1000000000D+01
 ****
     11 0
 S   7 1.00       0.000000000000
      0.6070092810D+05  0.5238007490D-03
      0.9102610685D+04  0.4050632678D-02
      0.2071416601D+04  0.2082700417D-01
      0.5860247682D+03  0.8149685034D-01
      0.1905539502D+03  0.2374911384D+00
      0.6763038426D+02  0.4472617151D+00
      0.2512730691D+02  0.3489191844D+00
 S   3 1.00       0.000000000000
      0.1125746301D+03  0.1004556989D+00
      0.3479555422D+02  0.4339117295D+00
      0.6511555622D+01 -0.1208433059D+01
 S   2 1.00       0.000000000000
      0.3239903226D+01  0.6749812942D+00
      0.1547716088D+01  0.3470879576D+00
 S   1 1.00       0.000000000000
      0.4054103011D+00  0.1000000000D+01
 S   1 1.00       0.000000000000
      0.1455065106D+00  0.1000000000D+01
 P   5 1.00       0.000000000000
      0.5643671603D+03  0.3488692363D-02
      0.1334262438D+03  0.2768512678D-01
      0.4246827119D+02  0.1265940018D+00
      0.1561652758D+02  0.3616592567D+00
      0.6109398847D+01  0.6122203444D+00
 P   1 1.00       0.000000000000
      0.2440416020D+01  0.1000000000D+01
 P   1 1.00       0.000000000000
      0.8388220130D+00  0.1000000000D+01
 P   1 1.00       0.000000000000
      0.3128874690D+00  0.1000000000D+01
 P   1 1.00       0.000000000000
      0.1077010900D+00  0.1000000000D+01
 D   2 1.00       0.000000000000
      0.3756000000D+01  0.1828519746D+00
      0.8120000000D+00  0.9142598730D+00
 D   1 1.00       0.000000000000
      0.2730000000D+00  0.1000000000D+01
 F   1 1.00       0.000000000000
      0.5570000000D+00  0.1000000000D+01
 ****
     12 0
 S   6 1.00       0.000000000000
      0.1357534968D+05  0.6064550360D-03
      0.2035233368D+04  0.4697908888D-02
      0.4632256236D+03  0.2433247765D-01
      0.1312001960D+03  0.9739996831D-01
      0.4285301589D+02  0.3019558425D+00
      0.1558418577D+02  0.6623360914D+00
 S   2 1.00       0.000000000000
      0.6206713851D+01  0.6559530854D+00
      0.2576489653D+01  0.3758563329D+00
 S   1 1.00       0.000000000000
      0.5769633942D+00  0.1000000000D+01
 S   1 1.00       0.000000000000
      0.2297283136D+00  0.1000000000D+01
 S   1 1.00       0.000000000000
      0.9516444003D-01  0.1000000000D+01
 P   4 1.00       0.000000000000
      0.3469723224D+02  0.1132722000D-01
      0.7958262283D+01  0.7616965920D-01
      0.2378082688D+01  0.3019225220D+00
      0.8143320818D+00  0.7278502735D+00
 P   1 1.00       0.000000000000
      0.2888754725D+00  0.1000000000D+01
 P   1 1.00       0.000000000000
      0.1005682367D+00  0.1000000000D+01
 D   1 1.00       0.000000000000
      0.1097000000D+01  0.1000000000D+01
 D   1 1.00       0.000000000000
      0.3180000000D+00  0.1000000000D+01
 F   1 1.00       0.000000000000
      0.7610000000D+00  0.1000000000D+01
 ****

 AO basis set (Overlap normalization):
 Atom Pa1      Shell     1 S   3     bf    1 -     1          1.141373026195         -0.095511973449         -0.258782909784
      0.1204737600D+05  0.2857094961D-01
      0.1811684100D+04  0.2270769386D+00
      0.3477010400D+03  0.8325326273D+00
 Atom Pa1      Shell     2 S   3     bf    2 -     2          1.141373026195         -0.095511973449         -0.258782909784
      0.5750737600D+02  0.9569327984D-01
      0.3350260100D+02 -0.4399944619D+00
      0.1955445100D+02  0.1335352847D+01
 Atom Pa1      Shell     3 S   1     bf    3 -     3          1.141373026195         -0.095511973449         -0.258782909784
      0.9867801000D+02  0.1000000000D+01
 Atom Pa1      Shell     4 S   1     bf    4 -     4          1.141373026195         -0.095511973449         -0.258782909784
      0.9716421000D+01  0.1000000000D+01
 Atom Pa1      Shell     5 S   1     bf    5 -     5          1.141373026195         -0.095511973449         -0.258782909784
      0.2692096000D+01  0.1000000000D+01
 Atom Pa1      Shell     6 S   1     bf    6 -     6          1.141373026195         -0.095511973449         -0.258782909784
      0.1453847000D+01  0.1000000000D+01
 Atom Pa1      Shell     7 S   1     bf    7 -     7          1.141373026195         -0.095511973449         -0.258782909784
      0.5743520000D+00  0.1000000000D+01
 Atom Pa1      Shell     8 S   1     bf    8 -     8          1.141373026195         -0.095511973449         -0.258782909784
      0.2634680000D+00  0.1000000000D+01
 Atom Pa1      Shell     9 S   1     bf    9 -     9          1.141373026195         -0.095511973449         -0.258782909784
      0.5655700000D-01  0.1000000000D+01
 Atom Pa1      Shell    10 S   1     bf   10 -    10          1.141373026195         -0.095511973449         -0.258782909784
      0.2316900000D-01  0.1000000000D+01
 Atom Pa1      Shell    11 P   5     bf   11 -    13          1.141373026195         -0.095511973449         -0.258782909784
      0.2903367600D+04  0.2594222647D-02
      0.6448635600D+03  0.1519473264D-01
      0.2202589600D+03  0.9272492945D-01
      0.8027640100D+02  0.1821144298D+00
      0.2408021100D+02  0.8294100404D+00
 Atom Pa1      Shell    12 P   1     bf   14 -    16          1.141373026195         -0.095511973449         -0.258782909784
      0.1407758000D+02  0.1000000000D+01
 Atom Pa1      Shell    13 P   1     bf   17 -    19          1.141373026195         -0.095511973449         -0.258782909784
      0.8265846000D+01  0.1000000000D+01
 Atom Pa1      Shell    14 P   1     bf   20 -    22          1.141373026195         -0.095511973449         -0.258782909784
      0.3594800000D+01  0.1000000000D+01
 Atom Pa1      Shell    15 P   1     bf   23 -    25          1.141373026195         -0.095511973449         -0.258782909784
      0.1753111000D+01  0.1000000000D+01
 Atom Pa1      Shell    16 P   1     bf   26 -    28          1.141373026195         -0.095511973449         -0.258782909784
      0.6577670000D+00  0.1000000000D+01
 Atom Pa1      Shell    17 P   1     bf   29 -    31          1.141373026195         -0.095511973449         -0.258782909784
      0.2846390000D+00  0.1000000000D+01
 Atom Pa1      Shell    18 P   1     bf   32 -    34          1.141373026195         -0.095511973449         -0.258782909784
      0.1005430000D+00  0.1000000000D+01
 Atom Pa1      Shell    19 P   1     bf   35 -    37          1.141373026195         -0.095511973449         -0.258782909784
      0.3019000000D-01  0.1000000000D+01
 Atom Pa1      Shell    20 D   6     bf   38 -    42          1.141373026195         -0.095511973449         -0.258782909784
      0.4481499100D+03  0.6556927566D-04
      0.1544614500D+03  0.5749921096D-03
      0.6092537700D+02  0.2279793277D-02
      0.1703209100D+02  0.6467904664D-01
      0.1001887700D+02 -0.2666929411D+00
      0.3409193000D+01  0.1128376621D+01
 Atom Pa1      Shell    21 D   1     bf   43 -    47          1.141373026195         -0.095511973449         -0.258782909784
      0.1670213000D+01  0.1000000000D+01
 Atom Pa1      Shell    22 D   1     bf   48 -    52          1.141373026195         -0.095511973449         -0.258782909784
      0.7410950000D+00  0.1000000000D+01
 Atom Pa1      Shell    23 D   1     bf   53 -    57          1.141373026195         -0.095511973449         -0.258782909784
      0.2613930000D+00  0.1000000000D+01
 Atom Pa1      Shell    24 D   1     bf   58 -    62          1.141373026195         -0.095511973449         -0.258782909784
      0.8281100000D-01  0.1000000000D+01
 Atom Pa1      Shell    25 F   5     bf   63 -    69          1.141373026195         -0.095511973449         -0.258782909784
      0.8799132700D+02  0.4766318191D-03
      0.2834019500D+02  0.4899184583D-02
      0.1244099400D+02  0.9669720755D-02
      0.3957296000D+01  0.3310292343D+00
      0.1875944000D+01  0.7275531640D+00
 Atom Pa1      Shell    26 F   1     bf   70 -    76          1.141373026195         -0.095511973449         -0.258782909784
      0.8275890000D+00  0.1000000000D+01
 Atom Pa1      Shell    27 F   1     bf   77 -    83          1.141373026195         -0.095511973449         -0.258782909784
      0.3327480000D+00  0.1000000000D+01
 Atom Pa1      Shell    28 F   1     bf   84 -    90          1.141373026195         -0.095511973449         -0.258782909784
      0.1146850000D+00  0.1000000000D+01
 Atom Pa1      Shell    29 G   1     bf   91 -    99          1.141373026195         -0.095511973449         -0.258782909784
      0.3500000000D+00  0.1000000000D+01
 Atom O2       Shell    30 S   6     bf  100 -   100          1.028257226936          0.410260393143          3.745251307060
      0.2703238263D+05  0.5722733521D-03
      0.4052387139D+04  0.4435323349D-02
      0.9223272271D+03  0.2302010771D-01
      0.2612407099D+03  0.9282249067D-01
      0.8535464135D+02  0.2937850001D+00
      0.3103503524D+02  0.6740160450D+00
 Atom O2       Shell    31 S   2     bf  101 -   101          1.028257226936          0.410260393143          3.745251307060
      0.1226086073D+02  0.6383993703D+00
      0.4998707601D+01  0.3953458713D+00
 Atom O2       Shell    32 S   1     bf  102 -   102          1.028257226936          0.410260393143          3.745251307060
      0.1170310816D+01  0.1000000000D+01
 Atom O2       Shell    33 S   1     bf  103 -   103          1.028257226936          0.410260393143          3.745251307060
      0.4647474099D+00  0.1000000000D+01
 Atom O2       Shell    34 S   1     bf  104 -   104          1.028257226936          0.410260393143          3.745251307060
      0.1850453636D+00  0.1000000000D+01
 Atom O2       Shell    35 P   4     bf  105 -   107          1.028257226936          0.410260393143          3.745251307060
      0.6327495480D+02  0.1201833222D-01
      0.1462704938D+02  0.8300542179D-01
      0.4450122346D+01  0.3199174393D+00
      0.1527579965D+01  0.7071554292D+00
 Atom O2       Shell    36 P   1     bf  108 -   110          1.028257226936          0.410260393143          3.745251307060
      0.5293511794D+00  0.1000000000D+01
 Atom O2       Shell    37 P   1     bf  111 -   113          1.028257226936          0.410260393143          3.745251307060
      0.1747842127D+00  0.1000000000D+01
 Atom O2       Shell    38 D   1     bf  114 -   118          1.028257226936          0.410260393143          3.745251307060
      0.2314000000D+01  0.1000000000D+01
 Atom O2       Shell    39 D   1     bf  119 -   123          1.028257226936          0.410260393143          3.745251307060
      0.6450000000D+00  0.1000000000D+01
 Atom O2       Shell    40 F   1     bf  124 -   130          1.028257226936          0.410260393143          3.745251307060
      0.1428000000D+01  0.1000000000D+01
 Atom O3       Shell    41 S   6     bf  131 -   131          1.354596156925          3.849975213605         -0.622011062066
      0.2703238263D+05  0.5722733521D-03
      0.4052387139D+04  0.4435323349D-02
      0.9223272271D+03  0.2302010771D-01
      0.2612407099D+03  0.9282249067D-01
      0.8535464135D+02  0.2937850001D+00
      0.3103503524D+02  0.6740160450D+00
 Atom O3       Shell    42 S   2     bf  132 -   132          1.354596156925          3.849975213605         -0.622011062066
      0.1226086073D+02  0.6383993703D+00
      0.4998707601D+01  0.3953458713D+00
 Atom O3       Shell    43 S   1     bf  133 -   133          1.354596156925          3.849975213605         -0.622011062066
      0.1170310816D+01  0.1000000000D+01
 Atom O3       Shell    44 S   1     bf  134 -   134          1.354596156925          3.849975213605         -0.622011062066
      0.4647474099D+00  0.1000000000D+01
 Atom O3       Shell    45 S   1     bf  135 -   135          1.354596156925          3.849975213605         -0.622011062066
      0.1850453636D+00  0.1000000000D+01
 Atom O3       Shell    46 P   4     bf  136 -   138          1.354596156925          3.849975213605         -0.622011062066
      0.6327495480D+02  0.1201833222D-01
      0.1462704938D+02  0.8300542179D-01
      0.4450122346D+01  0.3199174393D+00
      0.1527579965D+01  0.7071554292D+00
 Atom O3       Shell    47 P   1     bf  139 -   141          1.354596156925          3.849975213605         -0.622011062066
      0.5293511794D+00  0.1000000000D+01
 Atom O3       Shell    48 P   1     bf  142 -   144          1.354596156925          3.849975213605         -0.622011062066
      0.1747842127D+00  0.1000000000D+01
 Atom O3       Shell    49 D   1     bf  145 -   149          1.354596156925          3.849975213605         -0.622011062066
      0.2314000000D+01  0.1000000000D+01
 Atom O3       Shell    50 D   1     bf  150 -   154          1.354596156925          3.849975213605         -0.622011062066
      0.6450000000D+00  0.1000000000D+01
 Atom O3       Shell    51 F   1     bf  155 -   161          1.354596156925          3.849975213605         -0.622011062066
      0.1428000000D+01  0.1000000000D+01
 Atom N4       Shell    52 S   6     bf  162 -   162         -3.428056394112         -0.023624409601         -0.500728398256
      0.1973080065D+05  0.5862640263D-03
      0.2957895874D+04  0.4542882059D-02
      0.6732213360D+03  0.2355841345D-01
      0.1906824949D+03  0.9470919329D-01
      0.6229544190D+02  0.2971978491D+00
      0.2265416118D+02  0.6691624690D+00
 Atom N4       Shell    53 S   2     bf  163 -   163         -3.428056394112         -0.023624409601         -0.500728398256
      0.8979147743D+01  0.6459668363D+00
      0.3686300237D+01  0.3870057439D+00
 Atom N4       Shell    54 S   1     bf  164 -   164         -3.428056394112         -0.023624409601         -0.500728398256
      0.8466007680D+00  0.1000000000D+01
 Atom N4       Shell    55 S   1     bf  165 -   165         -3.428056394112         -0.023624409601         -0.500728398256
      0.3364713377D+00  0.1000000000D+01
 Atom N4       Shell    56 S   1     bf  166 -   166         -3.428056394112         -0.023624409601         -0.500728398256
      0.1364765367D+00  0.1000000000D+01
 Atom N4       Shell    57 P   4     bf  167 -   169         -3.428056394112         -0.023624409601         -0.500728398256
      0.4920038051D+02  0.1144882510D-01
      0.1134679054D+02  0.7842233797D-01
      0.3427397241D+01  0.3081809474D+00
      0.1178552513D+01  0.7202719637D+00
 Atom N4       Shell    58 P   1     bf  170 -   172         -3.428056394112         -0.023624409601         -0.500728398256
      0.4164220497D+00  0.1000000000D+01
 Atom N4       Shell    59 P   1     bf  173 -   175         -3.428056394112         -0.023624409601         -0.500728398256
      0.1426082601D+00  0.1000000000D+01
 Atom N4       Shell    60 D   1     bf  176 -   180         -3.428056394112         -0.023624409601         -0.500728398256
      0.1654000000D+01  0.1000000000D+01
 Atom N4       Shell    61 D   1     bf  181 -   185         -3.428056394112         -0.023624409601         -0.500728398256
      0.4690000000D+00  0.1000000000D+01
 Atom N4       Shell    62 F   1     bf  186 -   192         -3.428056394112         -0.023624409601         -0.500728398256
      0.1093000000D+01  0.1000000000D+01
 Atom H5       Shell    63 S   3     bf  193 -   193          1.186133603055          5.214920351417          0.581976456083
      0.3406134100D+02  0.2543930721D-01
      0.5123574600D+01  0.1900859489D+00
      0.1164662600D+01  0.8524411301D+00
 Atom H5       Shell    64 S   1     bf  194 -   194          1.186133603055          5.214920351417          0.581976456083
      0.3272304100D+00  0.1000000000D+01
 Atom H5       Shell    65 S   1     bf  195 -   195          1.186133603055          5.214920351417          0.581976456083
      0.1030724100D+00  0.1000000000D+01
 Atom H5       Shell    66 P   1     bf  196 -   198          1.186133603055          5.214920351417          0.581976456083
      0.8000000000D+00  0.1000000000D+01
 Atom O6       Shell    67 S   6     bf  199 -   199          5.874377682485         -0.059802486438         -0.225994791619
      0.2703238263D+05  0.5722733521D-03
      0.4052387139D+04  0.4435323349D-02
      0.9223272271D+03  0.2302010771D-01
      0.2612407099D+03  0.9282249067D-01
      0.8535464135D+02  0.2937850001D+00
      0.3103503524D+02  0.6740160450D+00
 Atom O6       Shell    68 S   2     bf  200 -   200          5.874377682485         -0.059802486438         -0.225994791619
      0.1226086073D+02  0.6383993703D+00
      0.4998707601D+01  0.3953458713D+00
 Atom O6       Shell    69 S   1     bf  201 -   201          5.874377682485         -0.059802486438         -0.225994791619
      0.1170310816D+01  0.1000000000D+01
 Atom O6       Shell    70 S   1     bf  202 -   202          5.874377682485         -0.059802486438         -0.225994791619
      0.4647474099D+00  0.1000000000D+01
 Atom O6       Shell    71 S   1     bf  203 -   203          5.874377682485         -0.059802486438         -0.225994791619
      0.1850453636D+00  0.1000000000D+01
 Atom O6       Shell    72 P   4     bf  204 -   206          5.874377682485         -0.059802486438         -0.225994791619
      0.6327495480D+02  0.1201833222D-01
      0.1462704938D+02  0.8300542179D-01
      0.4450122346D+01  0.3199174393D+00
      0.1527579965D+01  0.7071554292D+00
 Atom O6       Shell    73 P   1     bf  207 -   209          5.874377682485         -0.059802486438         -0.225994791619
      0.5293511794D+00  0.1000000000D+01
 Atom O6       Shell    74 P   1     bf  210 -   212          5.874377682485         -0.059802486438         -0.225994791619
      0.1747842127D+00  0.1000000000D+01
 Atom O6       Shell    75 D   1     bf  213 -   217          5.874377682485         -0.059802486438         -0.225994791619
      0.2314000000D+01  0.1000000000D+01
 Atom O6       Shell    76 D   1     bf  218 -   222          5.874377682485         -0.059802486438         -0.225994791619
      0.6450000000D+00  0.1000000000D+01
 Atom O6       Shell    77 F   1     bf  223 -   229          5.874377682485         -0.059802486438         -0.225994791619
      0.1428000000D+01  0.1000000000D+01
 Atom H7       Shell    78 S   3     bf  230 -   230          6.932277798981          1.410348212501          0.005477132402
      0.3406134100D+02  0.2543930721D-01
      0.5123574600D+01  0.1900859489D+00
      0.1164662600D+01  0.8524411301D+00
 Atom H7       Shell    79 S   1     bf  231 -   231          6.932277798981          1.410348212501          0.005477132402
      0.3272304100D+00  0.1000000000D+01
 Atom H7       Shell    80 S   1     bf  232 -   232          6.932277798981          1.410348212501          0.005477132402
      0.1030724100D+00  0.1000000000D+01
 Atom H7       Shell    81 P   1     bf  233 -   235          6.932277798981          1.410348212501          0.005477132402
      0.8000000000D+00  0.1000000000D+01
 Atom H8       Shell    82 S   3     bf  236 -   236          6.907436755753         -1.524282919283          0.122757940795
      0.3406134100D+02  0.2543930721D-01
      0.5123574600D+01  0.1900859489D+00
      0.1164662600D+01  0.8524411301D+00
 Atom H8       Shell    83 S   1     bf  237 -   237          6.907436755753         -1.524282919283          0.122757940795
      0.3272304100D+00  0.1000000000D+01
 Atom H8       Shell    84 S   1     bf  238 -   238          6.907436755753         -1.524282919283          0.122757940795
      0.1030724100D+00  0.1000000000D+01
 Atom H8       Shell    85 P   1     bf  239 -   241          6.907436755753         -1.524282919283          0.122757940795
      0.8000000000D+00  0.1000000000D+01
 Atom H9       Shell    86 S   3     bf  242 -   242          0.964219859491         -0.877207053503          5.034003851347
      0.3406134100D+02  0.2543930721D-01
      0.5123574600D+01  0.1900859489D+00
      0.1164662600D+01  0.8524411301D+00
 Atom H9       Shell    87 S   1     bf  243 -   243          0.964219859491         -0.877207053503          5.034003851347
      0.3272304100D+00  0.1000000000D+01
 Atom H9       Shell    88 S   1     bf  244 -   244          0.964219859491         -0.877207053503          5.034003851347
      0.1030724100D+00  0.1000000000D+01
 Atom H9       Shell    89 P   1     bf  245 -   247          0.964219859491         -0.877207053503          5.034003851347
      0.8000000000D+00  0.1000000000D+01
 Atom O10      Shell    90 S   6     bf  248 -   248          1.341201204252         -3.600949414641         -0.207113714394
      0.2703238263D+05  0.5722733521D-03
      0.4052387139D+04  0.4435323349D-02
      0.9223272271D+03  0.2302010771D-01
      0.2612407099D+03  0.9282249067D-01
      0.8535464135D+02  0.2937850001D+00
      0.3103503524D+02  0.6740160450D+00
 Atom O10      Shell    91 S   2     bf  249 -   249          1.341201204252         -3.600949414641         -0.207113714394
      0.1226086073D+02  0.6383993703D+00
      0.4998707601D+01  0.3953458713D+00
 Atom O10      Shell    92 S   1     bf  250 -   250          1.341201204252         -3.600949414641         -0.207113714394
      0.1170310816D+01  0.1000000000D+01
 Atom O10      Shell    93 S   1     bf  251 -   251          1.341201204252         -3.600949414641         -0.207113714394
      0.4647474099D+00  0.1000000000D+01
 Atom O10      Shell    94 S   1     bf  252 -   252          1.341201204252         -3.600949414641         -0.207113714394
      0.1850453636D+00  0.1000000000D+01
 Atom O10      Shell    95 P   4     bf  253 -   255          1.341201204252         -3.600949414641         -0.207113714394
      0.6327495480D+02  0.1201833222D-01
      0.1462704938D+02  0.8300542179D-01
      0.4450122346D+01  0.3199174393D+00
      0.1527579965D+01  0.7071554292D+00
 Atom O10      Shell    96 P   1     bf  256 -   258          1.341201204252         -3.600949414641         -0.207113714394
      0.5293511794D+00  0.1000000000D+01
 Atom O10      Shell    97 P   1     bf  259 -   261          1.341201204252         -3.600949414641         -0.207113714394
      0.1747842127D+00  0.1000000000D+01
 Atom O10      Shell    98 D   1     bf  262 -   266          1.341201204252         -3.600949414641         -0.207113714394
      0.2314000000D+01  0.1000000000D+01
 Atom O10      Shell    99 D   1     bf  267 -   271          1.341201204252         -3.600949414641         -0.207113714394
      0.6450000000D+00  0.1000000000D+01
 Atom O10      Shell   100 F   1     bf  272 -   278          1.341201204252         -3.600949414641         -0.207113714394
      0.1428000000D+01  0.1000000000D+01
 Atom S11      Shell   101 S   7     bf  279 -   279         -8.674920736337         -0.004098946494          0.082044437161
      0.6070092810D+05  0.5238007490D-03
      0.9102610685D+04  0.4050632678D-02
      0.2071416601D+04  0.2082700417D-01
      0.5860247682D+03  0.8149685034D-01
      0.1905539502D+03  0.2374911384D+00
      0.6763038426D+02  0.4472617151D+00
      0.2512730691D+02  0.3489191844D+00
 Atom S11      Shell   102 S   3     bf  280 -   280         -8.674920736337         -0.004098946494          0.082044437161
      0.1125746301D+03  0.1004556989D+00
      0.3479555422D+02  0.4339117295D+00
      0.6511555622D+01 -0.1208433059D+01
 Atom S11      Shell   103 S   2     bf  281 -   281         -8.674920736337         -0.004098946494          0.082044437161
      0.3239903226D+01  0.6749812942D+00
      0.1547716088D+01  0.3470879576D+00
 Atom S11      Shell   104 S   1     bf  282 -   282         -8.674920736337         -0.004098946494          0.082044437161
      0.4054103011D+00  0.1000000000D+01
 Atom S11      Shell   105 S   1     bf  283 -   283         -8.674920736337         -0.004098946494          0.082044437161
      0.1455065106D+00  0.1000000000D+01
 Atom S11      Shell   106 P   5     bf  284 -   286         -8.674920736337         -0.004098946494          0.082044437161
      0.5643671603D+03  0.3488692363D-02
      0.1334262438D+03  0.2768512678D-01
      0.4246827119D+02  0.1265940018D+00
      0.1561652758D+02  0.3616592567D+00
      0.6109398847D+01  0.6122203444D+00
 Atom S11      Shell   107 P   1     bf  287 -   289         -8.674920736337         -0.004098946494          0.082044437161
      0.2440416020D+01  0.1000000000D+01
 Atom S11      Shell   108 P   1     bf  290 -   292         -8.674920736337         -0.004098946494          0.082044437161
      0.8388220130D+00  0.1000000000D+01
 Atom S11      Shell   109 P   1     bf  293 -   295         -8.674920736337         -0.004098946494          0.082044437161
      0.3128874690D+00  0.1000000000D+01
 Atom S11      Shell   110 P   1     bf  296 -   298         -8.674920736337         -0.004098946494          0.082044437161
      0.1077010900D+00  0.1000000000D+01
 Atom S11      Shell   111 D   2     bf  299 -   303         -8.674920736337         -0.004098946494          0.082044437161
      0.3756000000D+01  0.1828519746D+00
      0.8120000000D+00  0.9142598730D+00
 Atom S11      Shell   112 D   1     bf  304 -   308         -8.674920736337         -0.004098946494          0.082044437161
      0.2730000000D+00  0.1000000000D+01
 Atom S11      Shell   113 F   1     bf  309 -   315         -8.674920736337         -0.004098946494          0.082044437161
      0.5570000000D+00  0.1000000000D+01
 Atom C12      Shell   114 S   6     bf  316 -   316         -5.641224170945         -0.016184106912         -0.253939451492
      0.1357534968D+05  0.6064550360D-03
      0.2035233368D+04  0.4697908888D-02
      0.4632256236D+03  0.2433247765D-01
      0.1312001960D+03  0.9739996831D-01
      0.4285301589D+02  0.3019558425D+00
      0.1558418577D+02  0.6623360914D+00
 Atom C12      Shell   115 S   2     bf  317 -   317         -5.641224170945         -0.016184106912         -0.253939451492
      0.6206713851D+01  0.6559530854D+00
      0.2576489653D+01  0.3758563329D+00
 Atom C12      Shell   116 S   1     bf  318 -   318         -5.641224170945         -0.016184106912         -0.253939451492
      0.5769633942D+00  0.1000000000D+01
 Atom C12      Shell   117 S   1     bf  319 -   319         -5.641224170945         -0.016184106912         -0.253939451492
      0.2297283136D+00  0.1000000000D+01
 Atom C12      Shell   118 S   1     bf  320 -   320         -5.641224170945         -0.016184106912         -0.253939451492
      0.9516444003D-01  0.1000000000D+01
 Atom C12      Shell   119 P   4     bf  321 -   323         -5.641224170945         -0.016184106912         -0.253939451492
      0.3469723224D+02  0.1132722000D-01
      0.7958262283D+01  0.7616965920D-01
      0.2378082688D+01  0.3019225220D+00
      0.8143320818D+00  0.7278502735D+00
 Atom C12      Shell   120 P   1     bf  324 -   326         -5.641224170945         -0.016184106912         -0.253939451492
      0.2888754725D+00  0.1000000000D+01
 Atom C12      Shell   121 P   1     bf  327 -   329         -5.641224170945         -0.016184106912         -0.253939451492
      0.1005682367D+00  0.1000000000D+01
 Atom C12      Shell   122 D   1     bf  330 -   334         -5.641224170945         -0.016184106912         -0.253939451492
      0.1097000000D+01  0.1000000000D+01
 Atom C12      Shell   123 D   1     bf  335 -   339         -5.641224170945         -0.016184106912         -0.253939451492
      0.3180000000D+00  0.1000000000D+01
 Atom C12      Shell   124 F   1     bf  340 -   346         -5.641224170945         -0.016184106912         -0.253939451492
      0.7610000000D+00  0.1000000000D+01
 Effective core potential in the form of general ECP input:
      1 0
 Pa1-ECP   5 60
 H component
  1
  2        1.0000000        0.00000000    0.00000000
 S-H projection
  1
  2       15.2691737      475.47573283    0.00000000
 P-H projection
  1
  2        9.9577370      207.66485962    0.00000000
 D-H projection
  1
  2        8.9431413      156.67411988    0.00000000
 F-H projection
  1
  2        7.0104666       67.98223685    0.00000000
 G-H projection
  1
  2       12.2010560      -57.63059989    0.00000000
 
 There are   404 symmetry adapted cartesian basis functions of A   symmetry.
 There are   346 symmetry adapted basis functions of A   symmetry.
   346 basis functions,   615 primitive gaussians,   404 cartesian basis functions
    48 alpha electrons       48 beta electrons
       nuclear repulsion energy       673.2929990095 Hartrees.
 IExCor=  404 DFT=T Ex=B Corr=P86 ExCW=0 ScaHFX=  0.000000
 ScaDFX=  1.000000  1.000000  1.000000  1.000000 ScalE2=  1.000000  1.000000
 IRadAn=      5 IRanWt=     -1 IRanGd=            0 ICorTp=0 IEmpDi=  4
 NAtoms=   12 NActive=   12 NUniq=   12 SFac= 1.00D+00 NAtFMM=   60 NAOKFM=F Big=F
 Integral buffers will be    131072 words long.
 Raffenetti 2 integral format.
 Two-electron integral symmetry is turned on.
 Leave Link  301 at Wed Jul  5 10:34:05 2023, MaxMem=  2147483648 cpu:               0.5 elap:               0.1
 (Enter /home/pcmt/gaussian/g16.C.01/g16/l302.exe)
 NPDir=0 NMtPBC=     1 NCelOv=     1 NCel=       1 NClECP=     1 NCelD=      1
         NCelK=      1 NCelE2=     1 NClLst=     1 CellRange=     0.0.
 One-electron integrals computed using PRISM.
 One-electron integral symmetry used in STVInt
   1 Symmetry operations used in ECPInt.
 ECPInt:  NShTT=    7750 NPrTT=   23874 LenC2=    7098 LenP2D=   16112.
 LDataN:  DoStor=T MaxTD1= 9 Len=  602
 NBasis=   346 RedAO= T EigKep=  2.11D-04  NBF=   346
 NBsUse=   346 1.00D-06 EigRej= -1.00D+00 NBFU=   346
 Precomputing XC quadrature grid using
 IXCGrd= 4 IRadAn=           5 IRanWt=          -1 IRanGd=           0 AccXCQ= 0.00D+00.
 Defaulting to unpruned grid for atomic number  91.
 Generated NRdTot=       0 NPtTot=           0 NUsed=           0 NTot=          32
 NSgBfM=   398   398   398   398   398 MxSgAt=    12 MxSgA2=    12.
 Leave Link  302 at Wed Jul  5 10:34:06 2023, MaxMem=  2147483648 cpu:               6.4 elap:               0.9
 (Enter /home/pcmt/gaussian/g16.C.01/g16/l303.exe)
 DipDrv:  MaxL=1.
 Leave Link  303 at Wed Jul  5 10:34:06 2023, MaxMem=  2147483648 cpu:               0.4 elap:               0.1
 (Enter /home/pcmt/gaussian/g16.C.01/g16/l401.exe)
 ExpMin= 2.32D-02 ExpMax= 6.07D+04 ExpMxC= 1.20D+04 IAcc=3 IRadAn=         5 AccDes= 0.00D+00
 Harris functional with IExCor=  404 and IRadAn=       5 diagonalized for initial guess.
 HarFok:  IExCor=  404 AccDes= 0.00D+00 IRadAn=         5 IDoV= 1 UseB2=F ITyADJ=14
 ICtDFT=  3500011 ScaDFX=  1.000000  1.000000  1.000000  1.000000
 Defaulting to unpruned grid for atomic number  91.
 FoFCou: FMM=F IPFlag=           0 FMFlag=      100000 FMFlg1=           0
         NFxFlg=           0 DoJE=T BraDBF=F KetDBF=T FulRan=T
         wScrn=  0.000000 ICntrl=       500 IOpCl=  0 I1Cent=   200000004 NGrid=           0
         NMat0=    1 NMatS0=      1 NMatT0=    0 NMatD0=    1 NMtDS0=    0 NMtDT0=    0
 Petite list used in FoFCou.
 Harris En= -1237.89531207737    
 JPrj=0 DoOrth=F DoCkMO=F.
 Leave Link  401 at Wed Jul  5 10:34:08 2023, MaxMem=  2147483648 cpu:              15.1 elap:               1.9
 (Enter /home/pcmt/gaussian/g16.C.01/g16/l502.exe)
 Keep J ints in memory in canonical form, NReq=1835107366.
 FoFCou: FMM=F IPFlag=           0 FMFlag=           0 FMFlg1=           0
         NFxFlg=           0 DoJE=F BraDBF=F KetDBF=F FulRan=T
         wScrn=  0.000000 ICntrl=       600 IOpCl=  0 I1Cent=           0 NGrid=           0
         NMat0=    1 NMatS0=  60031 NMatT0=    0 NMatD0=    1 NMtDS0=    0 NMtDT0=    0
 Symmetry not used in FoFCou.
 Two-electron integral symmetry not used.
 Closed shell SCF:
 Using DIIS extrapolation, IDIIS=  1040.
 NGot=  2147483648 LenX=   345259780 LenY=   345096123
 Requested convergence on RMS density matrix=1.00D-08 within 100 cycles.
 Requested convergence on MAX density matrix=1.00D-06.
 Requested convergence on             energy=1.00D-06.
 No special actions if energy rises.

 Cycle   1  Pass 1  IDiag  1:
 Defaulting to unpruned grid for atomic number  91.
 Defaulting to unpruned grid for atomic number  91.
 Defaulting to unpruned grid for atomic number  91.
 Defaulting to unpruned grid for atomic number  91.
 Defaulting to unpruned grid for atomic number  91.
 Defaulting to unpruned grid for atomic number  91.
 Defaulting to unpruned grid for atomic number  91.
 Defaulting to unpruned grid for atomic number  91.
 E= -1235.35617173994    
 DIIS: error= 4.39D-02 at cycle   1 NSaved=   1.
 NSaved= 1 IEnMin= 1 EnMin= -1235.35617173994     IErMin= 1 ErrMin= 4.39D-02
 ErrMax= 4.39D-02  0.00D+00 EMaxC= 1.00D-01 BMatC= 1.58D+00 BMatP= 1.58D+00
 IDIUse=3 WtCom= 5.61D-01 WtEn= 4.39D-01
 Coeff-Com:  0.100D+01
 Coeff-En:   0.100D+01
 Coeff:      0.100D+01
 Gap=     0.141 Goal=   None    Shift=    0.000
 GapD=    0.141 DampG=1.000 DampE=0.250 DampFc=0.2500 IDamp=-1.
 Damping current iteration by 2.50D-01
 RMSDP=1.17D-02 MaxDP=1.35D+00              OVMax= 9.92D-01

 Cycle   2  Pass 1  IDiag  1:
 E= -1232.98609455182     Delta-E=        2.370077188119 Rises=F Damp=T
 DIIS: error= 4.51D-02 at cycle   2 NSaved=   2.
 NSaved= 2 IEnMin= 1 EnMin= -1235.35617173994     IErMin= 1 ErrMin= 4.39D-02
 ErrMax= 4.51D-02  0.00D+00 EMaxC= 1.00D-01 BMatC= 1.50D+00 BMatP= 1.58D+00
 IDIUse=3 WtCom= 5.49D-01 WtEn= 4.51D-01
 Coeff-Com:  0.492D+00 0.508D+00
 Coeff-En:   0.743D+00 0.257D+00
 Coeff:      0.605D+00 0.395D+00
 Gap=     0.011 Goal=   None    Shift=    0.000
 RMSDP=1.82D-02 MaxDP=2.14D+00 DE= 2.37D+00 OVMax= 9.52D-01

 Cycle   3  Pass 1  IDiag  1:
 E= -1233.39074863359     Delta-E=       -0.404654081769 Rises=F Damp=F
 DIIS: error= 8.19D-02 at cycle   3 NSaved=   3.
 NSaved= 3 IEnMin= 1 EnMin= -1235.35617173994     IErMin= 1 ErrMin= 4.39D-02
 ErrMax= 8.19D-02  0.00D+00 EMaxC= 1.00D-01 BMatC= 2.59D+00 BMatP= 1.50D+00
 IDIUse=2 WtCom= 0.00D+00 WtEn= 1.00D+00
 EnCoef did     2 forward-backward iterations
 Coeff-En:   0.609D+00 0.205D+00 0.186D+00
 Coeff:      0.609D+00 0.205D+00 0.186D+00
 Gap=    -0.121 Goal=   None    Shift=    0.000
 RMSDP=1.87D-02 MaxDP=2.13D+00 DE=-4.05D-01 OVMax= 9.01D-01

 Cycle   4  Pass 1  IDiag  1:
 E= -1210.62313536974     Delta-E=       22.767613263850 Rises=F Damp=F
 DIIS: error= 3.19D-01 at cycle   4 NSaved=   4.
 NSaved= 4 IEnMin= 1 EnMin= -1235.35617173994     IErMin= 1 ErrMin= 4.39D-02
 ErrMax= 3.19D-01  0.00D+00 EMaxC= 1.00D-01 BMatC= 4.69D+01 BMatP= 1.50D+00
 IDIUse=2 WtCom= 0.00D+00 WtEn= 1.00D+00
 EnCoef did   100 forward-backward iterations
 Coeff-En:   0.699D+00 0.267D-02 0.197D+00 0.102D+00
 Coeff:      0.699D+00 0.267D-02 0.197D+00 0.102D+00
 Gap=    -0.021 Goal=   None    Shift=    0.000
 RMSDP=4.34D-03 MaxDP=2.86D-01 DE= 2.28D+01 OVMax= 9.31D-01

 Cycle   5  Pass 1  IDiag  1:
 E= -1235.71194938462     Delta-E=      -25.088814014874 Rises=F Damp=F
 DIIS: error= 5.51D-02 at cycle   5 NSaved=   5.
 NSaved= 5 IEnMin= 5 EnMin= -1235.71194938462     IErMin= 1 ErrMin= 4.39D-02
 ErrMax= 5.51D-02  0.00D+00 EMaxC= 1.00D-01 BMatC= 1.23D+00 BMatP= 1.50D+00
 IDIUse=3 WtCom= 4.49D-01 WtEn= 5.51D-01
 EnCoef did   100 forward-backward iterations
 Coeff-Com:  0.367D+00 0.199D+00 0.791D-01-0.330D-01 0.388D+00
 Coeff-En:   0.436D+00 0.000D+00 0.586D-02 0.000D+00 0.558D+00
 Coeff:      0.405D+00 0.894D-01 0.388D-01-0.148D-01 0.482D+00
 Gap=     0.124 Goal=   None    Shift=    0.000
 RMSDP=2.12D-03 MaxDP=1.44D-01 DE=-2.51D+01 OVMax= 2.58D-01

 Cycle   6  Pass 1  IDiag  1:
 E= -1236.29673143851     Delta-E=       -0.584782053897 Rises=F Damp=F
 DIIS: error= 1.77D-02 at cycle   6 NSaved=   6.
 NSaved= 6 IEnMin= 6 EnMin= -1236.29673143851     IErMin= 6 ErrMin= 1.77D-02
 ErrMax= 1.77D-02  0.00D+00 EMaxC= 1.00D-01 BMatC= 1.98D-01 BMatP= 1.23D+00
 IDIUse=3 WtCom= 8.23D-01 WtEn= 1.77D-01
 Coeff-Com:  0.141D+00 0.115D+00 0.236D-01-0.201D-01 0.297D+00 0.443D+00
 Coeff-En:   0.000D+00 0.000D+00 0.000D+00 0.000D+00 0.271D+00 0.729D+00
 Coeff:      0.116D+00 0.947D-01 0.194D-01-0.166D-01 0.293D+00 0.494D+00
 Gap=     0.107 Goal=   None    Shift=    0.000
 RMSDP=1.02D-03 MaxDP=4.60D-02 DE=-5.85D-01 OVMax= 1.10D-01

 Cycle   7  Pass 1  IDiag  1:
 E= -1236.42626863459     Delta-E=       -0.129537196071 Rises=F Damp=F
 DIIS: error= 1.02D-02 at cycle   7 NSaved=   7.
 NSaved= 7 IEnMin= 7 EnMin= -1236.42626863459     IErMin= 7 ErrMin= 1.02D-02
 ErrMax= 1.02D-02  0.00D+00 EMaxC= 1.00D-01 BMatC= 5.84D-02 BMatP= 1.98D-01
 IDIUse=3 WtCom= 8.98D-01 WtEn= 1.02D-01
 EnCoef did     4 forward-backward iterations
 Coeff-Com: -0.196D-01 0.503D-01-0.774D-02-0.519D-02 0.140D+00 0.376D+00
 Coeff-Com:  0.467D+00
 Coeff-En:   0.000D+00 0.000D+00 0.000D+00 0.000D+00 0.886D-01 0.205D+00
 Coeff-En:   0.706D+00
 Coeff:     -0.176D-01 0.452D-01-0.695D-02-0.466D-02 0.135D+00 0.358D+00
 Coeff:      0.491D+00
 Gap=     0.075 Goal=   None    Shift=    0.000
 RMSDP=5.13D-04 MaxDP=2.96D-02 DE=-1.30D-01 OVMax= 7.95D-02

 Cycle   8  Pass 1  IDiag  1:
 E= -1236.46929414144     Delta-E=       -0.043025506850 Rises=F Damp=F
 DIIS: error= 2.73D-03 at cycle   8 NSaved=   8.
 NSaved= 8 IEnMin= 8 EnMin= -1236.46929414144     IErMin= 8 ErrMin= 2.73D-03
 ErrMax= 2.73D-03  0.00D+00 EMaxC= 1.00D-01 BMatC= 4.98D-03 BMatP= 5.84D-02
 IDIUse=3 WtCom= 9.73D-01 WtEn= 2.73D-02
 Coeff-Com: -0.188D-01 0.129D-01-0.824D-02-0.103D-02 0.442D-01 0.132D+00
 Coeff-Com:  0.295D+00 0.544D+00
 Coeff-En:   0.000D+00 0.000D+00 0.000D+00 0.000D+00 0.000D+00 0.000D+00
 Coeff-En:   0.886D-01 0.911D+00
 Coeff:     -0.183D-01 0.125D-01-0.802D-02-0.100D-02 0.430D-01 0.128D+00
 Coeff:      0.290D+00 0.554D+00
 Gap=     0.066 Goal=   None    Shift=    0.000
 RMSDP=2.04D-04 MaxDP=1.06D-02 DE=-4.30D-02 OVMax= 2.35D-02

 Cycle   9  Pass 1  IDiag  1:
 E= -1236.47303030518     Delta-E=       -0.003736163748 Rises=F Damp=F
 DIIS: error= 1.90D-03 at cycle   9 NSaved=   9.
 NSaved= 9 IEnMin= 9 EnMin= -1236.47303030518     IErMin= 9 ErrMin= 1.90D-03
 ErrMax= 1.90D-03  0.00D+00 EMaxC= 1.00D-01 BMatC= 1.65D-03 BMatP= 4.98D-03
 IDIUse=3 WtCom= 9.81D-01 WtEn= 1.90D-02
 Coeff-Com: -0.511D-02-0.338D-03-0.298D-02 0.462D-03 0.189D-03 0.531D-02
 Coeff-Com:  0.973D-01 0.420D+00 0.485D+00
 Coeff-En:   0.000D+00 0.000D+00 0.000D+00 0.000D+00 0.000D+00 0.000D+00
 Coeff-En:   0.000D+00 0.169D+00 0.831D+00
 Coeff:     -0.501D-02-0.331D-03-0.293D-02 0.454D-03 0.186D-03 0.521D-02
 Coeff:      0.954D-01 0.415D+00 0.492D+00
 Gap=     0.066 Goal=   None    Shift=    0.000
 RMSDP=1.36D-04 MaxDP=8.08D-03 DE=-3.74D-03 OVMax= 1.55D-02

 Cycle  10  Pass 1  IDiag  1:
 E= -1236.47434518827     Delta-E=       -0.001314883087 Rises=F Damp=F
 DIIS: error= 1.34D-03 at cycle  10 NSaved=  10.
 NSaved=10 IEnMin=10 EnMin= -1236.47434518827     IErMin=10 ErrMin= 1.34D-03
 ErrMax= 1.34D-03  0.00D+00 EMaxC= 1.00D-01 BMatC= 1.28D-03 BMatP= 1.65D-03
 IDIUse=3 WtCom= 9.87D-01 WtEn= 1.34D-02
 Coeff-Com:  0.346D-02-0.638D-02 0.110D-02 0.632D-03-0.136D-01-0.331D-01
 Coeff-Com:  0.374D-02 0.240D+00 0.434D+00 0.370D+00
 Coeff-En:   0.000D+00 0.000D+00 0.000D+00 0.000D+00 0.000D+00 0.000D+00
 Coeff-En:   0.000D+00 0.000D+00 0.156D+00 0.844D+00
 Coeff:      0.341D-02-0.629D-02 0.109D-02 0.623D-03-0.134D-01-0.327D-01
 Coeff:      0.369D-02 0.237D+00 0.430D+00 0.377D+00
 Gap=     0.066 Goal=   None    Shift=    0.000
 RMSDP=1.18D-04 MaxDP=8.10D-03 DE=-1.31D-03 OVMax= 1.37D-02

 Cycle  11  Pass 1  IDiag  1:
 E= -1236.47549166359     Delta-E=       -0.001146475317 Rises=F Damp=F
 DIIS: error= 1.35D-03 at cycle  11 NSaved=  11.
 NSaved=11 IEnMin=11 EnMin= -1236.47549166359     IErMin=10 ErrMin= 1.34D-03
 ErrMax= 1.35D-03  0.00D+00 EMaxC= 1.00D-01 BMatC= 1.30D-03 BMatP= 1.28D-03
 IDIUse=3 WtCom= 9.87D-01 WtEn= 1.34D-02
 Coeff-Com:  0.591D-02-0.738D-02 0.211D-02 0.553D-03-0.146D-01-0.339D-01
 Coeff-Com: -0.431D-02 0.190D+00 0.345D+00 0.303D+00 0.214D+00
 Coeff-En:   0.000D+00 0.000D+00 0.000D+00 0.000D+00 0.000D+00 0.000D+00
 Coeff-En:   0.000D+00 0.000D+00 0.000D+00 0.000D+00 0.100D+01
 Coeff:      0.583D-02-0.728D-02 0.208D-02 0.545D-03-0.144D-01-0.334D-01
 Coeff:     -0.426D-02 0.187D+00 0.340D+00 0.299D+00 0.225D+00
 Gap=     0.064 Goal=   None    Shift=    0.000
 RMSDP=4.50D-05 MaxDP=3.21D-03 DE=-1.15D-03 OVMax= 6.21D-03

 Cycle  12  Pass 1  IDiag  1:
 E= -1236.47558654551     Delta-E=       -0.000094881921 Rises=F Damp=F
 DIIS: error= 1.67D-03 at cycle  12 NSaved=  12.
 NSaved=12 IEnMin=12 EnMin= -1236.47558654551     IErMin=10 ErrMin= 1.34D-03
 ErrMax= 1.67D-03  0.00D+00 EMaxC= 1.00D-01 BMatC= 1.65D-03 BMatP= 1.28D-03
 IDIUse=3 WtCom= 9.87D-01 WtEn= 1.34D-02
 Coeff-Com:  0.374D-02-0.511D-02 0.225D-02 0.299D-03-0.118D-01-0.585D-02
 Coeff-Com:  0.512D-01 0.250D+00 0.303D+00-0.630D-01-0.882D+00 0.136D+01
 Coeff-En:   0.000D+00 0.000D+00 0.000D+00 0.000D+00 0.000D+00 0.000D+00
 Coeff-En:   0.000D+00 0.000D+00 0.000D+00 0.000D+00 0.000D+00 0.100D+01
 Coeff:      0.369D-02-0.504D-02 0.222D-02 0.295D-03-0.117D-01-0.577D-02
 Coeff:      0.505D-01 0.247D+00 0.299D+00-0.622D-01-0.870D+00 0.135D+01
 Gap=     0.066 Goal=   None    Shift=    0.000
 RMSDP=4.83D-05 MaxDP=6.56D-03 DE=-9.49D-05 OVMax= 4.25D-03

 Cycle  13  Pass 1  IDiag  1:
 E= -1236.47576822632     Delta-E=       -0.000181680811 Rises=F Damp=F
 DIIS: error= 1.05D-03 at cycle  13 NSaved=  13.
 NSaved=13 IEnMin=13 EnMin= -1236.47576822632     IErMin=13 ErrMin= 1.05D-03
 ErrMax= 1.05D-03  0.00D+00 EMaxC= 1.00D-01 BMatC= 7.17D-04 BMatP= 1.28D-03
 IDIUse=3 WtCom= 9.90D-01 WtEn= 1.05D-02
 Coeff-Com: -0.409D-02-0.163D-03 0.306D-02 0.130D-03-0.137D-01 0.492D-01
 Coeff-Com:  0.112D+00 0.149D+00-0.311D-01-0.869D+00-0.332D+01 0.311D+01
 Coeff-Com:  0.182D+01
 Coeff-En:   0.000D+00 0.000D+00 0.000D+00 0.000D+00 0.000D+00 0.000D+00
 Coeff-En:   0.000D+00 0.000D+00 0.000D+00 0.000D+00 0.000D+00 0.000D+00
 Coeff-En:   0.100D+01
 Coeff:     -0.405D-02-0.162D-03 0.302D-02 0.128D-03-0.135D-01 0.487D-01
 Coeff:      0.111D+00 0.147D+00-0.308D-01-0.860D+00-0.329D+01 0.308D+01
 Coeff:      0.181D+01
 Gap=     0.070 Goal=   None    Shift=    0.000
 RMSDP=1.68D-04 MaxDP=1.07D-02 DE=-1.82D-04 OVMax= 2.51D-02

 Cycle  14  Pass 1  IDiag  1:
 E= -1236.47671703146     Delta-E=       -0.000948805142 Rises=F Damp=F
 DIIS: error= 7.22D-04 at cycle  14 NSaved=  14.
 NSaved=14 IEnMin=14 EnMin= -1236.47671703146     IErMin=14 ErrMin= 7.22D-04
 ErrMax= 7.22D-04  0.00D+00 EMaxC= 1.00D-01 BMatC= 1.62D-04 BMatP= 7.17D-04
 IDIUse=3 WtCom= 9.93D-01 WtEn= 7.22D-03
 Coeff-Com: -0.142D-02-0.935D-04 0.124D-03-0.394D-04-0.565D-02 0.219D-01
 Coeff-Com:  0.319D-01 0.203D-01-0.611D-01-0.373D+00-0.172D+01 0.131D+01
 Coeff-Com:  0.124D+01 0.531D+00
 Coeff-En:   0.000D+00 0.000D+00 0.000D+00 0.000D+00 0.000D+00 0.000D+00
 Coeff-En:   0.000D+00 0.000D+00 0.000D+00 0.000D+00 0.000D+00 0.000D+00
 Coeff-En:   0.000D+00 0.100D+01
 Coeff:     -0.141D-02-0.929D-04 0.123D-03-0.391D-04-0.561D-02 0.218D-01
 Coeff:      0.316D-01 0.201D-01-0.606D-01-0.370D+00-0.170D+01 0.130D+01
 Coeff:      0.123D+01 0.535D+00
 Gap=     0.060 Goal=   None    Shift=    0.000
 RMSDP=6.48D-05 MaxDP=3.95D-03 DE=-9.49D-04 OVMax= 8.83D-03

 Cycle  15  Pass 1  IDiag  1:
 E= -1236.47664739132     Delta-E=        0.000069640148 Rises=F Damp=F
 DIIS: error= 5.19D-04 at cycle  15 NSaved=  15.
 NSaved=15 IEnMin=14 EnMin= -1236.47671703146     IErMin=15 ErrMin= 5.19D-04
 ErrMax= 5.19D-04  0.00D+00 EMaxC= 1.00D-01 BMatC= 1.83D-04 BMatP= 1.62D-04
 IDIUse=3 WtCom= 9.93D-01 WtEn= 7.22D-03
 Coeff-Com: -0.277D-03 0.240D-03-0.328D-03 0.265D-04-0.259D-02 0.721D-02
 Coeff-Com:  0.109D-01 0.322D-01 0.293D-01-0.925D-01-0.815D+00 0.329D+00
 Coeff-Com:  0.825D+00 0.395D+00 0.282D+00
 Coeff-En:   0.000D+00 0.000D+00 0.000D+00 0.000D+00 0.000D+00 0.000D+00
 Coeff-En:   0.000D+00 0.000D+00 0.000D+00 0.000D+00 0.000D+00 0.000D+00
 Coeff-En:   0.000D+00 0.611D+00 0.389D+00
 Coeff:     -0.275D-03 0.238D-03-0.326D-03 0.263D-04-0.257D-02 0.716D-02
 Coeff:      0.109D-01 0.319D-01 0.291D-01-0.919D-01-0.809D+00 0.326D+00
 Coeff:      0.819D+00 0.397D+00 0.283D+00
 Gap=     0.070 Goal=   None    Shift=    0.000
 RMSDP=9.90D-05 MaxDP=6.62D-03 DE= 6.96D-05 OVMax= 1.52D-02

 Cycle  16  Pass 1  IDiag  1:
 E= -1236.47682785803     Delta-E=       -0.000180466711 Rises=F Damp=F
 DIIS: error= 2.13D-04 at cycle  16 NSaved=  16.
 NSaved=16 IEnMin=16 EnMin= -1236.47682785803     IErMin=16 ErrMin= 2.13D-04
 ErrMax= 2.13D-04  0.00D+00 EMaxC= 1.00D-01 BMatC= 3.90D-05 BMatP= 1.62D-04
 IDIUse=3 WtCom= 9.98D-01 WtEn= 2.13D-03
 EnCoef did     2 forward-backward iterations
 Coeff-Com:  0.397D-04 0.949D-04-0.768D-04 0.857D-05-0.107D-02 0.166D-02
 Coeff-Com:  0.689D-03-0.367D-03 0.104D-02-0.400D-01-0.289D+00 0.120D+00
 Coeff-Com:  0.321D+00 0.213D+00 0.244D+00 0.429D+00
 Coeff-En:   0.000D+00 0.000D+00 0.000D+00 0.000D+00 0.000D+00 0.000D+00
 Coeff-En:   0.000D+00 0.000D+00 0.000D+00 0.000D+00 0.000D+00 0.000D+00
 Coeff-En:   0.000D+00 0.637D-01 0.196D+00 0.740D+00
 Coeff:      0.397D-04 0.947D-04-0.766D-04 0.855D-05-0.107D-02 0.165D-02
 Coeff:      0.688D-03-0.366D-03 0.104D-02-0.400D-01-0.289D+00 0.120D+00
 Coeff:      0.321D+00 0.212D+00 0.244D+00 0.430D+00
 Gap=     0.064 Goal=   None    Shift=    0.000
 RMSDP=3.63D-05 MaxDP=2.42D-03 DE=-1.80D-04 OVMax= 5.43D-03

 Cycle  17  Pass 1  IDiag  1:
 E= -1236.47688202873     Delta-E=       -0.000054170706 Rises=F Damp=F
 DIIS: error= 5.60D-05 at cycle  17 NSaved=  17.
 NSaved=17 IEnMin=17 EnMin= -1236.47688202873     IErMin=17 ErrMin= 5.60D-05
 ErrMax= 5.60D-05  0.00D+00 EMaxC= 1.00D-01 BMatC= 2.28D-06 BMatP= 3.90D-05
 IDIUse=1 WtCom= 1.00D+00 WtEn= 0.00D+00
 Coeff-Com:  0.115D-03-0.152D-04-0.470D-04 0.728D-05-0.195D-03-0.217D-03
 Coeff-Com: -0.135D-02-0.546D-02-0.284D-02-0.157D-01-0.783D-01 0.264D-01
 Coeff-Com:  0.103D+00 0.914D-01 0.136D+00 0.354D+00 0.393D+00
 Coeff:      0.115D-03-0.152D-04-0.470D-04 0.728D-05-0.195D-03-0.217D-03
 Coeff:     -0.135D-02-0.546D-02-0.284D-02-0.157D-01-0.783D-01 0.264D-01
 Coeff:      0.103D+00 0.914D-01 0.136D+00 0.354D+00 0.393D+00
 Gap=     0.063 Goal=   None    Shift=    0.000
 RMSDP=5.22D-06 MaxDP=3.31D-04 DE=-5.42D-05 OVMax= 7.01D-04

 Cycle  18  Pass 1  IDiag  1:
 E= -1236.47688090532     Delta-E=        0.000001123411 Rises=F Damp=F
 DIIS: error= 6.48D-05 at cycle  18 NSaved=  18.
 NSaved=18 IEnMin=17 EnMin= -1236.47688202873     IErMin=17 ErrMin= 5.60D-05
 ErrMax= 6.48D-05  0.00D+00 EMaxC= 1.00D-01 BMatC= 2.63D-06 BMatP= 2.28D-06
 IDIUse=1 WtCom= 1.00D+00 WtEn= 0.00D+00
 Coeff-Com:  0.762D-04-0.417D-05-0.332D-04 0.340D-05 0.256D-04-0.488D-03
 Coeff-Com: -0.108D-02-0.261D-02 0.469D-03-0.320D-02-0.157D-01-0.151D-01
 Coeff-Com:  0.413D-01 0.369D-01 0.473D-01 0.228D+00 0.246D+00 0.438D+00
 Coeff:      0.762D-04-0.417D-05-0.332D-04 0.340D-05 0.256D-04-0.488D-03
 Coeff:     -0.108D-02-0.261D-02 0.469D-03-0.320D-02-0.157D-01-0.151D-01
 Coeff:      0.413D-01 0.369D-01 0.473D-01 0.228D+00 0.246D+00 0.438D+00
 Gap=     0.064 Goal=   None    Shift=    0.000
 RMSDP=5.05D-06 MaxDP=3.31D-04 DE= 1.12D-06 OVMax= 7.25D-04

 Cycle  19  Pass 1  IDiag  1:
 E= -1236.47688330236     Delta-E=       -0.000002397039 Rises=F Damp=F
 DIIS: error= 2.15D-05 at cycle  19 NSaved=  19.
 NSaved=19 IEnMin=19 EnMin= -1236.47688330236     IErMin=19 ErrMin= 2.15D-05
 ErrMax= 2.15D-05  0.00D+00 EMaxC= 1.00D-01 BMatC= 2.51D-07 BMatP= 2.28D-06
 IDIUse=1 WtCom= 1.00D+00 WtEn= 0.00D+00
 Coeff-Com:  0.243D-04 0.101D-04-0.509D-05 0.517D-07 0.317D-04-0.188D-03
 Coeff-Com: -0.343D-03-0.606D-03 0.123D-03-0.842D-04-0.153D-02-0.109D-01
 Coeff-Com:  0.107D-01 0.495D-02-0.637D-02 0.791D-01 0.482D-01 0.191D+00
 Coeff-Com:  0.686D+00
 Coeff:      0.243D-04 0.101D-04-0.509D-05 0.517D-07 0.317D-04-0.188D-03
 Coeff:     -0.343D-03-0.606D-03 0.123D-03-0.842D-04-0.153D-02-0.109D-01
 Coeff:      0.107D-01 0.495D-02-0.637D-02 0.791D-01 0.482D-01 0.191D+00
 Coeff:      0.686D+00
 Gap=     0.064 Goal=   None    Shift=    0.000
 RMSDP=1.57D-06 MaxDP=1.36D-04 DE=-2.40D-06 OVMax= 2.14D-04

 Cycle  20  Pass 1  IDiag  1:
 E= -1236.47688350440     Delta-E=       -0.000000202045 Rises=F Damp=F
 DIIS: error= 4.25D-06 at cycle  20 NSaved=  20.
 NSaved=20 IEnMin=20 EnMin= -1236.47688350440     IErMin=20 ErrMin= 4.25D-06
 ErrMax= 4.25D-06  0.00D+00 EMaxC= 1.00D-01 BMatC= 9.40D-09 BMatP= 2.51D-07
 IDIUse=1 WtCom= 1.00D+00 WtEn= 0.00D+00
 Coeff-Com:  0.408D-05 0.984D-06-0.211D-05-0.124D-06 0.215D-04-0.673D-04
 Coeff-Com: -0.749D-04 0.497D-04 0.196D-03 0.392D-03-0.402D-03-0.445D-02
 Coeff-Com:  0.326D-02-0.551D-03-0.772D-02 0.225D-01 0.254D-02 0.536D-01
 Coeff-Com:  0.295D+00 0.636D+00
 Coeff:      0.408D-05 0.984D-06-0.211D-05-0.124D-06 0.215D-04-0.673D-04
 Coeff:     -0.749D-04 0.497D-04 0.196D-03 0.392D-03-0.402D-03-0.445D-02
 Coeff:      0.326D-02-0.551D-03-0.772D-02 0.225D-01 0.254D-02 0.536D-01
 Coeff:      0.295D+00 0.636D+00
 Gap=     0.064 Goal=   None    Shift=    0.000
 RMSDP=6.27D-07 MaxDP=4.12D-05 DE=-2.02D-07 OVMax= 9.38D-05

 Cycle  21  Pass 1  IDiag  1:
 E= -1236.47688351635     Delta-E=       -0.000000011948 Rises=F Damp=F
 DIIS: error= 9.38D-07 at cycle  21 NSaved=  20.
 NSaved=20 IEnMin=20 EnMin= -1236.47688351635     IErMin=20 ErrMin= 9.38D-07
 ErrMax= 9.38D-07  0.00D+00 EMaxC= 1.00D-01 BMatC= 8.32D-10 BMatP= 9.40D-09
 IDIUse=1 WtCom= 1.00D+00 WtEn= 0.00D+00
 Coeff-Com:  0.427D-06 0.670D-06 0.118D-07 0.406D-05-0.142D-04-0.668D-05
 Coeff-Com:  0.522D-04 0.321D-04 0.848D-04-0.624D-03-0.484D-03 0.937D-03
 Coeff-Com: -0.321D-03-0.208D-02 0.360D-02-0.204D-02 0.102D-01 0.655D-01
 Coeff-Com:  0.302D+00 0.623D+00
 Coeff:      0.427D-06 0.670D-06 0.118D-07 0.406D-05-0.142D-04-0.668D-05
 Coeff:      0.522D-04 0.321D-04 0.848D-04-0.624D-03-0.484D-03 0.937D-03
 Coeff:     -0.321D-03-0.208D-02 0.360D-02-0.204D-02 0.102D-01 0.655D-01
 Coeff:      0.302D+00 0.623D+00
 Gap=     0.064 Goal=   None    Shift=    0.000
 RMSDP=6.42D-08 MaxDP=3.91D-06 DE=-1.19D-08 OVMax= 8.63D-06

 Cycle  22  Pass 1  IDiag  1:
 E= -1236.47688351698     Delta-E=       -0.000000000631 Rises=F Damp=F
 DIIS: error= 4.53D-07 at cycle  22 NSaved=  20.
 NSaved=20 IEnMin=20 EnMin= -1236.47688351698     IErMin=20 ErrMin= 4.53D-07
 ErrMax= 4.53D-07  0.00D+00 EMaxC= 1.00D-01 BMatC= 1.37D-10 BMatP= 8.32D-10
 IDIUse=1 WtCom= 1.00D+00 WtEn= 0.00D+00
 Coeff-Com:  0.102D-07 0.466D-08 0.807D-06-0.316D-05-0.114D-05 0.152D-04
 Coeff-Com: -0.117D-05-0.309D-05-0.303D-03 0.126D-03 0.264D-03-0.132D-04
 Coeff-Com: -0.178D-03 0.339D-03-0.356D-03 0.236D-02 0.114D-01 0.922D-01
 Coeff-Com:  0.247D+00 0.647D+00
 Coeff:      0.102D-07 0.466D-08 0.807D-06-0.316D-05-0.114D-05 0.152D-04
 Coeff:     -0.117D-05-0.309D-05-0.303D-03 0.126D-03 0.264D-03-0.132D-04
 Coeff:     -0.178D-03 0.339D-03-0.356D-03 0.236D-02 0.114D-01 0.922D-01
 Coeff:      0.247D+00 0.647D+00
 Gap=     0.064 Goal=   None    Shift=    0.000
 RMSDP=4.09D-08 MaxDP=3.02D-06 DE=-6.31D-10 OVMax= 5.79D-06

 Cycle  23  Pass 1  IDiag  1:
 E= -1236.47688351709     Delta-E=       -0.000000000109 Rises=F Damp=F
 DIIS: error= 4.82D-08 at cycle  23 NSaved=  20.
 NSaved=20 IEnMin=20 EnMin= -1236.47688351709     IErMin=20 ErrMin= 4.82D-08
 ErrMax= 4.82D-08  0.00D+00 EMaxC= 1.00D-01 BMatC= 1.63D-12 BMatP= 1.37D-10
 IDIUse=1 WtCom= 1.00D+00 WtEn= 0.00D+00
 Coeff-Com: -0.148D-07 0.218D-06-0.104D-05-0.396D-06 0.445D-05-0.253D-06
 Coeff-Com: -0.703D-05-0.113D-03 0.797D-04 0.898D-04 0.305D-04 0.678D-04
 Coeff-Com:  0.195D-04 0.335D-04 0.822D-03 0.257D-02 0.290D-01 0.916D-01
 Coeff-Com:  0.344D+00 0.532D+00
 Coeff:     -0.148D-07 0.218D-06-0.104D-05-0.396D-06 0.445D-05-0.253D-06
 Coeff:     -0.703D-05-0.113D-03 0.797D-04 0.898D-04 0.305D-04 0.678D-04
 Coeff:      0.195D-04 0.335D-04 0.822D-03 0.257D-02 0.290D-01 0.916D-01
 Coeff:      0.344D+00 0.532D+00
 Gap=     0.064 Goal=   None    Shift=    0.000
 RMSDP=3.79D-09 MaxDP=3.39D-07 DE=-1.09D-10 OVMax= 4.71D-07

 SCF Done:  E(RB-P86) =  -1236.47688352     A.U. after   23 cycles
            NFock= 23  Conv=0.38D-08     -V/T= 2.2914
 KE= 9.574383534327D+02 PE=-4.150462010072D+03 EE= 1.283253774113D+03
 Leave Link  502 at Wed Jul  5 10:36:35 2023, MaxMem=  2147483648 cpu:             695.2 elap:             147.1
 (Enter /home/pcmt/gaussian/g16.C.01/g16/l601.exe)
 Copying SCF densities to generalized density rwf, IOpCl= 0 IROHF=0.

[...]
  32         O                -0.474183          2.569238
  33         O                -0.443663          2.428733
  34         O                -0.419368          3.617553
  35         O                -0.391087          2.752555
  36         O                -0.378614          2.287761
  37         O                -0.341401          2.654294
  38         O                -0.325568          2.667573
  39         O                -0.324055          1.629761
  40         O                -0.319859          1.436690
  41         O                -0.306879          1.986156
  42         O                -0.289345          2.365519
  43         O                -0.287257          2.440634
  44         O                -0.282307          5.085710
  45         O                -0.280392          2.686811
  46         O                -0.251960          6.229179
  47         O                -0.190587          2.146145
  48         O                -0.187099          1.985413
  49         V                -0.123214        107.763138
  50         V                -0.112403          5.184269
  51         V                -0.109261          6.289444
  52         V                -0.107481          4.859153
  53         V                -0.100876        101.085231
  54         V                -0.082720         43.085115
  55         V                -0.075997        112.133105
  56         V                -0.063593         15.178842
  57         V                -0.033416          3.380244
  58         V                -0.026959          9.766008
  59         V                -0.021652         10.193569
  60         V                -0.001866          2.742429
  61         V                 0.003114          1.244028
  62         V                 0.009641          1.800969
  63         V                 0.023402          1.575304
  64         V                 0.039774          1.906055
  65         V                 0.051162          1.653330
  66         V                 0.053479          3.102328
  67         V                 0.067002          6.870372
  68         V                 0.077909          1.997328
  69         V                 0.079004          2.393420
  70         V                 0.086382          3.676096
  71         V                 0.114928          7.456287
  72         V                 0.118784          1.776314
  73         V                 0.165720          1.027259
  74         V                 0.187176          1.148589
  75         V                 0.197528          0.854097
  76         V                 0.214085          1.305330
  77         V                 0.222468          0.974133
  78         V                 0.237370          1.651374
  79         V                 0.240339          1.495264
  80         V                 0.247905          1.487627
  81         V                 0.257698          1.380333
  82         V                 0.271017          1.130681
  83         V                 0.280654          1.157190
  84         V                 0.284127          1.459789
  85         V                 0.295602          1.391658
  86         V                 0.301210          1.626436
  87         V                 0.306509          1.401741
  88         V                 0.328911          1.396726
  89         V                 0.339638          2.356053
  90         V                 0.344213          1.180118
  91         V                 0.349175          2.073938
  92         V                 0.373537          1.346894
  93         V                 0.379432          1.453221
  94         V                 0.385214          1.543968
  95         V                 0.397031          1.874639
  96         V                 0.400591          1.710749
  97         V                 0.415658          1.721175
  98         V                 0.427682          1.766831
  99         V                 0.439837          1.814641
 100         V                 0.448505          1.784186
 101         V                 0.464813          1.617766
 102         V                 0.473370          1.490478
 103         V                 0.482205          1.850534
 104         V                 0.487565          1.581321
 105         V                 0.514774          1.852327
 106         V                 0.535654          1.483063
 107         V                 0.544601          2.478253
 108         V                 0.560251          1.652733
 109         V                 0.577006          1.914773
 110         V                 0.592418          1.574047
 111         V                 0.602713          1.502511
 112         V                 0.604261          2.575645
 113         V                 0.627993          1.626767
 114         V                 0.634268          1.654504
 115         V                 0.650779          1.692282
 116         V                 0.657097          1.576580
 117         V                 0.679394          1.597001
 118         V                 0.687278          1.894323
 119         V                 0.702212          1.556699
 120         V                 0.707121          1.535941
 121         V                 0.721882          1.516379
 122         V                 0.734092          1.600609
 123         V                 0.792504          2.023309
 124         V                 0.836499          2.220045
 125         V                 0.852979          2.110796
 126         V                 0.868673          2.185050
 127         V                 0.891415          2.783127
 128         V                 0.921920          3.550485
 129         V                 0.980111          2.263327
 130         V                 0.984522          2.327709
 131         V                 1.030352          2.425940
 132         V                 1.038652          2.563447
 133         V                 1.063768          2.250128
 134         V                 1.068815          2.771656
 135         V                 1.077134          2.688898
 136         V                 1.109659          3.201457
 137         V                 1.118617          2.975480
 138         V                 1.131145          2.815530
 139         V                 1.134046          2.915411
 140         V                 1.146400          2.655175
 141         V                 1.152457          2.743800
 142         V                 1.162084          2.813596
 143         V                 1.182487          2.696047
 144         V                 1.198398          2.863620
 145         V                 1.216278          2.439046
 146         V                 1.229751          2.459621
 147         V                 1.237166          2.887446
 148         V                 1.256790          2.967623
 149         V                 1.266744          2.474672
 150         V                 1.286954          3.037596
 151         V                 1.298182          2.392542
 152         V                 1.317650          2.950566
 153         V                 1.349177          2.539803
 154         V                 1.374432          2.395810
 155         V                 1.406493          3.398537
 156         V                 1.428053          3.055577
 157         V                 1.435267          3.713392
 158         V                 1.435928          3.769583
 159         V                 1.440136          3.301224
 160         V                 1.456023          3.606021
 161         V                 1.462617          3.439943
 162         V                 1.478440          3.563556
 163         V                 1.497788          3.304344
 164         V                 1.501465          3.555417
 165         V                 1.528584          3.485615
 166         V                 1.539387          3.169355
 167         V                 1.573288          3.098628
 168         V                 1.585319          3.552601
 169         V                 1.591048          3.553621
 170         V                 1.615763          3.419591
 171         V                 1.633943          2.525770
 172         V                 1.633972          2.501077
 173         V                 1.635056          3.436516
 174         V                 1.659841          3.083924
 175         V                 1.675724          3.368279
 176         V                 1.691071          3.238820
 177         V                 1.704015          3.584037
 178         V                 1.707829          2.811855
 179         V                 1.716236          2.682779
 180         V                 1.741234          2.994180
 181         V                 1.758587          3.573715
 182         V                 1.779062          4.844758
 183         V                 1.784744          5.010771
 184         V                 1.795862          3.815804
 185         V                 1.818497          3.351006
 186         V                 1.822366          3.816798
 187         V                 1.862514          3.432075
 188         V                 1.877882          3.498309
 189         V                 1.885344          3.703058
 190         V                 1.895044          3.640844
 191         V                 1.914729          3.662643
 192         V                 1.977993          3.306482
 193         V                 1.985658          3.592700
 194         V                 2.010353          3.677611
 195         V                 2.076018          3.885852
 196         V                 2.097080          3.555717
 197         V                 2.105817          3.991146
 198         V                 2.134506          3.733330
 199         V                 2.148221          3.972307
 200         V                 2.160199          4.669767
 201         V                 2.168055          4.395718
 202         V                 2.180709          4.175155
 203         V                 2.231821          4.197369
 204         V                 2.254065          4.298678
 205         V                 2.279487          4.644294
 206         V                 2.293406          5.324337
 207         V                 2.360337          5.199559
 208         V                 2.440609          4.682665
 209         V                 2.456722          4.678749
 210         V                 2.471930          6.309801
 211         V                 2.476256          4.462395
 212         V                 2.499116          5.606741
 213         V                 2.508742          4.920013
 214         V                 2.530245          5.753324
 215         V                 2.591328          6.158421
 216         V                 2.599058          6.594219
 217         V                 2.607238          3.584688
 218         V                 2.608376          3.516204
 219         V                 2.622429          6.459928
 220         V                 2.645253          6.019384
 221         V                 2.663286          5.901124
 222         V                 2.677759          4.867217
 223         V                 2.682254          4.792654
 224         V                 2.739555          6.419349
 225         V                 2.837790          5.325039
 226         V                 2.845240          5.739910
 227         V                 2.855515          4.839911
 228         V                 2.876175          6.045073
 229         V                 2.886222          6.339932
 230         V                 2.905372          4.772259
 231         V                 2.911522          4.320457
 232         V                 2.963887          6.093429
 233         V                 3.018425          6.262445
 234         V                 3.038192          4.909824
 235         V                 3.070323          5.997973
 236         V                 3.195063          7.285171
 237         V                 3.306611          5.684863
 238         V                 3.369496          8.081724
 239         V                 3.481530          6.348599
 240         V                 3.522595          5.731764
 241         V                 3.534163          5.966905
 242         V                 3.604168          7.805407
 243         V                 3.679071          7.082682
 244         V                 3.692831          6.502924
 245         V                 3.696912          7.959912
 246         V                 3.716477          8.326483
 247         V                 3.757862          6.504170
 248         V                 3.814477          9.639718
 249         V                 3.856944          8.870152
 250         V                 3.883270          5.235207
 251         V                 3.887146          5.205094
 252         V                 3.926236          9.110072
 253         V                 3.937970          8.691947
 254         V                 4.050770          9.498526
 255         V                 4.139864          9.596910
 256         V                 4.278987          8.692731
 257         V                 4.306634          7.377750
 258         V                 4.408100          6.029108
 259         V                 4.431013          6.093111
 260         V                 4.515164          6.415445
 261         V                 4.548271          6.609260
 262         V                 4.914120          6.571674
 263         V                 4.985766          6.724338
 264         V                 4.994725          6.486442
 265         V                 5.004826          6.876042
 266         V                 5.011394          6.643880
 267         V                 5.018357          6.630743
 268         V                 5.022607          6.554735
 269         V                 5.034997          6.484704
 270         V                 5.047593          6.531181
 271         V                 5.053352          6.717672
 272         V                 5.092776          6.843536
 273         V                 5.103562          6.636731
 274         V                 5.115826          6.797211
 275         V                 5.127874          6.723133
 276         V                 5.138370          6.746194
 277         V                 5.157542          6.837607
 278         V                 5.173587          6.899629
 279         V                 5.192207          6.849205
 280         V                 5.210281          6.925608
 281         V                 5.224871          6.961745
 282         V                 5.275428          7.009162
 283         V                 5.304200          7.275504
 284         V                 5.307546          7.212378
 285         V                 5.325054          7.465088
 286         V                 5.375717          7.356652
 287         V                 5.427971          7.224702
 288         V                 5.439099          7.302285
 289         V                 5.441494          7.345758
 290         V                 5.636681          8.805163
 291         V                 5.777660          8.521769
 292         V                 5.795572          9.264965
 293         V                 5.994281          9.108458
 294         V                 6.059198          9.092720
 295         V                 6.097434          9.002814
 296         V                 6.144828          9.280834
 297         V                 6.152003          9.341911
 298         V                 6.167633          9.449937
 299         V                 6.182893         10.168784
 300         V                 6.203725         10.559376
 301         V                 6.219584          9.436259
 302         V                 6.227141          9.421272
 303         V                 6.295097          9.461658
 304         V                 6.337699          9.454941
 305         V                 6.397031          9.660868
 306         V                 6.413060          9.607665
 307         V                 6.492136          9.952182
 308         V                 6.575897          9.722998
 309         V                 6.609493          9.693639
 310         V                 6.666030         10.554359
 311         V                 6.703599          9.442241
 312         V                 6.743806         10.116762
 313         V                 6.797831          9.926957
 314         V                 6.822724         10.691499
 315         V                 6.913964          9.840779
 316         V                 6.985229         10.500412
 317         V                 7.252463         13.171442
 318         V                 7.385666         13.973485
 319         V                 7.469393         13.701754
 320         V                 8.121778         15.799076
 321         V                 8.182197         15.821770
 322         V                 8.209925         15.814242
 323         V                 8.659339         16.086901
 324         V                 8.753128         27.833713
 325         V                 8.753714         27.835276
 326         V                 9.001407         16.330435
 327         V                 9.274520         27.997319
 328         V                20.181122         37.511463
 329         V                22.578995         55.118861
 330         V                29.310057         36.029123
 331         V                29.462445         36.335236
 332         V                29.482743         36.190030
 333         V                32.175210         80.220691
 334         V                43.009043        108.494219
 335         V                43.185599        108.546102
 336         V                43.394542        108.747702
 337         V                43.567058        108.912483
 338         V                54.115242         40.000167
 339         V                70.223126         83.947849
 340         V                70.309842         84.119211
 341         V                70.323256         84.122745
 342         V               142.610094        242.426534
 343         V               142.784474        242.644697
 344         V               142.798963        242.661219
 345         V               202.609303        130.097250
 346         V               626.118787       1034.514938
 Total kinetic energy from orbitals= 9.574383534327D+02
 No NMR shielding tensors so no spin-rotation constants.
 Leave Link  601 at Wed Jul  5 10:36:36 2023, MaxMem=  2147483648 cpu:               2.5 elap:               0.3
 (Enter /home/pcmt/gaussian/g16.C.01/g16/l9999.exe)

 Test job not archived.
 1\1\GINC-U-0-9\SP\RBP86\Gen\C1H4N1O4Pa1S1\SHAABAN\05-Jul-2023\0\\#p BP
 86/GEN Pseudo=Read GFInput GFPrint IOP(6/7=3) Symm=(Loose) Int=(UltraF
 ine) Guess=(Harris) Scf=(NoVarAcc,MaxCycle=100,conver=8)\\pao_oh2_ncs_
 h2o-bp86-cosmors-deftzvp-gp.com SGP in PCM calculation\\0,1\Pa,0,-0.61
 74548015,-0.0884829757,0.6259873885\O,0,0.711642005,1.4683779965,0.014
 1050884\O,0,-1.9337325571,0.5335588975,-0.8870627877\N,0,-1.6662879185
 ,1.3703377045,2.2497293692\H,0,-1.9375696979,1.2992715736,-1.478041711
 \O,0,0.3526822702,-1.6534869132,-1.0720311711\H,0,0.2007508193,-1.6196
 57258,-2.0256602784\H,0,1.1495506928,-2.1810707877,-0.9301053651\H,0,1
 .5833283296,1.6767066867,0.3707178226\O,0,0.5295474107,-0.8671226343,1
 .8633441804\S,0,-2.526742925,3.3361520312,4.0384360272\C,0,-2.02862191
 33,2.1997104028,3.0044058093\\Version=ES64L-G16RevC.01\State=1-A\HF=-1
 236.4768835\RMSD=3.791e-09\Dipole=1.2353335,-2.6631776,-3.5507796\Quad
 rupole=0.0402313,0.2552292,-0.2954605,1.8230129,-1.675773,1.4443888\PG
 =C01 [X(C1H4N1O4Pa1S1)]\\@


 We find comfort among those who agree with us -- growth among those who don't.
 -- Frank A. Clark
 Job cpu time:       0 days  0 hours 12 minutes  1.8 seconds.
 Elapsed time:       0 days  0 hours  2 minutes 30.8 seconds.
 File lengths (MBytes):  RWF=     48 Int=      0 D2E=      0 Chk=      8 Scr=      1
 Normal termination of Gaussian 16 at Wed Jul  5 10:36:36 2023.
