 Entering Gaussian System, Link 0=/home/pcmt/gaussian/g16.C.01/g16/g16
 AtFile(1): /home/shaaban/basis.gaussian/Pa-def-TZVP
 AtFile(1): /home/shaaban/basis.gaussian/Pa-ECP60MWB
 Initial command:
 /home/pcmt/gaussian/g16.C.01/g16/l1.exe "/state/partition2/shaaban/973082.phlam-s-sakura/Gau-51488.inp" -scrdir="/state/partition2/shaaban/973082.phlam-s-sakura/"
 Entering Link 1 = /home/pcmt/gaussian/g16.C.01/g16/l1.exe PID=     51489.
  
 Copyright (c) 1988-2019, Gaussian, Inc.  All Rights Reserved.
  
 This is part of the Gaussian(R) 16 program.  It is based on
 the Gaussian(R) 09 system (copyright 2009, Gaussian, Inc.),
 the Gaussian(R) 03 system (copyright 2003, Gaussian, Inc.),
 the Gaussian(R) 98 system (copyright 1998, Gaussian, Inc.),
 the Gaussian(R) 94 system (copyright 1995, Gaussian, Inc.),
 the Gaussian 92(TM) system (copyright 1992, Gaussian, Inc.),
 the Gaussian 90(TM) system (copyright 1990, Gaussian, Inc.),
 the Gaussian 88(TM) system (copyright 1988, Gaussian, Inc.),
 the Gaussian 86(TM) system (copyright 1986, Carnegie Mellon
 University), and the Gaussian 82(TM) system (copyright 1983,
 Carnegie Mellon University). Gaussian is a federally registered
 trademark of Gaussian, Inc.
  
 This software contains proprietary and confidential information,
 including trade secrets, belonging to Gaussian, Inc.
  
 This software is provided under written license and may be
 used, copied, transmitted, or stored only in accord with that
 written license.
  
 The following legend is applicable only to US Government
 contracts under FAR:
  
                    RESTRICTED RIGHTS LEGEND
  
 Use, reproduction and disclosure by the US Government is
 subject to restrictions as set forth in subparagraphs (a)
 and (c) of the Commercial Computer Software - Restricted
 Rights clause in FAR 52.227-19.
  
 Gaussian, Inc.
 340 Quinnipiac St., Bldg. 40, Wallingford CT 06492
  
  
 ---------------------------------------------------------------
 Warning -- This program may not be used in any manner that
 competes with the business of Gaussian, Inc. or will provide
 assistance to any competitor of Gaussian, Inc.  The licensee
 of this program is prohibited from giving any competitor of
 Gaussian, Inc. access to this program.  By using this program,
 the user acknowledges that Gaussian, Inc. is engaged in the
 business of creating and licensing software in the field of
 computational chemistry and represents and warrants to the
 licensee that it is not a competitor of Gaussian, Inc. and that
 it will not use this program in any manner prohibited above.
 ---------------------------------------------------------------
  

 Cite this work as:
 Gaussian 16, Revision C.01,
 M. J. Frisch, G. W. Trucks, H. B. Schlegel, G. E. Scuseria, 
 M. A. Robb, J. R. Cheeseman, G. Scalmani, V. Barone, 
 G. A. Petersson, H. Nakatsuji, X. Li, M. Caricato, A. V. Marenich, 
 J. Bloino, B. G. Janesko, R. Gomperts, B. Mennucci, H. P. Hratchian, 
 J. V. Ortiz, A. F. Izmaylov, J. L. Sonnenberg, D. Williams-Young, 
 F. Ding, F. Lipparini, F. Egidi, J. Goings, B. Peng, A. Petrone, 
 T. Henderson, D. Ranasinghe, V. G. Zakrzewski, J. Gao, N. Rega, 
 G. Zheng, W. Liang, M. Hada, M. Ehara, K. Toyota, R. Fukuda, 
 J. Hasegawa, M. Ishida, T. Nakajima, Y. Honda, O. Kitao, H. Nakai, 
 T. Vreven, K. Throssell, J. A. Montgomery, Jr., J. E. Peralta, 
 F. Ogliaro, M. J. Bearpark, J. J. Heyd, E. N. Brothers, K. N. Kudin, 
 V. N. Staroverov, T. A. Keith, R. Kobayashi, J. Normand, 
 K. Raghavachari, A. P. Rendell, J. C. Burant, S. S. Iyengar, 
 J. Tomasi, M. Cossi, J. M. Millam, M. Klene, C. Adamo, R. Cammi, 
 J. W. Ochterski, R. L. Martin, K. Morokuma, O. Farkas, 
 J. B. Foresman, and D. J. Fox, Gaussian, Inc., Wallingford CT, 2019.
 
 ******************************************
 Gaussian 16:  ES64L-G16RevC.01  3-Jul-2019
                 5-Jul-2023 
 ******************************************
 %mem=16Gb
 %NProc=8
 Will use up to    8 processors via shared memory.
 %chk=pao_oh2_ncs_h2o-bp86-cosmors-deftzvp-klamt.chk
 ----------------------------------------------------------------------
 #p BP86/GEN Pseudo=Read GFInput GFPrint IOP(6/7=3) Symm=(Loose) Int=(U
 ltraFine) Guess=(Harris) SCRF=(COSMORS) Scf=(NoVarAcc,MaxCycle=100,con
 ver=8)
 ----------------------------------------------------------------------
 1/38=1,172=1/1;
 2/12=2,17=4,18=3,40=1/2;
 3/5=7,11=2,16=1,17=8,24=110,25=1,30=1,70=12101,74=404,75=-5/1,2,3;
 4/11=8/1;
 5/5=2,6=8,7=100,38=1/2;
 6/7=3,8=2,9=2,10=2,28=1/1;
 99/5=1,9=1/99;
 Leave Link    1 at Wed Jul  5 10:34:05 2023, MaxMem=  2147483648 cpu:               0.6 elap:               0.1
 (Enter /home/pcmt/gaussian/g16.C.01/g16/l101.exe)
 ---------------------------------------------------------------------
 pao_oh2_ncs_h2o-bp86-cosmors-deftzvp-klamt.com SGP in PCM calculation
 ---------------------------------------------------------------------
 Symbolic Z-matrix:
 Charge =  0 Multiplicity = 1
 Pa                   -0.61745  -0.08848   0.62599 
 O                     0.71164   1.46838   0.01411 
 O                    -1.93373   0.53356  -0.88706 
 N                    -1.66629   1.37034   2.24973 
 H                    -1.93757   1.29927  -1.47804 
 O                     0.35268  -1.65349  -1.07203 
 H                     0.20075  -1.61966  -2.02566 
 H                     1.14955  -2.18107  -0.93011 
 H                     1.58333   1.67671   0.37072 
 O                     0.52955  -0.86712   1.86334 
 S                    -2.52674   3.33615   4.03844 
 C                    -2.02862   2.19971   3.00441 
 
 ITRead=  0  0  0  0  0  0  0  0  0  0  0  0
 MicOpt= -1 -1 -1 -1 -1 -1 -1 -1 -1 -1 -1 -1
 NAtoms=     12 NQM=       12 NQMF=       0 NMMI=      0 NMMIF=      0
                NMic=       0 NMicF=      0.
                    Isotopes and Nuclear Properties:
 (Nuclear quadrupole moments (NQMom) in fm**2, nuclear magnetic moments (NMagM)
  in nuclear magnetons)

  Atom         1           2           3           4           5           6           7           8           9          10
 IAtWgt=         231          16          16          14           1          16           1           1           1          16
 AtmWgt= 231.0359000  15.9949146  15.9949146  14.0030740   1.0078250  15.9949146   1.0078250   1.0078250   1.0078250  15.9949146
 NucSpn=           3           0           0           2           1           0           1           1           1           0
 AtZEff=  -0.0000000  -0.0000000  -0.0000000  -0.0000000  -0.0000000  -0.0000000  -0.0000000  -0.0000000  -0.0000000  -0.0000000
 NQMom= -172.0000000   0.0000000   0.0000000   2.0440000   0.0000000   0.0000000   0.0000000   0.0000000   0.0000000   0.0000000
 NMagM=    2.0100000   0.0000000   0.0000000   0.4037610   2.7928460   0.0000000   2.7928460   2.7928460   2.7928460   0.0000000
 AtZNuc=  91.0000000   8.0000000   8.0000000   7.0000000   1.0000000   8.0000000   1.0000000   1.0000000   1.0000000   8.0000000

  Atom        11          12
 IAtWgt=          32          12
 AtmWgt=  31.9720718  12.0000000
 NucSpn=           0           0
 AtZEff=  -0.0000000  -0.0000000
 NQMom=    0.0000000   0.0000000
 NMagM=    0.0000000   0.0000000
 AtZNuc=  16.0000000   6.0000000
 Leave Link  101 at Wed Jul  5 10:34:05 2023, MaxMem=  2147483648 cpu:               1.3 elap:               0.2
 (Enter /home/pcmt/gaussian/g16.C.01/g16/l202.exe)
                          Input orientation:                          
 ---------------------------------------------------------------------
 Center     Atomic      Atomic             Coordinates (Angstroms)
 Number     Number       Type             X           Y           Z
 ---------------------------------------------------------------------
      1         91           0       -0.617455   -0.088483    0.625987
      2          8           0        0.711642    1.468378    0.014105
      3          8           0       -1.933733    0.533559   -0.887063
      4          7           0       -1.666288    1.370338    2.249729
      5          1           0       -1.937570    1.299272   -1.478042
      6          8           0        0.352682   -1.653487   -1.072031
      7          1           0        0.200751   -1.619657   -2.025660
      8          1           0        1.149551   -2.181071   -0.930105
      9          1           0        1.583328    1.676707    0.370718
     10          8           0        0.529547   -0.867123    1.863344
     11         16           0       -2.526743    3.336152    4.038436
     12          6           0       -2.028622    2.199710    3.004406
 ---------------------------------------------------------------------
                    Distance matrix (angstroms):
                    1          2          3          4          5
     1  Pa   0.000000
     2  O    2.136519   0.000000
     3  O    2.099725   2.946862   0.000000
     4  N    2.421724   3.265299   3.257482   0.000000
     5  H    2.845260   3.045229   0.967257   3.738305   0.000000
     6  O    2.504730   3.324844   3.169397   4.924820   3.758840
     7  H    3.169415   3.735989   3.238636   5.541197   3.659569
     8  H    3.150025   3.794967   4.108248   5.536497   4.684371
     9  H    2.832755   0.964578   3.906215   3.766238   3.994633
    10  O    1.858210   2.984528   3.948974   3.158673   4.684527
    11  S    5.197914   5.492810   5.697958   2.793614   5.909952
    12  C    3.589442   4.121382   4.234217   1.178423   4.572900
                    6          7          8          9         10
     6  O    0.000000
     7  H    0.966248   0.000000
     8  H    0.966171   1.554235   0.000000
     9  H    3.832258   4.303506   4.094234   0.000000
    10  O    3.044023   3.974767   3.148686   3.132005   0.000000
    11  S    7.700939   8.292921   8.285004   5.753138   5.633778
    12  C    6.093856   6.697704   6.691218   4.500670   4.153519
                   11         12
    11  S    0.000000
    12  C    1.615191   0.000000
 Stoichiometry    CH4NO4PaS
 Framework group  C1[X(CH4NO4PaS)]
 Deg. of freedom    30
 Full point group                 C1      NOp   1
 Largest Abelian subgroup         C1      NOp   1
 Largest concise Abelian subgroup C1      NOp   1
                         Standard orientation:                         
 ---------------------------------------------------------------------
 Center     Atomic      Atomic             Coordinates (Angstroms)
 Number     Number       Type             X           Y           Z
 ---------------------------------------------------------------------
      1         91           0        0.603989   -0.050543   -0.136942
      2          8           0        0.544130    0.217100    1.981902
      3          8           0        0.716821    2.037319   -0.329154
      4          7           0       -1.814049   -0.012501   -0.264974
      5          1           0        0.627675    2.759617    0.307969
      6          8           0        3.108587   -0.031646   -0.119591
      7          1           0        3.668403    0.746324    0.002898
      8          1           0        3.655258   -0.806616    0.064961
      9          1           0        0.510243   -0.464198    2.663880
     10          8           0        0.709733   -1.905540   -0.109600
     11         16           0       -4.590570   -0.002169    0.043416
     12          6           0       -2.985207   -0.008564   -0.134379
 ---------------------------------------------------------------------
 Rotational constants (GHZ):           2.3793096           0.4244715           0.4049635
 Leave Link  202 at Wed Jul  5 10:34:05 2023, MaxMem=  2147483648 cpu:               0.1 elap:               0.1
 (Enter /home/pcmt/gaussian/g16.C.01/g16/l301.exe)
 General basis read from cards:  (5D, 7F)
 Centers:       1
 S 3 1.00
     Exponent=  1.2047376000D+04 Coefficients=  3.4500000000D-04
     Exponent=  1.8116841000D+03 Coefficients=  2.7420000000D-03
     Exponent=  3.4770104000D+02 Coefficients=  1.0053000000D-02
 S 1 1.00
     Exponent=  9.8678010000D+01 Coefficients=  1.0000000000D+00
 S 3 1.00
     Exponent=  5.7507376000D+01 Coefficients=  5.1528000000D-02
     Exponent=  3.3502601000D+01 Coefficients= -2.3692400000D-01
     Exponent=  1.9554451000D+01 Coefficients=  7.1904800000D-01
 S 1 1.00
     Exponent=  9.7164210000D+00 Coefficients=  1.0000000000D+00
 S 1 1.00
     Exponent=  2.6920960000D+00 Coefficients=  1.0000000000D+00
 S 1 1.00
     Exponent=  1.4538470000D+00 Coefficients=  1.0000000000D+00
 S 1 1.00
     Exponent=  5.7435200000D-01 Coefficients=  1.0000000000D+00
 S 1 1.00
     Exponent=  2.6346800000D-01 Coefficients=  1.0000000000D+00
 S 1 1.00
     Exponent=  5.6557000000D-02 Coefficients=  1.0000000000D+00
 S 1 1.00
     Exponent=  2.3169000000D-02 Coefficients=  1.0000000000D+00
 P 5 1.00
     Exponent=  2.9033676000D+03 Coefficients=  3.5000000000D-05
     Exponent=  6.4486356000D+02 Coefficients=  2.0500000000D-04
     Exponent=  2.2025896000D+02 Coefficients=  1.2510000000D-03
     Exponent=  8.0276401000D+01 Coefficients=  2.4570000000D-03
     Exponent=  2.4080211000D+01 Coefficients=  1.1190000000D-02
 P 1 1.00
     Exponent=  1.4077580000D+01 Coefficients=  1.0000000000D+00
 P 1 1.00
     Exponent=  8.2658460000D+00 Coefficients=  1.0000000000D+00
 P 1 1.00
     Exponent=  3.5948000000D+00 Coefficients=  1.0000000000D+00
 P 1 1.00
     Exponent=  1.7531110000D+00 Coefficients=  1.0000000000D+00
 P 1 1.00
     Exponent=  6.5776700000D-01 Coefficients=  1.0000000000D+00
 P 1 1.00
     Exponent=  2.8463900000D-01 Coefficients=  1.0000000000D+00
 P 1 1.00
     Exponent=  1.0054300000D-01 Coefficients=  1.0000000000D+00
 P 1 1.00
     Exponent=  3.0190000000D-02 Coefficients=  1.0000000000D+00
 D 6 1.00
     Exponent=  4.4814991000D+02 Coefficients=  2.6000000000D-05
     Exponent=  1.5446145000D+02 Coefficients=  2.2800000000D-04
     Exponent=  6.0925377000D+01 Coefficients=  9.0400000000D-04
     Exponent=  1.7032091000D+01 Coefficients=  2.5647000000D-02
     Exponent=  1.0018877000D+01 Coefficients= -1.0575100000D-01
     Exponent=  3.4091930000D+00 Coefficients=  4.4743200000D-01
 D 1 1.00
     Exponent=  1.6702130000D+00 Coefficients=  1.0000000000D+00
 D 1 1.00
     Exponent=  7.4109500000D-01 Coefficients=  1.0000000000D+00
 D 1 1.00
     Exponent=  2.6139300000D-01 Coefficients=  1.0000000000D+00
 D 1 1.00
     Exponent=  8.2811000000D-02 Coefficients=  1.0000000000D+00
 F 5 1.00
     Exponent=  8.7991327000D+01 Coefficients=  2.2600000000D-04
     Exponent=  2.8340195000D+01 Coefficients=  2.3230000000D-03
     Exponent=  1.2440994000D+01 Coefficients=  4.5850000000D-03
     Exponent=  3.9572960000D+00 Coefficients=  1.5696100000D-01
     Exponent=  1.8759440000D+00 Coefficients=  3.4497700000D-01
 F 1 1.00
     Exponent=  8.2758900000D-01 Coefficients=  1.0000000000D+00
 F 1 1.00
     Exponent=  3.3274800000D-01 Coefficients=  1.0000000000D+00
 F 1 1.00
     Exponent=  1.1468500000D-01 Coefficients=  1.0000000000D+00
 G 1 1.00
     Exponent=  3.5000000000D-01 Coefficients=  1.0000000000D+00
 ****
 Centers:       2      3      6     10
 Def2TZVP
 ****
 Centers:       5      7      8      9
 Def2TZVP
 ****
 Centers:      11
 Def2TZVP
 ****
 Centers:      12
 Def2TZVP
 ****
 Centers:       4
 Def2TZVP
 ****
 ======================================================================================================
                                       Pseudopotential Parameters
 ======================================================================================================
  Center     Atomic      Valence      Angular      Power
  Number     Number     Electrons     Momentum     of R      Exponent        Coefficient   SO-Coeffient
 ======================================================================================================
    1         91           31
                                      H and up 
                                                     2        1.0000000        0.00000000    0.00000000
                                      S - H
                                                     2       15.2691737      475.47573283    0.00000000
                                      P - H
                                                     2        9.9577370      207.66485962    0.00000000
                                      D - H
                                                     2        8.9431413      156.67411988    0.00000000
                                      F - H
                                                     2        7.0104666       67.98223685    0.00000000
                                      G - H
                                                     2       12.2010560      -57.63059989    0.00000000
    2          8
                                   No pseudopotential on this center.
    3          8
                                   No pseudopotential on this center.
    4          7
                                   No pseudopotential on this center.
    5          1
                                   No pseudopotential on this center.
    6          8
                                   No pseudopotential on this center.
    7          1
                                   No pseudopotential on this center.
    8          1
                                   No pseudopotential on this center.
    9          1
                                   No pseudopotential on this center.
   10          8
                                   No pseudopotential on this center.
   11         16
                                   No pseudopotential on this center.
   12          6
                                   No pseudopotential on this center.
 ======================================================================================================
 Ernie: Thresh=  0.10000D-02 Tol=  0.10000D-05 Strict=F.
 AO basis set in the form of general basis input (Overlap normalization):
      1 0
 S   3 1.00       0.000000000000
      0.1204737600D+05  0.2857094961D-01
      0.1811684100D+04  0.2270769386D+00
      0.3477010400D+03  0.8325326273D+00
 S   3 1.00       0.000000000000
      0.5750737600D+02  0.9569327984D-01
      0.3350260100D+02 -0.4399944619D+00
      0.1955445100D+02  0.1335352847D+01
 S   1 1.00       0.000000000000
      0.9867801000D+02  0.1000000000D+01
 S   1 1.00       0.000000000000
      0.9716421000D+01  0.1000000000D+01
 S   1 1.00       0.000000000000
      0.2692096000D+01  0.1000000000D+01
 S   1 1.00       0.000000000000
      0.1453847000D+01  0.1000000000D+01
 S   1 1.00       0.000000000000
      0.5743520000D+00  0.1000000000D+01
 S   1 1.00       0.000000000000
      0.2634680000D+00  0.1000000000D+01
 S   1 1.00       0.000000000000
      0.5655700000D-01  0.1000000000D+01
 S   1 1.00       0.000000000000
      0.2316900000D-01  0.1000000000D+01
 P   5 1.00       0.000000000000
      0.2903367600D+04  0.2594222647D-02
      0.6448635600D+03  0.1519473264D-01
      0.2202589600D+03  0.9272492945D-01
      0.8027640100D+02  0.1821144298D+00
      0.2408021100D+02  0.8294100404D+00
 P   1 1.00       0.000000000000
      0.1407758000D+02  0.1000000000D+01
 P   1 1.00       0.000000000000
      0.8265846000D+01  0.1000000000D+01
 P   1 1.00       0.000000000000
      0.3594800000D+01  0.1000000000D+01
 P   1 1.00       0.000000000000
      0.1753111000D+01  0.1000000000D+01
 P   1 1.00       0.000000000000
      0.6577670000D+00  0.1000000000D+01
 P   1 1.00       0.000000000000
      0.2846390000D+00  0.1000000000D+01
 P   1 1.00       0.000000000000
      0.1005430000D+00  0.1000000000D+01
 P   1 1.00       0.000000000000
      0.3019000000D-01  0.1000000000D+01
 D   6 1.00       0.000000000000
      0.4481499100D+03  0.6556927566D-04
      0.1544614500D+03  0.5749921096D-03
      0.6092537700D+02  0.2279793277D-02
      0.1703209100D+02  0.6467904664D-01
      0.1001887700D+02 -0.2666929411D+00
      0.3409193000D+01  0.1128376621D+01
 D   1 1.00       0.000000000000
      0.1670213000D+01  0.1000000000D+01
 D   1 1.00       0.000000000000
      0.7410950000D+00  0.1000000000D+01
 D   1 1.00       0.000000000000
      0.2613930000D+00  0.1000000000D+01
 D   1 1.00       0.000000000000
      0.8281100000D-01  0.1000000000D+01
 F   5 1.00       0.000000000000
      0.8799132700D+02  0.4766318191D-03
      0.2834019500D+02  0.4899184583D-02
      0.1244099400D+02  0.9669720755D-02
      0.3957296000D+01  0.3310292343D+00
      0.1875944000D+01  0.7275531640D+00
 F   1 1.00       0.000000000000
      0.8275890000D+00  0.1000000000D+01
 F   1 1.00       0.000000000000
      0.3327480000D+00  0.1000000000D+01
 F   1 1.00       0.000000000000
      0.1146850000D+00  0.1000000000D+01
 G   1 1.00       0.000000000000
      0.3500000000D+00  0.1000000000D+01
 ****
      2 0
 S   6 1.00       0.000000000000
      0.2703238263D+05  0.5722733521D-03
      0.4052387139D+04  0.4435323349D-02
      0.9223272271D+03  0.2302010771D-01
      0.2612407099D+03  0.9282249067D-01
      0.8535464135D+02  0.2937850001D+00
      0.3103503524D+02  0.6740160450D+00
 S   2 1.00       0.000000000000
      0.1226086073D+02  0.6383993703D+00
      0.4998707601D+01  0.3953458713D+00
 S   1 1.00       0.000000000000
      0.1170310816D+01  0.1000000000D+01
 S   1 1.00       0.000000000000
      0.4647474099D+00  0.1000000000D+01
 S   1 1.00       0.000000000000
      0.1850453636D+00  0.1000000000D+01
 P   4 1.00       0.000000000000
      0.6327495480D+02  0.1201833222D-01
      0.1462704938D+02  0.8300542179D-01
      0.4450122346D+01  0.3199174393D+00
      0.1527579965D+01  0.7071554292D+00
 P   1 1.00       0.000000000000
      0.5293511794D+00  0.1000000000D+01
 P   1 1.00       0.000000000000
      0.1747842127D+00  0.1000000000D+01
 D   1 1.00       0.000000000000
      0.2314000000D+01  0.1000000000D+01
 D   1 1.00       0.000000000000
      0.6450000000D+00  0.1000000000D+01
 F   1 1.00       0.000000000000
      0.1428000000D+01  0.1000000000D+01
 ****
      3 0
 S   6 1.00       0.000000000000
      0.2703238263D+05  0.5722733521D-03
      0.4052387139D+04  0.4435323349D-02
      0.9223272271D+03  0.2302010771D-01
      0.2612407099D+03  0.9282249067D-01
      0.8535464135D+02  0.2937850001D+00
      0.3103503524D+02  0.6740160450D+00
 S   2 1.00       0.000000000000
      0.1226086073D+02  0.6383993703D+00
      0.4998707601D+01  0.3953458713D+00
 S   1 1.00       0.000000000000
      0.1170310816D+01  0.1000000000D+01
 S   1 1.00       0.000000000000
      0.4647474099D+00  0.1000000000D+01
 S   1 1.00       0.000000000000
      0.1850453636D+00  0.1000000000D+01
 P   4 1.00       0.000000000000
      0.6327495480D+02  0.1201833222D-01
      0.1462704938D+02  0.8300542179D-01
      0.4450122346D+01  0.3199174393D+00
      0.1527579965D+01  0.7071554292D+00
 P   1 1.00       0.000000000000
      0.5293511794D+00  0.1000000000D+01
 P   1 1.00       0.000000000000
      0.1747842127D+00  0.1000000000D+01
 D   1 1.00       0.000000000000
      0.2314000000D+01  0.1000000000D+01
 D   1 1.00       0.000000000000
      0.6450000000D+00  0.1000000000D+01
 F   1 1.00       0.000000000000
      0.1428000000D+01  0.1000000000D+01
 ****
      4 0
 S   6 1.00       0.000000000000
      0.1973080065D+05  0.5862640263D-03
      0.2957895874D+04  0.4542882059D-02
      0.6732213360D+03  0.2355841345D-01
      0.1906824949D+03  0.9470919329D-01
      0.6229544190D+02  0.2971978491D+00
      0.2265416118D+02  0.6691624690D+00
 S   2 1.00       0.000000000000
      0.8979147743D+01  0.6459668363D+00
      0.3686300237D+01  0.3870057439D+00
 S   1 1.00       0.000000000000
      0.8466007680D+00  0.1000000000D+01
 S   1 1.00       0.000000000000
      0.3364713377D+00  0.1000000000D+01
 S   1 1.00       0.000000000000
      0.1364765367D+00  0.1000000000D+01
 P   4 1.00       0.000000000000
      0.4920038051D+02  0.1144882510D-01
      0.1134679054D+02  0.7842233797D-01
      0.3427397241D+01  0.3081809474D+00
      0.1178552513D+01  0.7202719637D+00
 P   1 1.00       0.000000000000
      0.4164220497D+00  0.1000000000D+01
 P   1 1.00       0.000000000000
      0.1426082601D+00  0.1000000000D+01
 D   1 1.00       0.000000000000
      0.1654000000D+01  0.1000000000D+01
 D   1 1.00       0.000000000000
      0.4690000000D+00  0.1000000000D+01
 F   1 1.00       0.000000000000
      0.1093000000D+01  0.1000000000D+01
 ****
      5 0
 S   3 1.00       0.000000000000
      0.3406134100D+02  0.2543930721D-01
      0.5123574600D+01  0.1900859489D+00
      0.1164662600D+01  0.8524411301D+00
 S   1 1.00       0.000000000000
      0.3272304100D+00  0.1000000000D+01
 S   1 1.00       0.000000000000
      0.1030724100D+00  0.1000000000D+01
 P   1 1.00       0.000000000000
      0.8000000000D+00  0.1000000000D+01
 ****
      6 0
 S   6 1.00       0.000000000000
      0.2703238263D+05  0.5722733521D-03
      0.4052387139D+04  0.4435323349D-02
      0.9223272271D+03  0.2302010771D-01
      0.2612407099D+03  0.9282249067D-01
      0.8535464135D+02  0.2937850001D+00
      0.3103503524D+02  0.6740160450D+00
 S   2 1.00       0.000000000000
      0.1226086073D+02  0.6383993703D+00
      0.4998707601D+01  0.3953458713D+00
 S   1 1.00       0.000000000000
      0.1170310816D+01  0.1000000000D+01
 S   1 1.00       0.000000000000
      0.4647474099D+00  0.1000000000D+01
 S   1 1.00       0.000000000000
      0.1850453636D+00  0.1000000000D+01
 P   4 1.00       0.000000000000
      0.6327495480D+02  0.1201833222D-01
      0.1462704938D+02  0.8300542179D-01
      0.4450122346D+01  0.3199174393D+00
      0.1527579965D+01  0.7071554292D+00
 P   1 1.00       0.000000000000
      0.5293511794D+00  0.1000000000D+01
 P   1 1.00       0.000000000000
      0.1747842127D+00  0.1000000000D+01
 D   1 1.00       0.000000000000
      0.2314000000D+01  0.1000000000D+01
 D   1 1.00       0.000000000000
      0.6450000000D+00  0.1000000000D+01
 F   1 1.00       0.000000000000
      0.1428000000D+01  0.1000000000D+01
 ****
      7 0
 S   3 1.00       0.000000000000
      0.3406134100D+02  0.2543930721D-01
      0.5123574600D+01  0.1900859489D+00
      0.1164662600D+01  0.8524411301D+00
 S   1 1.00       0.000000000000
      0.3272304100D+00  0.1000000000D+01
 S   1 1.00       0.000000000000
      0.1030724100D+00  0.1000000000D+01
 P   1 1.00       0.000000000000
      0.8000000000D+00  0.1000000000D+01
 ****
      8 0
 S   3 1.00       0.000000000000
      0.3406134100D+02  0.2543930721D-01
      0.5123574600D+01  0.1900859489D+00
      0.1164662600D+01  0.8524411301D+00
 S   1 1.00       0.000000000000
      0.3272304100D+00  0.1000000000D+01
 S   1 1.00       0.000000000000
      0.1030724100D+00  0.1000000000D+01
 P   1 1.00       0.000000000000
      0.8000000000D+00  0.1000000000D+01
 ****
      9 0
 S   3 1.00       0.000000000000
      0.3406134100D+02  0.2543930721D-01
      0.5123574600D+01  0.1900859489D+00
      0.1164662600D+01  0.8524411301D+00
 S   1 1.00       0.000000000000
      0.3272304100D+00  0.1000000000D+01
 S   1 1.00       0.000000000000
      0.1030724100D+00  0.1000000000D+01
 P   1 1.00       0.000000000000
      0.8000000000D+00  0.1000000000D+01
 ****
     10 0
 S   6 1.00       0.000000000000
      0.2703238263D+05  0.5722733521D-03
      0.4052387139D+04  0.4435323349D-02
      0.9223272271D+03  0.2302010771D-01
      0.2612407099D+03  0.9282249067D-01
      0.8535464135D+02  0.2937850001D+00
      0.3103503524D+02  0.6740160450D+00
 S   2 1.00       0.000000000000
      0.1226086073D+02  0.6383993703D+00
      0.4998707601D+01  0.3953458713D+00
 S   1 1.00       0.000000000000
      0.1170310816D+01  0.1000000000D+01
 S   1 1.00       0.000000000000
      0.4647474099D+00  0.1000000000D+01
 S   1 1.00       0.000000000000
      0.1850453636D+00  0.1000000000D+01
 P   4 1.00       0.000000000000
      0.6327495480D+02  0.1201833222D-01
      0.1462704938D+02  0.8300542179D-01
      0.4450122346D+01  0.3199174393D+00
      0.1527579965D+01  0.7071554292D+00
 P   1 1.00       0.000000000000
      0.5293511794D+00  0.1000000000D+01
 P   1 1.00       0.000000000000
      0.1747842127D+00  0.1000000000D+01
 D   1 1.00       0.000000000000
      0.2314000000D+01  0.1000000000D+01
 D   1 1.00       0.000000000000
      0.6450000000D+00  0.1000000000D+01
 F   1 1.00       0.000000000000
      0.1428000000D+01  0.1000000000D+01
 ****
     11 0
 S   7 1.00       0.000000000000
      0.6070092810D+05  0.5238007490D-03
      0.9102610685D+04  0.4050632678D-02
      0.2071416601D+04  0.2082700417D-01
      0.5860247682D+03  0.8149685034D-01
      0.1905539502D+03  0.2374911384D+00
      0.6763038426D+02  0.4472617151D+00
      0.2512730691D+02  0.3489191844D+00
 S   3 1.00       0.000000000000
      0.1125746301D+03  0.1004556989D+00
      0.3479555422D+02  0.4339117295D+00
      0.6511555622D+01 -0.1208433059D+01
 S   2 1.00       0.000000000000
      0.3239903226D+01  0.6749812942D+00
      0.1547716088D+01  0.3470879576D+00
 S   1 1.00       0.000000000000
      0.4054103011D+00  0.1000000000D+01
 S   1 1.00       0.000000000000
      0.1455065106D+00  0.1000000000D+01
 P   5 1.00       0.000000000000
      0.5643671603D+03  0.3488692363D-02
      0.1334262438D+03  0.2768512678D-01
      0.4246827119D+02  0.1265940018D+00
      0.1561652758D+02  0.3616592567D+00
      0.6109398847D+01  0.6122203444D+00
 P   1 1.00       0.000000000000
      0.2440416020D+01  0.1000000000D+01
 P   1 1.00       0.000000000000
      0.8388220130D+00  0.1000000000D+01
 P   1 1.00       0.000000000000
      0.3128874690D+00  0.1000000000D+01
 P   1 1.00       0.000000000000
      0.1077010900D+00  0.1000000000D+01
 D   2 1.00       0.000000000000
      0.3756000000D+01  0.1828519746D+00
      0.8120000000D+00  0.9142598730D+00
 D   1 1.00       0.000000000000
      0.2730000000D+00  0.1000000000D+01
 F   1 1.00       0.000000000000
      0.5570000000D+00  0.1000000000D+01
 ****
     12 0
 S   6 1.00       0.000000000000
      0.1357534968D+05  0.6064550360D-03
      0.2035233368D+04  0.4697908888D-02
      0.4632256236D+03  0.2433247765D-01
      0.1312001960D+03  0.9739996831D-01
      0.4285301589D+02  0.3019558425D+00
      0.1558418577D+02  0.6623360914D+00
 S   2 1.00       0.000000000000
      0.6206713851D+01  0.6559530854D+00
      0.2576489653D+01  0.3758563329D+00
 S   1 1.00       0.000000000000
      0.5769633942D+00  0.1000000000D+01
 S   1 1.00       0.000000000000
      0.2297283136D+00  0.1000000000D+01
 S   1 1.00       0.000000000000
      0.9516444003D-01  0.1000000000D+01
 P   4 1.00       0.000000000000
      0.3469723224D+02  0.1132722000D-01
      0.7958262283D+01  0.7616965920D-01
      0.2378082688D+01  0.3019225220D+00
      0.8143320818D+00  0.7278502735D+00
 P   1 1.00       0.000000000000
      0.2888754725D+00  0.1000000000D+01
 P   1 1.00       0.000000000000
      0.1005682367D+00  0.1000000000D+01
 D   1 1.00       0.000000000000
      0.1097000000D+01  0.1000000000D+01
 D   1 1.00       0.000000000000
      0.3180000000D+00  0.1000000000D+01
 F   1 1.00       0.000000000000
      0.7610000000D+00  0.1000000000D+01
 ****

 AO basis set (Overlap normalization):
 Atom Pa1      Shell     1 S   3     bf    1 -     1          1.141373026195         -0.095511973449         -0.258782909784
      0.1204737600D+05  0.2857094961D-01
      0.1811684100D+04  0.2270769386D+00
      0.3477010400D+03  0.8325326273D+00
 Atom Pa1      Shell     2 S   3     bf    2 -     2          1.141373026195         -0.095511973449         -0.258782909784
      0.5750737600D+02  0.9569327984D-01
      0.3350260100D+02 -0.4399944619D+00
      0.1955445100D+02  0.1335352847D+01
 Atom Pa1      Shell     3 S   1     bf    3 -     3          1.141373026195         -0.095511973449         -0.258782909784
      0.9867801000D+02  0.1000000000D+01
 Atom Pa1      Shell     4 S   1     bf    4 -     4          1.141373026195         -0.095511973449         -0.258782909784
      0.9716421000D+01  0.1000000000D+01
 Atom Pa1      Shell     5 S   1     bf    5 -     5          1.141373026195         -0.095511973449         -0.258782909784
      0.2692096000D+01  0.1000000000D+01
 Atom Pa1      Shell     6 S   1     bf    6 -     6          1.141373026195         -0.095511973449         -0.258782909784
      0.1453847000D+01  0.1000000000D+01
 Atom Pa1      Shell     7 S   1     bf    7 -     7          1.141373026195         -0.095511973449         -0.258782909784
      0.5743520000D+00  0.1000000000D+01
 Atom Pa1      Shell     8 S   1     bf    8 -     8          1.141373026195         -0.095511973449         -0.258782909784
      0.2634680000D+00  0.1000000000D+01
 Atom Pa1      Shell     9 S   1     bf    9 -     9          1.141373026195         -0.095511973449         -0.258782909784
      0.5655700000D-01  0.1000000000D+01
 Atom Pa1      Shell    10 S   1     bf   10 -    10          1.141373026195         -0.095511973449         -0.258782909784
      0.2316900000D-01  0.1000000000D+01
 Atom Pa1      Shell    11 P   5     bf   11 -    13          1.141373026195         -0.095511973449         -0.258782909784
      0.2903367600D+04  0.2594222647D-02
      0.6448635600D+03  0.1519473264D-01
      0.2202589600D+03  0.9272492945D-01
      0.8027640100D+02  0.1821144298D+00
      0.2408021100D+02  0.8294100404D+00
 Atom Pa1      Shell    12 P   1     bf   14 -    16          1.141373026195         -0.095511973449         -0.258782909784
      0.1407758000D+02  0.1000000000D+01
 Atom Pa1      Shell    13 P   1     bf   17 -    19          1.141373026195         -0.095511973449         -0.258782909784
      0.8265846000D+01  0.1000000000D+01
 Atom Pa1      Shell    14 P   1     bf   20 -    22          1.141373026195         -0.095511973449         -0.258782909784
      0.3594800000D+01  0.1000000000D+01
 Atom Pa1      Shell    15 P   1     bf   23 -    25          1.141373026195         -0.095511973449         -0.258782909784
      0.1753111000D+01  0.1000000000D+01
 Atom Pa1      Shell    16 P   1     bf   26 -    28          1.141373026195         -0.095511973449         -0.258782909784
      0.6577670000D+00  0.1000000000D+01
 Atom Pa1      Shell    17 P   1     bf   29 -    31          1.141373026195         -0.095511973449         -0.258782909784
      0.2846390000D+00  0.1000000000D+01
 Atom Pa1      Shell    18 P   1     bf   32 -    34          1.141373026195         -0.095511973449         -0.258782909784
      0.1005430000D+00  0.1000000000D+01
 Atom Pa1      Shell    19 P   1     bf   35 -    37          1.141373026195         -0.095511973449         -0.258782909784
      0.3019000000D-01  0.1000000000D+01
 Atom Pa1      Shell    20 D   6     bf   38 -    42          1.141373026195         -0.095511973449         -0.258782909784
      0.4481499100D+03  0.6556927566D-04
      0.1544614500D+03  0.5749921096D-03
      0.6092537700D+02  0.2279793277D-02
      0.1703209100D+02  0.6467904664D-01
      0.1001887700D+02 -0.2666929411D+00
      0.3409193000D+01  0.1128376621D+01
 Atom Pa1      Shell    21 D   1     bf   43 -    47          1.141373026195         -0.095511973449         -0.258782909784
      0.1670213000D+01  0.1000000000D+01
 Atom Pa1      Shell    22 D   1     bf   48 -    52          1.141373026195         -0.095511973449         -0.258782909784
      0.7410950000D+00  0.1000000000D+01
 Atom Pa1      Shell    23 D   1     bf   53 -    57          1.141373026195         -0.095511973449         -0.258782909784
      0.2613930000D+00  0.1000000000D+01
 Atom Pa1      Shell    24 D   1     bf   58 -    62          1.141373026195         -0.095511973449         -0.258782909784
      0.8281100000D-01  0.1000000000D+01
 Atom Pa1      Shell    25 F   5     bf   63 -    69          1.141373026195         -0.095511973449         -0.258782909784
      0.8799132700D+02  0.4766318191D-03
      0.2834019500D+02  0.4899184583D-02
      0.1244099400D+02  0.9669720755D-02
      0.3957296000D+01  0.3310292343D+00
      0.1875944000D+01  0.7275531640D+00
 Atom Pa1      Shell    26 F   1     bf   70 -    76          1.141373026195         -0.095511973449         -0.258782909784
      0.8275890000D+00  0.1000000000D+01
 Atom Pa1      Shell    27 F   1     bf   77 -    83          1.141373026195         -0.095511973449         -0.258782909784
      0.3327480000D+00  0.1000000000D+01
 Atom Pa1      Shell    28 F   1     bf   84 -    90          1.141373026195         -0.095511973449         -0.258782909784
      0.1146850000D+00  0.1000000000D+01
 Atom Pa1      Shell    29 G   1     bf   91 -    99          1.141373026195         -0.095511973449         -0.258782909784
      0.3500000000D+00  0.1000000000D+01
 Atom O2       Shell    30 S   6     bf  100 -   100          1.028257226936          0.410260393143          3.745251307060
      0.2703238263D+05  0.5722733521D-03
      0.4052387139D+04  0.4435323349D-02
      0.9223272271D+03  0.2302010771D-01
      0.2612407099D+03  0.9282249067D-01
      0.8535464135D+02  0.2937850001D+00
      0.3103503524D+02  0.6740160450D+00
 Atom O2       Shell    31 S   2     bf  101 -   101          1.028257226936          0.410260393143          3.745251307060
      0.1226086073D+02  0.6383993703D+00
      0.4998707601D+01  0.3953458713D+00
 Atom O2       Shell    32 S   1     bf  102 -   102          1.028257226936          0.410260393143          3.745251307060
      0.1170310816D+01  0.1000000000D+01
 Atom O2       Shell    33 S   1     bf  103 -   103          1.028257226936          0.410260393143          3.745251307060
      0.4647474099D+00  0.1000000000D+01
 Atom O2       Shell    34 S   1     bf  104 -   104          1.028257226936          0.410260393143          3.745251307060
      0.1850453636D+00  0.1000000000D+01
 Atom O2       Shell    35 P   4     bf  105 -   107          1.028257226936          0.410260393143          3.745251307060
      0.6327495480D+02  0.1201833222D-01
      0.1462704938D+02  0.8300542179D-01
      0.4450122346D+01  0.3199174393D+00
      0.1527579965D+01  0.7071554292D+00
 Atom O2       Shell    36 P   1     bf  108 -   110          1.028257226936          0.410260393143          3.745251307060
      0.5293511794D+00  0.1000000000D+01
 Atom O2       Shell    37 P   1     bf  111 -   113          1.028257226936          0.410260393143          3.745251307060
      0.1747842127D+00  0.1000000000D+01
 Atom O2       Shell    38 D   1     bf  114 -   118          1.028257226936          0.410260393143          3.745251307060
      0.2314000000D+01  0.1000000000D+01
 Atom O2       Shell    39 D   1     bf  119 -   123          1.028257226936          0.410260393143          3.745251307060
      0.6450000000D+00  0.1000000000D+01
 Atom O2       Shell    40 F   1     bf  124 -   130          1.028257226936          0.410260393143          3.745251307060
      0.1428000000D+01  0.1000000000D+01
 Atom O3       Shell    41 S   6     bf  131 -   131          1.354596156925          3.849975213605         -0.622011062066
      0.2703238263D+05  0.5722733521D-03
      0.4052387139D+04  0.4435323349D-02
      0.9223272271D+03  0.2302010771D-01
      0.2612407099D+03  0.9282249067D-01
      0.8535464135D+02  0.2937850001D+00
      0.3103503524D+02  0.6740160450D+00
 Atom O3       Shell    42 S   2     bf  132 -   132          1.354596156925          3.849975213605         -0.622011062066
      0.1226086073D+02  0.6383993703D+00
      0.4998707601D+01  0.3953458713D+00
 Atom O3       Shell    43 S   1     bf  133 -   133          1.354596156925          3.849975213605         -0.622011062066
      0.1170310816D+01  0.1000000000D+01
 Atom O3       Shell    44 S   1     bf  134 -   134          1.354596156925          3.849975213605         -0.622011062066
      0.4647474099D+00  0.1000000000D+01
 Atom O3       Shell    45 S   1     bf  135 -   135          1.354596156925          3.849975213605         -0.622011062066
      0.1850453636D+00  0.1000000000D+01
 Atom O3       Shell    46 P   4     bf  136 -   138          1.354596156925          3.849975213605         -0.622011062066
      0.6327495480D+02  0.1201833222D-01
      0.1462704938D+02  0.8300542179D-01
      0.4450122346D+01  0.3199174393D+00
      0.1527579965D+01  0.7071554292D+00
 Atom O3       Shell    47 P   1     bf  139 -   141          1.354596156925          3.849975213605         -0.622011062066
      0.5293511794D+00  0.1000000000D+01
 Atom O3       Shell    48 P   1     bf  142 -   144          1.354596156925          3.849975213605         -0.622011062066
      0.1747842127D+00  0.1000000000D+01
 Atom O3       Shell    49 D   1     bf  145 -   149          1.354596156925          3.849975213605         -0.622011062066
      0.2314000000D+01  0.1000000000D+01
 Atom O3       Shell    50 D   1     bf  150 -   154          1.354596156925          3.849975213605         -0.622011062066
      0.6450000000D+00  0.1000000000D+01
 Atom O3       Shell    51 F   1     bf  155 -   161          1.354596156925          3.849975213605         -0.622011062066
      0.1428000000D+01  0.1000000000D+01
 Atom N4       Shell    52 S   6     bf  162 -   162         -3.428056394112         -0.023624409601         -0.500728398256
      0.1973080065D+05  0.5862640263D-03
      0.2957895874D+04  0.4542882059D-02
      0.6732213360D+03  0.2355841345D-01
      0.1906824949D+03  0.9470919329D-01
      0.6229544190D+02  0.2971978491D+00
      0.2265416118D+02  0.6691624690D+00
 Atom N4       Shell    53 S   2     bf  163 -   163         -3.428056394112         -0.023624409601         -0.500728398256
      0.8979147743D+01  0.6459668363D+00
      0.3686300237D+01  0.3870057439D+00
 Atom N4       Shell    54 S   1     bf  164 -   164         -3.428056394112         -0.023624409601         -0.500728398256
      0.8466007680D+00  0.1000000000D+01
 Atom N4       Shell    55 S   1     bf  165 -   165         -3.428056394112         -0.023624409601         -0.500728398256
      0.3364713377D+00  0.1000000000D+01
 Atom N4       Shell    56 S   1     bf  166 -   166         -3.428056394112         -0.023624409601         -0.500728398256
      0.1364765367D+00  0.1000000000D+01
 Atom N4       Shell    57 P   4     bf  167 -   169         -3.428056394112         -0.023624409601         -0.500728398256
      0.4920038051D+02  0.1144882510D-01
      0.1134679054D+02  0.7842233797D-01
      0.3427397241D+01  0.3081809474D+00
      0.1178552513D+01  0.7202719637D+00
 Atom N4       Shell    58 P   1     bf  170 -   172         -3.428056394112         -0.023624409601         -0.500728398256
      0.4164220497D+00  0.1000000000D+01
 Atom N4       Shell    59 P   1     bf  173 -   175         -3.428056394112         -0.023624409601         -0.500728398256
      0.1426082601D+00  0.1000000000D+01
 Atom N4       Shell    60 D   1     bf  176 -   180         -3.428056394112         -0.023624409601         -0.500728398256
      0.1654000000D+01  0.1000000000D+01
 Atom N4       Shell    61 D   1     bf  181 -   185         -3.428056394112         -0.023624409601         -0.500728398256
      0.4690000000D+00  0.1000000000D+01
 Atom N4       Shell    62 F   1     bf  186 -   192         -3.428056394112         -0.023624409601         -0.500728398256
      0.1093000000D+01  0.1000000000D+01
 Atom H5       Shell    63 S   3     bf  193 -   193          1.186133603055          5.214920351417          0.581976456083
      0.3406134100D+02  0.2543930721D-01
      0.5123574600D+01  0.1900859489D+00
      0.1164662600D+01  0.8524411301D+00
 Atom H5       Shell    64 S   1     bf  194 -   194          1.186133603055          5.214920351417          0.581976456083
      0.3272304100D+00  0.1000000000D+01
 Atom H5       Shell    65 S   1     bf  195 -   195          1.186133603055          5.214920351417          0.581976456083
      0.1030724100D+00  0.1000000000D+01
 Atom H5       Shell    66 P   1     bf  196 -   198          1.186133603055          5.214920351417          0.581976456083
      0.8000000000D+00  0.1000000000D+01
 Atom O6       Shell    67 S   6     bf  199 -   199          5.874377682485         -0.059802486438         -0.225994791619
      0.2703238263D+05  0.5722733521D-03
      0.4052387139D+04  0.4435323349D-02
      0.9223272271D+03  0.2302010771D-01
      0.2612407099D+03  0.9282249067D-01
      0.8535464135D+02  0.2937850001D+00
      0.3103503524D+02  0.6740160450D+00
 Atom O6       Shell    68 S   2     bf  200 -   200          5.874377682485         -0.059802486438         -0.225994791619
      0.1226086073D+02  0.6383993703D+00
      0.4998707601D+01  0.3953458713D+00
 Atom O6       Shell    69 S   1     bf  201 -   201          5.874377682485         -0.059802486438         -0.225994791619
      0.1170310816D+01  0.1000000000D+01
 Atom O6       Shell    70 S   1     bf  202 -   202          5.874377682485         -0.059802486438         -0.225994791619
      0.4647474099D+00  0.1000000000D+01
 Atom O6       Shell    71 S   1     bf  203 -   203          5.874377682485         -0.059802486438         -0.225994791619
      0.1850453636D+00  0.1000000000D+01
 Atom O6       Shell    72 P   4     bf  204 -   206          5.874377682485         -0.059802486438         -0.225994791619
      0.6327495480D+02  0.1201833222D-01
      0.1462704938D+02  0.8300542179D-01
      0.4450122346D+01  0.3199174393D+00
      0.1527579965D+01  0.7071554292D+00
 Atom O6       Shell    73 P   1     bf  207 -   209          5.874377682485         -0.059802486438         -0.225994791619
      0.5293511794D+00  0.1000000000D+01
 Atom O6       Shell    74 P   1     bf  210 -   212          5.874377682485         -0.059802486438         -0.225994791619
      0.1747842127D+00  0.1000000000D+01
 Atom O6       Shell    75 D   1     bf  213 -   217          5.874377682485         -0.059802486438         -0.225994791619
      0.2314000000D+01  0.1000000000D+01
 Atom O6       Shell    76 D   1     bf  218 -   222          5.874377682485         -0.059802486438         -0.225994791619
      0.6450000000D+00  0.1000000000D+01
 Atom O6       Shell    77 F   1     bf  223 -   229          5.874377682485         -0.059802486438         -0.225994791619
      0.1428000000D+01  0.1000000000D+01
 Atom H7       Shell    78 S   3     bf  230 -   230          6.932277798981          1.410348212501          0.005477132402
      0.3406134100D+02  0.2543930721D-01
      0.5123574600D+01  0.1900859489D+00
      0.1164662600D+01  0.8524411301D+00
 Atom H7       Shell    79 S   1     bf  231 -   231          6.932277798981          1.410348212501          0.005477132402
      0.3272304100D+00  0.1000000000D+01
 Atom H7       Shell    80 S   1     bf  232 -   232          6.932277798981          1.410348212501          0.005477132402
      0.1030724100D+00  0.1000000000D+01
 Atom H7       Shell    81 P   1     bf  233 -   235          6.932277798981          1.410348212501          0.005477132402
      0.8000000000D+00  0.1000000000D+01
 Atom H8       Shell    82 S   3     bf  236 -   236          6.907436755753         -1.524282919283          0.122757940795
      0.3406134100D+02  0.2543930721D-01
      0.5123574600D+01  0.1900859489D+00
      0.1164662600D+01  0.8524411301D+00
 Atom H8       Shell    83 S   1     bf  237 -   237          6.907436755753         -1.524282919283          0.122757940795
      0.3272304100D+00  0.1000000000D+01
 Atom H8       Shell    84 S   1     bf  238 -   238          6.907436755753         -1.524282919283          0.122757940795
      0.1030724100D+00  0.1000000000D+01
 Atom H8       Shell    85 P   1     bf  239 -   241          6.907436755753         -1.524282919283          0.122757940795
      0.8000000000D+00  0.1000000000D+01
 Atom H9       Shell    86 S   3     bf  242 -   242          0.964219859491         -0.877207053503          5.034003851347
      0.3406134100D+02  0.2543930721D-01
      0.5123574600D+01  0.1900859489D+00
      0.1164662600D+01  0.8524411301D+00
 Atom H9       Shell    87 S   1     bf  243 -   243          0.964219859491         -0.877207053503          5.034003851347
      0.3272304100D+00  0.1000000000D+01
 Atom H9       Shell    88 S   1     bf  244 -   244          0.964219859491         -0.877207053503          5.034003851347
      0.1030724100D+00  0.1000000000D+01
 Atom H9       Shell    89 P   1     bf  245 -   247          0.964219859491         -0.877207053503          5.034003851347
      0.8000000000D+00  0.1000000000D+01
 Atom O10      Shell    90 S   6     bf  248 -   248          1.341201204252         -3.600949414641         -0.207113714394
      0.2703238263D+05  0.5722733521D-03
      0.4052387139D+04  0.4435323349D-02
      0.9223272271D+03  0.2302010771D-01
      0.2612407099D+03  0.9282249067D-01
      0.8535464135D+02  0.2937850001D+00
      0.3103503524D+02  0.6740160450D+00
 Atom O10      Shell    91 S   2     bf  249 -   249          1.341201204252         -3.600949414641         -0.207113714394
      0.1226086073D+02  0.6383993703D+00
      0.4998707601D+01  0.3953458713D+00
 Atom O10      Shell    92 S   1     bf  250 -   250          1.341201204252         -3.600949414641         -0.207113714394
      0.1170310816D+01  0.1000000000D+01
 Atom O10      Shell    93 S   1     bf  251 -   251          1.341201204252         -3.600949414641         -0.207113714394
      0.4647474099D+00  0.1000000000D+01
 Atom O10      Shell    94 S   1     bf  252 -   252          1.341201204252         -3.600949414641         -0.207113714394
      0.1850453636D+00  0.1000000000D+01
 Atom O10      Shell    95 P   4     bf  253 -   255          1.341201204252         -3.600949414641         -0.207113714394
      0.6327495480D+02  0.1201833222D-01
      0.1462704938D+02  0.8300542179D-01
      0.4450122346D+01  0.3199174393D+00
      0.1527579965D+01  0.7071554292D+00
 Atom O10      Shell    96 P   1     bf  256 -   258          1.341201204252         -3.600949414641         -0.207113714394
      0.5293511794D+00  0.1000000000D+01
 Atom O10      Shell    97 P   1     bf  259 -   261          1.341201204252         -3.600949414641         -0.207113714394
      0.1747842127D+00  0.1000000000D+01
 Atom O10      Shell    98 D   1     bf  262 -   266          1.341201204252         -3.600949414641         -0.207113714394
      0.2314000000D+01  0.1000000000D+01
 Atom O10      Shell    99 D   1     bf  267 -   271          1.341201204252         -3.600949414641         -0.207113714394
      0.6450000000D+00  0.1000000000D+01
 Atom O10      Shell   100 F   1     bf  272 -   278          1.341201204252         -3.600949414641         -0.207113714394
      0.1428000000D+01  0.1000000000D+01
 Atom S11      Shell   101 S   7     bf  279 -   279         -8.674920736337         -0.004098946494          0.082044437161
      0.6070092810D+05  0.5238007490D-03
      0.9102610685D+04  0.4050632678D-02
      0.2071416601D+04  0.2082700417D-01
      0.5860247682D+03  0.8149685034D-01
      0.1905539502D+03  0.2374911384D+00
      0.6763038426D+02  0.4472617151D+00
      0.2512730691D+02  0.3489191844D+00
 Atom S11      Shell   102 S   3     bf  280 -   280         -8.674920736337         -0.004098946494          0.082044437161
      0.1125746301D+03  0.1004556989D+00
      0.3479555422D+02  0.4339117295D+00
      0.6511555622D+01 -0.1208433059D+01
 Atom S11      Shell   103 S   2     bf  281 -   281         -8.674920736337         -0.004098946494          0.082044437161
      0.3239903226D+01  0.6749812942D+00
      0.1547716088D+01  0.3470879576D+00
 Atom S11      Shell   104 S   1     bf  282 -   282         -8.674920736337         -0.004098946494          0.082044437161
      0.4054103011D+00  0.1000000000D+01
 Atom S11      Shell   105 S   1     bf  283 -   283         -8.674920736337         -0.004098946494          0.082044437161
      0.1455065106D+00  0.1000000000D+01
 Atom S11      Shell   106 P   5     bf  284 -   286         -8.674920736337         -0.004098946494          0.082044437161
      0.5643671603D+03  0.3488692363D-02
      0.1334262438D+03  0.2768512678D-01
      0.4246827119D+02  0.1265940018D+00
      0.1561652758D+02  0.3616592567D+00
      0.6109398847D+01  0.6122203444D+00
 Atom S11      Shell   107 P   1     bf  287 -   289         -8.674920736337         -0.004098946494          0.082044437161
      0.2440416020D+01  0.1000000000D+01
 Atom S11      Shell   108 P   1     bf  290 -   292         -8.674920736337         -0.004098946494          0.082044437161
      0.8388220130D+00  0.1000000000D+01
 Atom S11      Shell   109 P   1     bf  293 -   295         -8.674920736337         -0.004098946494          0.082044437161
      0.3128874690D+00  0.1000000000D+01
 Atom S11      Shell   110 P   1     bf  296 -   298         -8.674920736337         -0.004098946494          0.082044437161
      0.1077010900D+00  0.1000000000D+01
 Atom S11      Shell   111 D   2     bf  299 -   303         -8.674920736337         -0.004098946494          0.082044437161
      0.3756000000D+01  0.1828519746D+00
      0.8120000000D+00  0.9142598730D+00
 Atom S11      Shell   112 D   1     bf  304 -   308         -8.674920736337         -0.004098946494          0.082044437161
      0.2730000000D+00  0.1000000000D+01
 Atom S11      Shell   113 F   1     bf  309 -   315         -8.674920736337         -0.004098946494          0.082044437161
      0.5570000000D+00  0.1000000000D+01
 Atom C12      Shell   114 S   6     bf  316 -   316         -5.641224170945         -0.016184106912         -0.253939451492
      0.1357534968D+05  0.6064550360D-03
      0.2035233368D+04  0.4697908888D-02
      0.4632256236D+03  0.2433247765D-01
      0.1312001960D+03  0.9739996831D-01
      0.4285301589D+02  0.3019558425D+00
      0.1558418577D+02  0.6623360914D+00
 Atom C12      Shell   115 S   2     bf  317 -   317         -5.641224170945         -0.016184106912         -0.253939451492
      0.6206713851D+01  0.6559530854D+00
      0.2576489653D+01  0.3758563329D+00
 Atom C12      Shell   116 S   1     bf  318 -   318         -5.641224170945         -0.016184106912         -0.253939451492
      0.5769633942D+00  0.1000000000D+01
 Atom C12      Shell   117 S   1     bf  319 -   319         -5.641224170945         -0.016184106912         -0.253939451492
      0.2297283136D+00  0.1000000000D+01
 Atom C12      Shell   118 S   1     bf  320 -   320         -5.641224170945         -0.016184106912         -0.253939451492
      0.9516444003D-01  0.1000000000D+01
 Atom C12      Shell   119 P   4     bf  321 -   323         -5.641224170945         -0.016184106912         -0.253939451492
      0.3469723224D+02  0.1132722000D-01
      0.7958262283D+01  0.7616965920D-01
      0.2378082688D+01  0.3019225220D+00
      0.8143320818D+00  0.7278502735D+00
 Atom C12      Shell   120 P   1     bf  324 -   326         -5.641224170945         -0.016184106912         -0.253939451492
      0.2888754725D+00  0.1000000000D+01
 Atom C12      Shell   121 P   1     bf  327 -   329         -5.641224170945         -0.016184106912         -0.253939451492
      0.1005682367D+00  0.1000000000D+01
 Atom C12      Shell   122 D   1     bf  330 -   334         -5.641224170945         -0.016184106912         -0.253939451492
      0.1097000000D+01  0.1000000000D+01
 Atom C12      Shell   123 D   1     bf  335 -   339         -5.641224170945         -0.016184106912         -0.253939451492
      0.3180000000D+00  0.1000000000D+01
 Atom C12      Shell   124 F   1     bf  340 -   346         -5.641224170945         -0.016184106912         -0.253939451492
      0.7610000000D+00  0.1000000000D+01
 Effective core potential in the form of general ECP input:
      1 0
 Pa1-ECP   5 60
 H component
  1
  2        1.0000000        0.00000000    0.00000000
 S-H projection
  1
  2       15.2691737      475.47573283    0.00000000
 P-H projection
  1
  2        9.9577370      207.66485962    0.00000000
 D-H projection
  1
  2        8.9431413      156.67411988    0.00000000
 F-H projection
  1
  2        7.0104666       67.98223685    0.00000000
 G-H projection
  1
  2       12.2010560      -57.63059989    0.00000000
 
 There are   404 symmetry adapted cartesian basis functions of A   symmetry.
 There are   346 symmetry adapted basis functions of A   symmetry.
   346 basis functions,   615 primitive gaussians,   404 cartesian basis functions
    48 alpha electrons       48 beta electrons
       nuclear repulsion energy       673.2929990095 Hartrees.
 IExCor=  404 DFT=T Ex=B Corr=P86 ExCW=0 ScaHFX=  0.000000
 ScaDFX=  1.000000  1.000000  1.000000  1.000000 ScalE2=  1.000000  1.000000
 IRadAn=      5 IRanWt=     -1 IRanGd=            0 ICorTp=0 IEmpDi=  4
 NAtoms=   12 NActive=   12 NUniq=   12 SFac= 1.00D+00 NAtFMM=   60 NAOKFM=F Big=F
 Integral buffers will be    131072 words long.
 Raffenetti 2 integral format.
 Two-electron integral symmetry is turned on.
 Warning! Using old PCM defaults because the COSMOthermo output has been requested.
 These settings can be overridden by following keywords.
 ------------------------------------------------------------------------------
 Polarizable Continuum Model (PCM)
 =================================
 Model                : C-PCM.
 Atomic radii         : Klamt.
 XCosmo               : -1.000 (infinite dielectric limit)
 Polarization charges : Electronic and nuclear charges.
 Charge compensation  : Type 3 (Electronic density weighted correction).
 Solution method      : On-the-fly selection.
 Cavity type          : VdW (van der Waals Surface) (Alpha=1.000).
 Cavity algorithm     : GePol (No added spheres)
                        Default sphere list used, NSphG=   12.
                        Tesserae with average area of 0.200 Ang**2.
                        Smoothing algorithm: None.
                        Polarization charges: point-like.
                        Self-potential: constant (ISelfS= 1).
                        Self-field    : global E.n sum rule (ISelfD= 3).
 Solvent              : Water, Eps=  78.355300 Eps(inf)=   1.777849
 ------------------------------------------------------------------------------
 Spheres list:
 ISph  on   Nord     Re0    Alpha      Xe            Ye            Ze
    1  Pa      1    2.0000  1.170      0.603989     -0.050543     -0.136942
    2   O      2    1.7200  1.000      0.544130      0.217100      1.981902
    3   O      3    1.7200  1.000      0.716821      2.037319     -0.329154
    4   N      4    1.8300  1.000     -1.814049     -0.012501     -0.264974
    5   H      5    1.3000  1.000      0.627675      2.759617      0.307969
    6   O      6    1.7200  1.000      3.108587     -0.031646     -0.119591
    7   H      7    1.3000  1.000      3.668403      0.746324      0.002898
    8   H      8    1.3000  1.000      3.655258     -0.806616      0.064961
    9   H      9    1.3000  1.000      0.510243     -0.464198      2.663880
   10   O     10    1.7200  1.000      0.709733     -1.905540     -0.109600
   11   S     11    2.1600  1.000     -4.590570     -0.002169      0.043416
   12   C     12    2.0000  1.000     -2.985207     -0.008564     -0.134379
 ------------------------------------------------------------------------------
 GePol: Number of generator spheres                  =      12
 GePol: Total number of spheres                      =      12
 GePol: Number of exposed spheres                    =      12 (100.00%)
 GePol: Number of tesserae                           =    1288
 GePol: Average area of tesserae                     =       0.16 Ang**2
 GePol: Minimum area of tessera                      =   0.11D-02 Ang**2
 GePol: Maximum area of tessera                      =    0.35817 Ang**2
 GePol: Number of small tesserae                     =       6
 GePol: Fraction of small tesserae (<1% of avg)      =       0.47%
 GePol: Total count of vertices                      =    4251
 GePol: Maximum number of vertices in a tessera      =       6
 GePol: Cavity surface area                          =    199.921 Ang**2
 GePol: Cavity volume                                =    169.873 Ang**3
 DisRep: Neglecting contributions from atom    1 of solute.
 Leave Link  301 at Wed Jul  5 10:34:05 2023, MaxMem=  2147483648 cpu:               1.3 elap:               0.2
 (Enter /home/pcmt/gaussian/g16.C.01/g16/l302.exe)
 NPDir=0 NMtPBC=     1 NCelOv=     1 NCel=       1 NClECP=     1 NCelD=      1
         NCelK=      1 NCelE2=     1 NClLst=     1 CellRange=     0.0.
 One-electron integrals computed using PRISM.
 One-electron integral symmetry used in STVInt
   1 Symmetry operations used in ECPInt.
 ECPInt:  NShTT=    7750 NPrTT=   23874 LenC2=    7098 LenP2D=   16112.
 LDataN:  DoStor=T MaxTD1= 9 Len=  602
 NBasis=   346 RedAO= T EigKep=  2.11D-04  NBF=   346
 NBsUse=   346 1.00D-06 EigRej= -1.00D+00 NBFU=   346
 Precomputing XC quadrature grid using
 IXCGrd= 4 IRadAn=           5 IRanWt=          -1 IRanGd=           0 AccXCQ= 0.00D+00.
 Defaulting to unpruned grid for atomic number  91.
 Generated NRdTot=       0 NPtTot=           0 NUsed=           0 NTot=          32
 NSgBfM=   398   398   398   398   398 MxSgAt=    12 MxSgA2=    12.
 Leave Link  302 at Wed Jul  5 10:34:06 2023, MaxMem=  2147483648 cpu:               7.5 elap:               1.0
 (Enter /home/pcmt/gaussian/g16.C.01/g16/l303.exe)
 DipDrv:  MaxL=1.
 Leave Link  303 at Wed Jul  5 10:34:07 2023, MaxMem=  2147483648 cpu:               0.4 elap:               0.1
 (Enter /home/pcmt/gaussian/g16.C.01/g16/l401.exe)
 ExpMin= 2.32D-02 ExpMax= 6.07D+04 ExpMxC= 1.20D+04 IAcc=3 IRadAn=         5 AccDes= 0.00D+00
 Harris functional with IExCor=  404 and IRadAn=       5 diagonalized for initial guess.
 HarFok:  IExCor=  404 AccDes= 0.00D+00 IRadAn=         5 IDoV= 1 UseB2=F ITyADJ=14
 ICtDFT=  3500011 ScaDFX=  1.000000  1.000000  1.000000  1.000000
 Defaulting to unpruned grid for atomic number  91.
 FoFCou: FMM=F IPFlag=           0 FMFlag=      100000 FMFlg1=           0
         NFxFlg=           0 DoJE=T BraDBF=F KetDBF=T FulRan=T
         wScrn=  0.000000 ICntrl=       500 IOpCl=  0 I1Cent=   200000004 NGrid=           0
         NMat0=    1 NMatS0=      1 NMatT0=    0 NMatD0=    1 NMtDS0=    0 NMtDT0=    0
 Petite list used in FoFCou.
 Harris En= -1237.89531207737    
 JPrj=0 DoOrth=F DoCkMO=F.
 Leave Link  401 at Wed Jul  5 10:34:09 2023, MaxMem=  2147483648 cpu:              19.1 elap:               2.4
 (Enter /home/pcmt/gaussian/g16.C.01/g16/l502.exe)
 Keep J ints in memory in canonical form, NReq=1835107366.
 FoFCou: FMM=F IPFlag=           0 FMFlag=           0 FMFlg1=           0
         NFxFlg=           0 DoJE=F BraDBF=F KetDBF=F FulRan=T
         wScrn=  0.000000 ICntrl=       600 IOpCl=  0 I1Cent=           0 NGrid=           0
         NMat0=    1 NMatS0=  60031 NMatT0=    0 NMatD0=    1 NMtDS0=    0 NMtDT0=    0
 Symmetry not used in FoFCou.
 Two-electron integral symmetry not used.
 Closed shell SCF:
 Using DIIS extrapolation, IDIIS=  1040.
 NGot=  2147483648 LenX=   345259780 LenY=   345096123
 Requested convergence on RMS density matrix=1.00D-08 within 100 cycles.
 Requested convergence on MAX density matrix=1.00D-06.
 Requested convergence on             energy=1.00D-06.
 No special actions if energy rises.

 Cycle   1  Pass 1  IDiag  1:
 Defaulting to unpruned grid for atomic number  91.
 Defaulting to unpruned grid for atomic number  91.
 Defaulting to unpruned grid for atomic number  91.
 Defaulting to unpruned grid for atomic number  91.
 Defaulting to unpruned grid for atomic number  91.
 Defaulting to unpruned grid for atomic number  91.
 Defaulting to unpruned grid for atomic number  91.
 Defaulting to unpruned grid for atomic number  91.
 Inv3:  Mode=1 IEnd=     4976832.
 Iteration    1 A*A^-1 deviation from unit magnitude is 1.47D-14 for    494.
 Iteration    1 A*A^-1 deviation from orthogonality  is 8.49D-15 for   1269    494.
 Iteration    1 A^-1*A deviation from unit magnitude is 6.66D-15 for    593.
 Iteration    1 A^-1*A deviation from orthogonality  is 5.52D-15 for    593    497.
 E= -1235.46351509449    
 DIIS: error= 4.51D-02 at cycle   1 NSaved=   1.
 NSaved= 1 IEnMin= 1 EnMin= -1235.46351509449     IErMin= 1 ErrMin= 4.51D-02
 ErrMax= 4.51D-02  0.00D+00 EMaxC= 1.00D-01 BMatC= 1.53D+00 BMatP= 1.53D+00
 IDIUse=3 WtCom= 5.49D-01 WtEn= 4.51D-01
 Coeff-Com:  0.100D+01
 Coeff-En:   0.100D+01
 Coeff:      0.100D+01
 Gap=     0.159 Goal=   None    Shift=    0.000
 GapD=    0.159 DampG=1.000 DampE=0.250 DampFc=0.2500 IDamp=-1.
 Damping current iteration by 2.50D-01
 RMSDP=1.11D-02 MaxDP=1.23D+00              OVMax= 9.98D-01

 Cycle   2  Pass 1  IDiag  1:
 E= -1233.40946734508     Delta-E=        2.054047749409 Rises=F Damp=T
 DIIS: error= 4.55D-02 at cycle   2 NSaved=   2.
 NSaved= 2 IEnMin= 1 EnMin= -1235.46351509449     IErMin= 1 ErrMin= 4.51D-02
 ErrMax= 4.55D-02  0.00D+00 EMaxC= 1.00D-01 BMatC= 1.32D+00 BMatP= 1.53D+00
 IDIUse=3 WtCom= 5.45D-01 WtEn= 4.55D-01
 Coeff-Com:  0.477D+00 0.523D+00
 Coeff-En:   0.736D+00 0.264D+00
 Coeff:      0.595D+00 0.405D+00
 Gap=    -0.083 Goal=   None    Shift=    0.000
 RMSDP=3.95D-03 MaxDP=1.13D-01 DE= 2.05D+00 OVMax= 9.35D-01

 Cycle   3  Pass 1  IDiag  1:
 E= -1235.54280600035     Delta-E=       -2.133338655272 Rises=F Damp=F
 DIIS: error= 4.60D-02 at cycle   3 NSaved=   3.
 NSaved= 3 IEnMin= 3 EnMin= -1235.54280600035     IErMin= 1 ErrMin= 4.51D-02
 ErrMax= 4.60D-02  0.00D+00 EMaxC= 1.00D-01 BMatC= 1.13D+00 BMatP= 1.32D+00
 IDIUse=3 WtCom= 5.40D-01 WtEn= 4.60D-01
 EnCoef did     1 forward-backward iterations
 Coeff-Com:  0.345D+00 0.347D+00 0.308D+00
 Coeff-En:   0.458D+00 0.107D+00 0.435D+00
 Coeff:      0.397D+00 0.236D+00 0.367D+00
 Gap=     0.222 Goal=   None    Shift=    0.000
 RMSDP=3.64D-03 MaxDP=2.08D-01 DE=-2.13D+00 OVMax= 2.57D-01

 Cycle   4  Pass 1  IDiag  1:
 E= -1236.45219509424     Delta-E=       -0.909389093895 Rises=F Damp=F
 DIIS: error= 1.59D-02 at cycle   4 NSaved=   4.
 NSaved= 4 IEnMin= 4 EnMin= -1236.45219509424     IErMin= 4 ErrMin= 1.59D-02
 ErrMax= 1.59D-02  0.00D+00 EMaxC= 1.00D-01 BMatC= 8.62D-02 BMatP= 1.13D+00
 IDIUse=3 WtCom= 8.41D-01 WtEn= 1.59D-01
 Coeff-Com:  0.153D+00 0.124D+00 0.202D+00 0.521D+00
 Coeff-En:   0.000D+00 0.000D+00 0.249D-01 0.975D+00
 Coeff:      0.129D+00 0.105D+00 0.173D+00 0.593D+00
 Gap=     0.156 Goal=   None    Shift=    0.000
 RMSDP=1.22D-03 MaxDP=7.05D-02 DE=-9.09D-01 OVMax= 1.77D-01

 Cycle   5  Pass 1  IDiag  1:
 E= -1236.39072662629     Delta-E=        0.061468467955 Rises=F Damp=F
 DIIS: error= 2.14D-02 at cycle   5 NSaved=   5.
 NSaved= 5 IEnMin= 4 EnMin= -1236.45219509424     IErMin= 4 ErrMin= 1.59D-02
 ErrMax= 2.14D-02  0.00D+00 EMaxC= 1.00D-01 BMatC= 1.61D-01 BMatP= 8.62D-02
 IDIUse=2 WtCom= 0.00D+00 WtEn= 1.00D+00
 Coeff-En:   0.000D+00 0.000D+00 0.000D+00 0.610D+00 0.390D+00
 Coeff:      0.000D+00 0.000D+00 0.000D+00 0.610D+00 0.390D+00
 Gap=     0.095 Goal=   None    Shift=    0.000
 RMSDP=1.06D-03 MaxDP=7.75D-02 DE= 6.15D-02 OVMax= 1.33D-01

 Cycle   6  Pass 1  IDiag  1:
 E= -1236.37204124628     Delta-E=        0.018685380004 Rises=F Damp=F
 DIIS: error= 2.32D-02 at cycle   6 NSaved=   6.
 NSaved= 6 IEnMin= 4 EnMin= -1236.45219509424     IErMin= 4 ErrMin= 1.59D-02
 ErrMax= 2.32D-02  0.00D+00 EMaxC= 1.00D-01 BMatC= 2.27D-01 BMatP= 8.62D-02
 IDIUse=2 WtCom= 0.00D+00 WtEn= 1.00D+00
 EnCoef did     3 forward-backward iterations
 Coeff-En:   0.000D+00 0.000D+00 0.000D+00 0.504D+00 0.328D+00 0.168D+00
 Coeff:      0.000D+00 0.000D+00 0.000D+00 0.504D+00 0.328D+00 0.168D+00
 Gap=     0.124 Goal=   None    Shift=    0.000
 RMSDP=6.49D-04 MaxDP=4.27D-02 DE= 1.87D-02 OVMax= 1.09D-01

 Cycle   7  Pass 1  IDiag  1:
 E= -1236.52350458578     Delta-E=       -0.151463339500 Rises=F Damp=F
 DIIS: error= 2.30D-03 at cycle   7 NSaved=   7.
 NSaved= 7 IEnMin= 7 EnMin= -1236.52350458578     IErMin= 7 ErrMin= 2.30D-03
 ErrMax= 2.30D-03  0.00D+00 EMaxC= 1.00D-01 BMatC= 4.19D-03 BMatP= 8.62D-02
 IDIUse=3 WtCom= 9.77D-01 WtEn= 2.30D-02
 Coeff-Com: -0.363D-02-0.529D-03-0.265D-01 0.168D+00 0.938D-01 0.832D-01
 Coeff-Com:  0.686D+00
 Coeff-En:   0.000D+00 0.000D+00 0.000D+00 0.000D+00 0.000D+00 0.000D+00
 Coeff-En:   0.100D+01
 Coeff:     -0.355D-02-0.517D-03-0.259D-01 0.164D+00 0.917D-01 0.813D-01
 Coeff:      0.693D+00
 Gap=     0.103 Goal=   None    Shift=    0.000
 RMSDP=2.46D-04 MaxDP=2.16D-02 DE=-1.51D-01 OVMax= 2.31D-02

 Cycle   8  Pass 1  IDiag  1:
 E= -1236.52711948100     Delta-E=       -0.003614895218 Rises=F Damp=F
 DIIS: error= 1.33D-03 at cycle   8 NSaved=   8.
 NSaved= 8 IEnMin= 8 EnMin= -1236.52711948100     IErMin= 8 ErrMin= 1.33D-03
 ErrMax= 1.33D-03  0.00D+00 EMaxC= 1.00D-01 BMatC= 1.24D-03 BMatP= 4.19D-03
 IDIUse=3 WtCom= 9.87D-01 WtEn= 1.33D-02
 Coeff-Com: -0.129D-02 0.105D-02-0.158D-01 0.610D-02-0.251D-02-0.440D-02
 Coeff-Com:  0.430D+00 0.587D+00
 Coeff-En:   0.000D+00 0.000D+00 0.000D+00 0.000D+00 0.000D+00 0.000D+00
 Coeff-En:   0.000D+00 0.100D+01
 Coeff:     -0.127D-02 0.104D-02-0.156D-01 0.602D-02-0.247D-02-0.435D-02
 Coeff:      0.424D+00 0.593D+00
 Gap=     0.106 Goal=   None    Shift=    0.000
 RMSDP=1.26D-04 MaxDP=9.16D-03 DE=-3.61D-03 OVMax= 1.47D-02

 Cycle   9  Pass 1  IDiag  1:
 E= -1236.52859038825     Delta-E=       -0.001470907247 Rises=F Damp=F
 DIIS: error= 8.15D-04 at cycle   9 NSaved=   9.
 NSaved= 9 IEnMin= 9 EnMin= -1236.52859038825     IErMin= 9 ErrMin= 8.15D-04
 ErrMax= 8.15D-04  0.00D+00 EMaxC= 1.00D-01 BMatC= 6.78D-04 BMatP= 1.24D-03
 IDIUse=3 WtCom= 9.92D-01 WtEn= 8.15D-03
 Coeff-Com:  0.795D-02-0.156D-02-0.570D-02-0.825D-01-0.608D-01-0.262D-01
 Coeff-Com:  0.155D+00 0.460D+00 0.554D+00
 Coeff-En:   0.000D+00 0.000D+00 0.000D+00 0.000D+00 0.000D+00 0.000D+00
 Coeff-En:   0.000D+00 0.000D+00 0.100D+01
 Coeff:      0.788D-02-0.155D-02-0.565D-02-0.819D-01-0.603D-01-0.260D-01
 Coeff:      0.153D+00 0.456D+00 0.557D+00
 Gap=     0.104 Goal=   None    Shift=    0.000
 RMSDP=1.83D-04 MaxDP=1.32D-02 DE=-1.47D-03 OVMax= 2.37D-02

 Cycle  10  Pass 1  IDiag  1:
 E= -1236.52952992981     Delta-E=       -0.000939541561 Rises=F Damp=F
 DIIS: error= 1.58D-03 at cycle  10 NSaved=  10.
 NSaved=10 IEnMin=10 EnMin= -1236.52952992981     IErMin= 9 ErrMin= 8.15D-04
 ErrMax= 1.58D-03  0.00D+00 EMaxC= 1.00D-01 BMatC= 1.60D-03 BMatP= 6.78D-04
 IDIUse=3 WtCom= 9.92D-01 WtEn= 8.15D-03
 Coeff-Com:  0.110D-01-0.307D-03-0.457D-02-0.837D-01-0.616D-01-0.287D-01
 Coeff-Com:  0.202D+00 0.378D+00 0.274D+00 0.313D+00
 Coeff-En:   0.000D+00 0.000D+00 0.000D+00 0.000D+00 0.000D+00 0.000D+00
 Coeff-En:   0.000D+00 0.000D+00 0.000D+00 0.100D+01
 Coeff:      0.109D-01-0.305D-03-0.454D-02-0.831D-01-0.611D-01-0.285D-01
 Coeff:      0.201D+00 0.375D+00 0.272D+00 0.319D+00
 Gap=     0.102 Goal=   None    Shift=    0.000
 RMSDP=2.59D-05 MaxDP=4.40D-03 DE=-9.40D-04 OVMax= 1.14D-03

 Cycle  11  Pass 1  IDiag  1:
 E= -1236.52969352716     Delta-E=       -0.000163597352 Rises=F Damp=F
 DIIS: error= 1.21D-03 at cycle  11 NSaved=  11.
 NSaved=11 IEnMin=11 EnMin= -1236.52969352716     IErMin= 9 ErrMin= 8.15D-04
 ErrMax= 1.21D-03  0.00D+00 EMaxC= 1.00D-01 BMatC= 9.11D-04 BMatP= 6.78D-04
 IDIUse=3 WtCom= 9.92D-01 WtEn= 8.15D-03
 Coeff-Com:  0.164D-02 0.238D-02-0.947D-02 0.336D-01 0.232D-01-0.243D-02
 Coeff-Com:  0.407D+00 0.478D-01-0.116D+01-0.143D+01 0.309D+01
 Coeff-En:   0.000D+00 0.000D+00 0.000D+00 0.000D+00 0.000D+00 0.000D+00
 Coeff-En:   0.000D+00 0.000D+00 0.000D+00 0.000D+00 0.100D+01
 Coeff:      0.163D-02 0.236D-02-0.939D-02 0.333D-01 0.230D-01-0.241D-02
 Coeff:      0.404D+00 0.474D-01-0.115D+01-0.142D+01 0.307D+01
 Gap=     0.113 Goal=   None    Shift=    0.000
 RMSDP=1.62D-04 MaxDP=2.09D-02 DE=-1.64D-04 OVMax= 1.59D-02

 Cycle  12  Pass 1  IDiag  1:
 E= -1236.52910314828     Delta-E=        0.000590378886 Rises=F Damp=F
 DIIS: error= 1.14D-03 at cycle  12 NSaved=  12.
 NSaved=12 IEnMin=11 EnMin= -1236.52969352716     IErMin= 9 ErrMin= 8.15D-04
 ErrMax= 1.14D-03  0.00D+00 EMaxC= 1.00D-01 BMatC= 9.05D-04 BMatP= 6.78D-04
 IDIUse=3 WtCom= 9.92D-01 WtEn= 8.15D-03
 Coeff-Com:  0.164D-02 0.417D-03-0.802D-03-0.446D-02-0.803D-03-0.673D-02
 Coeff-Com:  0.689D-01-0.159D+00-0.630D+00-0.589D+00 0.188D+01 0.440D+00
 Coeff-En:   0.000D+00 0.000D+00 0.000D+00 0.000D+00 0.000D+00 0.000D+00
 Coeff-En:   0.000D+00 0.000D+00 0.000D+00 0.000D+00 0.788D+00 0.212D+00
 Coeff:      0.163D-02 0.414D-03-0.796D-03-0.442D-02-0.796D-03-0.667D-02
 Coeff:      0.683D-01-0.158D+00-0.625D+00-0.585D+00 0.187D+01 0.438D+00
 Gap=     0.107 Goal=   None    Shift=    0.000
 RMSDP=2.40D-04 MaxDP=1.65D-02 DE= 5.90D-04 OVMax= 3.31D-02

 Cycle  13  Pass 1  IDiag  1:
 E= -1236.52965470481     Delta-E=       -0.000551556536 Rises=F Damp=F
 DIIS: error= 6.56D-04 at cycle  13 NSaved=  13.
 NSaved=13 IEnMin=11 EnMin= -1236.52969352716     IErMin=13 ErrMin= 6.56D-04
 ErrMax= 6.56D-04  0.00D+00 EMaxC= 1.00D-01 BMatC= 3.06D-04 BMatP= 6.78D-04
 IDIUse=3 WtCom= 9.93D-01 WtEn= 6.56D-03
 EnCoef did     2 forward-backward iterations
 Coeff-Com: -0.214D-03 0.407D-03-0.584D-03-0.264D-02-0.229D-02-0.220D-02
 Coeff-Com:  0.668D-02-0.342D-01-0.107D+00-0.300D+00 0.735D+00 0.385D+00
 Coeff-Com:  0.322D+00
 Coeff-En:   0.000D+00 0.000D+00 0.000D+00 0.000D+00 0.000D+00 0.000D+00
 Coeff-En:   0.000D+00 0.000D+00 0.000D+00 0.000D+00 0.425D+00 0.156D+00
 Coeff-En:   0.419D+00
 Coeff:     -0.213D-03 0.405D-03-0.580D-03-0.262D-02-0.228D-02-0.219D-02
 Coeff:      0.664D-02-0.340D-01-0.106D+00-0.298D+00 0.733D+00 0.384D+00
 Coeff:      0.322D+00
 Gap=     0.106 Goal=   None    Shift=    0.000
 RMSDP=8.74D-05 MaxDP=5.99D-03 DE=-5.52D-04 OVMax= 1.31D-02

 Cycle  14  Pass 1  IDiag  1:
 E= -1236.53008233757     Delta-E=       -0.000427632760 Rises=F Damp=F
 DIIS: error= 8.56D-05 at cycle  14 NSaved=  14.
 NSaved=14 IEnMin=14 EnMin= -1236.53008233757     IErMin=14 ErrMin= 8.56D-05
 ErrMax= 8.56D-05  0.00D+00 EMaxC= 1.00D-01 BMatC= 5.35D-06 BMatP= 3.06D-04
 IDIUse=1 WtCom= 1.00D+00 WtEn= 0.00D+00
 Coeff-Com: -0.182D-03 0.995D-04-0.199D-03-0.197D-02-0.231D-02 0.756D-03
 Coeff-Com: -0.134D-01-0.157D-01-0.604D-02-0.153D+00 0.305D+00 0.227D+00
 Coeff-Com:  0.201D+00 0.458D+00
 Coeff:     -0.182D-03 0.995D-04-0.199D-03-0.197D-02-0.231D-02 0.756D-03
 Coeff:     -0.134D-01-0.157D-01-0.604D-02-0.153D+00 0.305D+00 0.227D+00
 Coeff:      0.201D+00 0.458D+00
 Gap=     0.102 Goal=   None    Shift=    0.000
 RMSDP=5.17D-06 MaxDP=1.98D-04 DE=-4.28D-04 OVMax= 6.70D-04

 Cycle  15  Pass 1  IDiag  1:
 E= -1236.53008440222     Delta-E=       -0.000002064650 Rises=F Damp=F
 DIIS: error= 9.75D-05 at cycle  15 NSaved=  15.
 NSaved=15 IEnMin=15 EnMin= -1236.53008440222     IErMin=14 ErrMin= 8.56D-05
 ErrMax= 9.75D-05  0.00D+00 EMaxC= 1.00D-01 BMatC= 4.16D-06 BMatP= 5.35D-06
 IDIUse=1 WtCom= 1.00D+00 WtEn= 0.00D+00
 Coeff-Com: -0.164D-03-0.327D-05-0.110D-03 0.365D-03-0.473D-03 0.190D-02
 Coeff-Com: -0.921D-02-0.123D-02 0.111D-01-0.711D-01 0.619D-01 0.766D-01
 Coeff-Com:  0.566D-01 0.375D+00 0.499D+00
 Coeff:     -0.164D-03-0.327D-05-0.110D-03 0.365D-03-0.473D-03 0.190D-02
 Coeff:     -0.921D-02-0.123D-02 0.111D-01-0.711D-01 0.619D-01 0.766D-01
 Coeff:      0.566D-01 0.375D+00 0.499D+00
 Gap=     0.103 Goal=   None    Shift=    0.000
 RMSDP=5.50D-06 MaxDP=6.09D-04 DE=-2.06D-06 OVMax= 6.31D-04

 Cycle  16  Pass 1  IDiag  1:
 E= -1236.53008582467     Delta-E=       -0.000001422448 Rises=F Damp=F
 DIIS: error= 1.40D-05 at cycle  16 NSaved=  16.
 NSaved=16 IEnMin=16 EnMin= -1236.53008582467     IErMin=16 ErrMin= 1.40D-05
 ErrMax= 1.40D-05  0.00D+00 EMaxC= 1.00D-01 BMatC= 1.62D-07 BMatP= 4.16D-06
 IDIUse=1 WtCom= 1.00D+00 WtEn= 0.00D+00
 Coeff-Com: -0.124D-03 0.100D-04-0.153D-04 0.553D-03 0.176D-03 0.870D-03
 Coeff-Com: -0.366D-02-0.927D-03 0.222D-03-0.323D-01 0.180D-01 0.248D-01
 Coeff-Com:  0.168D-01 0.162D+00 0.256D+00 0.558D+00
 Coeff:     -0.124D-03 0.100D-04-0.153D-04 0.553D-03 0.176D-03 0.870D-03
 Coeff:     -0.366D-02-0.927D-03 0.222D-03-0.323D-01 0.180D-01 0.248D-01
 Coeff:      0.168D-01 0.162D+00 0.256D+00 0.558D+00
 Gap=     0.102 Goal=   None    Shift=    0.000
 RMSDP=1.40D-06 MaxDP=1.10D-04 DE=-1.42D-06 OVMax= 1.91D-04

 Cycle  17  Pass 1  IDiag  1:
 E= -1236.53008581637     Delta-E=        0.000000008298 Rises=F Damp=F
 DIIS: error= 4.71D-06 at cycle  17 NSaved=  17.
 NSaved=17 IEnMin=16 EnMin= -1236.53008582467     IErMin=17 ErrMin= 4.71D-06
 ErrMax= 4.71D-06  0.00D+00 EMaxC= 1.00D-01 BMatC= 8.91D-09 BMatP= 1.62D-07
 IDIUse=1 WtCom= 1.00D+00 WtEn= 0.00D+00
 Coeff-Com: -0.368D-04 0.579D-05 0.439D-05 0.195D-03 0.952D-04 0.234D-03
 Coeff-Com: -0.807D-03 0.136D-03-0.736D-03-0.860D-02 0.266D-03 0.350D-02
 Coeff-Com:  0.382D-02 0.341D-01 0.654D-01 0.301D+00 0.601D+00
 Coeff:     -0.368D-04 0.579D-05 0.439D-05 0.195D-03 0.952D-04 0.234D-03
 Coeff:     -0.807D-03 0.136D-03-0.736D-03-0.860D-02 0.266D-03 0.350D-02
 Coeff:      0.382D-02 0.341D-01 0.654D-01 0.301D+00 0.601D+00
 Gap=     0.102 Goal=   None    Shift=    0.000
 RMSDP=3.11D-07 MaxDP=3.21D-05 DE= 8.30D-09 OVMax= 3.67D-05

 Cycle  18  Pass 1  IDiag  1:
 E= -1236.53008586269     Delta-E=       -0.000000046318 Rises=F Damp=F
 DIIS: error= 1.95D-06 at cycle  18 NSaved=  18.
 NSaved=18 IEnMin=18 EnMin= -1236.53008586269     IErMin=18 ErrMin= 1.95D-06
 ErrMax= 1.95D-06  0.00D+00 EMaxC= 1.00D-01 BMatC= 2.52D-09 BMatP= 8.91D-09
 IDIUse=1 WtCom= 1.00D+00 WtEn= 0.00D+00
 Coeff-Com: -0.352D-05 0.610D-06 0.274D-05 0.227D-04 0.124D-04 0.213D-04
 Coeff-Com:  0.235D-04 0.319D-03-0.142D-03-0.516D-03-0.227D-02-0.125D-02
 Coeff-Com:  0.123D-02-0.523D-02-0.178D-02 0.941D-01 0.405D+00 0.511D+00
 Coeff:     -0.352D-05 0.610D-06 0.274D-05 0.227D-04 0.124D-04 0.213D-04
 Coeff:      0.235D-04 0.319D-03-0.142D-03-0.516D-03-0.227D-02-0.125D-02
 Coeff:      0.123D-02-0.523D-02-0.178D-02 0.941D-01 0.405D+00 0.511D+00
 Gap=     0.102 Goal=   None    Shift=    0.000
 RMSDP=8.08D-08 MaxDP=3.54D-06 DE=-4.63D-08 OVMax= 9.50D-06

 Cycle  19  Pass 1  IDiag  1:
 E= -1236.53008585905     Delta-E=        0.000000003643 Rises=F Damp=F
 DIIS: error= 1.09D-06 at cycle  19 NSaved=  19.
 NSaved=19 IEnMin=18 EnMin= -1236.53008586269     IErMin=19 ErrMin= 1.09D-06
 ErrMax= 1.09D-06  0.00D+00 EMaxC= 1.00D-01 BMatC= 7.74D-10 BMatP= 2.52D-09
 IDIUse=1 WtCom= 1.00D+00 WtEn= 0.00D+00
 Coeff-Com:  0.564D-06-0.181D-06 0.415D-06-0.260D-05-0.455D-05-0.232D-06
 Coeff-Com:  0.463D-04 0.147D-03 0.869D-04 0.375D-03-0.108D-02-0.849D-03
 Coeff-Com:  0.923D-03-0.441D-02-0.450D-02 0.188D-01 0.154D+00 0.275D+00
 Coeff-Com:  0.561D+00
 Coeff:      0.564D-06-0.181D-06 0.415D-06-0.260D-05-0.455D-05-0.232D-06
 Coeff:      0.463D-04 0.147D-03 0.869D-04 0.375D-03-0.108D-02-0.849D-03
 Coeff:      0.923D-03-0.441D-02-0.450D-02 0.188D-01 0.154D+00 0.275D+00
 Coeff:      0.561D+00
 Gap=     0.102 Goal=   None    Shift=    0.000
 RMSDP=6.23D-08 MaxDP=5.22D-06 DE= 3.64D-09 OVMax= 7.70D-06

 Cycle  20  Pass 1  IDiag  1:
 E= -1236.53008585962     Delta-E=       -0.000000000570 Rises=F Damp=F
 DIIS: error= 4.02D-07 at cycle  20 NSaved=  20.
 NSaved=20 IEnMin=18 EnMin= -1236.53008586269     IErMin=20 ErrMin= 4.02D-07
 ErrMax= 4.02D-07  0.00D+00 EMaxC= 1.00D-01 BMatC= 1.06D-10 BMatP= 7.74D-10
 IDIUse=1 WtCom= 1.00D+00 WtEn= 0.00D+00
 Coeff-Com:  0.304D-06-0.102D-07 0.228D-06-0.226D-05-0.191D-05-0.219D-05
 Coeff-Com:  0.138D-04 0.169D-04-0.168D-04 0.219D-03-0.233D-03-0.320D-03
 Coeff-Com:  0.522D-03-0.158D-02-0.166D-02 0.133D-02 0.446D-01 0.931D-01
 Coeff-Com:  0.238D+00 0.626D+00
 Coeff:      0.304D-06-0.102D-07 0.228D-06-0.226D-05-0.191D-05-0.219D-05
 Coeff:      0.138D-04 0.169D-04-0.168D-04 0.219D-03-0.233D-03-0.320D-03
 Coeff:      0.522D-03-0.158D-02-0.166D-02 0.133D-02 0.446D-01 0.931D-01
 Coeff:      0.238D+00 0.626D+00
 Gap=     0.102 Goal=   None    Shift=    0.000
 RMSDP=5.60D-08 MaxDP=3.83D-06 DE=-5.70D-10 OVMax= 7.87D-06

 Cycle  21  Pass 1  IDiag  1:
 E= -1236.53008585991     Delta-E=       -0.000000000291 Rises=F Damp=F
 DIIS: error= 1.82D-08 at cycle  21 NSaved=  20.
 NSaved=20 IEnMin=17 EnMin= -1236.53008586269     IErMin=20 ErrMin= 1.82D-08
 ErrMax= 1.82D-08  0.00D+00 EMaxC= 1.00D-01 BMatC= 2.80D-13 BMatP= 1.06D-10
 IDIUse=1 WtCom= 1.00D+00 WtEn= 0.00D+00
[...]
  34         O                -0.410724          4.009189
  35         O                -0.404912          2.521577
  36         O                -0.362640          2.608621
  37         O                -0.347313          1.395264
  38         O                -0.346473          1.382908
  39         O                -0.322096          2.304033
  40         O                -0.318101          2.579809
  41         O                -0.301255          2.066215
  42         O                -0.288859          2.432536
  43         O                -0.286708          2.519978
  44         O                -0.278441          2.482304
  45         O                -0.277041          5.669874
  46         O                -0.253474          5.615593
  47         O                -0.220488          1.991847
  48         O                -0.217733          2.030863
  49         V                -0.115305        134.501591
  50         V                -0.108101          5.192267
  51         V                -0.105737          5.995266
  52         V                -0.101026         16.936502
  53         V                -0.095589        144.047091
  54         V                -0.076573         67.738836
  55         V                -0.069053         15.641054
  56         V                -0.037130          2.302292
  57         V                -0.025528          6.556492
  58         V                -0.021625         19.372263
  59         V                -0.013981          4.779404
  60         V                 0.009605          0.890416
  61         V                 0.015851          1.362009
  62         V                 0.026077          1.091067
  63         V                 0.031363          1.975647
  64         V                 0.038714          1.934725
  65         V                 0.058240          4.132511
  66         V                 0.059944          2.116174
  67         V                 0.071031          2.125405
  68         V                 0.084108          4.445913
  69         V                 0.099428          2.026396
  70         V                 0.105600          5.416899
  71         V                 0.128316          1.606351
  72         V                 0.139657          4.333691
  73         V                 0.149188          2.744438
  74         V                 0.177387          1.076700
  75         V                 0.195450          1.065494
  76         V                 0.206130          1.030139
  77         V                 0.210023          0.964977
  78         V                 0.242932          1.896267
  79         V                 0.251469          1.503809
  80         V                 0.261171          1.608683
  81         V                 0.271323          1.534624
  82         V                 0.273461          1.491055
  83         V                 0.280484          1.245515
  84         V                 0.284359          1.132680
  85         V                 0.295081          1.139886
  86         V                 0.305565          1.218482
  87         V                 0.309817          1.249893
  88         V                 0.310561          1.341367
  89         V                 0.316845          1.232774
  90         V                 0.342022          1.364104
  91         V                 0.350013          2.782950
  92         V                 0.368482          1.482345
  93         V                 0.384299          1.488590
  94         V                 0.397849          1.479881
  95         V                 0.410688          1.608024
  96         V                 0.426120          1.768194
  97         V                 0.429809          1.715959
  98         V                 0.438704          1.928126
  99         V                 0.444240          1.521054
 100         V                 0.460198          1.670157
 101         V                 0.472235          1.746621
 102         V                 0.485646          1.729465
 103         V                 0.496368          1.728571
 104         V                 0.527241          1.725432
 105         V                 0.531187          1.660886
 106         V                 0.536278          2.107038
 107         V                 0.545916          1.522808
 108         V                 0.569237          1.853714
 109         V                 0.575372          1.377149
 110         V                 0.583148          1.594796
 111         V                 0.603916          3.193600
 112         V                 0.614061          1.753949
 113         V                 0.618241          1.587883
 114         V                 0.636520          1.639590
 115         V                 0.637260          1.562453
 116         V                 0.648544          1.672351
 117         V                 0.673204          1.504635
 118         V                 0.689763          1.545595
 119         V                 0.701073          1.762294
 120         V                 0.704693          1.661766
 121         V                 0.728185          1.428165
 122         V                 0.739341          1.797718
 123         V                 0.781526          2.238585
 124         V                 0.831322          2.237774
 125         V                 0.843835          2.450805
 126         V                 0.878908          1.948432
 127         V                 0.886412          2.500782
 128         V                 0.928880          3.346215
 129         V                 0.974090          2.135902
 130         V                 0.984124          2.514782
 131         V                 1.037455          2.428104
 132         V                 1.056666          2.588828
 133         V                 1.064918          2.241023
 134         V                 1.075807          2.746786
 135         V                 1.090524          2.735534
 136         V                 1.119221          3.126850
 137         V                 1.130036          3.062992
 138         V                 1.140322          2.243377
 139         V                 1.148948          2.936387
 140         V                 1.149768          2.728002
 141         V                 1.163556          2.918083
 142         V                 1.166183          2.795476
 143         V                 1.176045          2.803532
 144         V                 1.195256          3.016544
 145         V                 1.218432          2.452644
 146         V                 1.229793          2.580776
 147         V                 1.247587          2.673062
 148         V                 1.258790          2.840213
 149         V                 1.262485          2.819509
 150         V                 1.283695          2.823759
 151         V                 1.310189          2.453248
 152         V                 1.320785          3.018732
 153         V                 1.374329          2.585812
 154         V                 1.389272          2.689109
 155         V                 1.401710          3.795474
 156         V                 1.402192          3.769064
 157         V                 1.416212          3.405220
 158         V                 1.429951          3.338340
 159         V                 1.434533          3.559238
 160         V                 1.441143          3.433297
 161         V                 1.461380          3.292278
 162         V                 1.472725          3.459845
 163         V                 1.491080          3.450629
 164         V                 1.509941          3.437362
 165         V                 1.548129          3.128721
 166         V                 1.574163          3.482360
 167         V                 1.582917          3.288703
 168         V                 1.585528          3.418755
 169         V                 1.600219          2.501174
 170         V                 1.600223          2.501284
 171         V                 1.603717          3.476838
 172         V                 1.637296          3.292474
 173         V                 1.647701          3.420858
 174         V                 1.657290          3.067064
 175         V                 1.680804          2.757264
 176         V                 1.685470          2.800986
 177         V                 1.690222          3.269517
 178         V                 1.709628          3.209250
 179         V                 1.716765          3.425995
 180         V                 1.742431          3.543078
 181         V                 1.749886          5.101934
 182         V                 1.756828          4.417815
 183         V                 1.769130          3.515576
 184         V                 1.814193          3.507027
 185         V                 1.822954          3.159985
 186         V                 1.829665          3.853479
 187         V                 1.871723          3.520696
 188         V                 1.878789          3.655444
 189         V                 1.890051          3.306829
 190         V                 1.914604          3.887599
 191         V                 1.922020          3.797743
 192         V                 2.015001          3.539603
 193         V                 2.036992          3.091549
 194         V                 2.049500          3.934638
 195         V                 2.082408          3.937139
 196         V                 2.107685          3.546361
 197         V                 2.117736          3.985246
 198         V                 2.133184          4.256906
 199         V                 2.138251          4.628678
 200         V                 2.145843          4.134542
 201         V                 2.165205          3.695885
 202         V                 2.190502          4.188719
 203         V                 2.236050          4.148414
 204         V                 2.260857          4.125853
 205         V                 2.295235          5.270404
 206         V                 2.321772          4.875518
 207         V                 2.369934          5.480473
 208         V                 2.463401          4.677207
 209         V                 2.472365          5.322528
 210         V                 2.478665          4.569199
 211         V                 2.499143          4.701778
 212         V                 2.531149          6.565976
 213         V                 2.567452          5.927505
 214         V                 2.574403          5.005839
 215         V                 2.577855          3.466980
 216         V                 2.578227          3.477882
 217         V                 2.585022          5.548922
 218         V                 2.611790          6.765549
 219         V                 2.629253          6.473911
 220         V                 2.647737          5.162756
 221         V                 2.651444          4.818551
 222         V                 2.666846          5.617419
 223         V                 2.675488          5.906427
 224         V                 2.749446          6.361021
 225         V                 2.816825          4.172308
 226         V                 2.830725          4.482783
 227         V                 2.851195          6.519147
 228         V                 2.867848          5.301436
 229         V                 2.881810          4.348974
 230         V                 2.883316          5.865465
 231         V                 2.890288          6.294942
 232         V                 2.964212          6.172072
 233         V                 3.012359          5.001852
 234         V                 3.019924          5.278945
 235         V                 3.079651          7.180382
 236         V                 3.191095          7.282780
 237         V                 3.278085          5.666360
 238         V                 3.377867          8.159454
 239         V                 3.501352          5.627715
 240         V                 3.513203          5.868071
 241         V                 3.542875          6.172561
 242         V                 3.612544          7.903399
 243         V                 3.671632          6.040285
 244         V                 3.694969          7.613683
 245         V                 3.705223          8.420184
 246         V                 3.725829          8.144332
 247         V                 3.807244          7.643242
 248         V                 3.824570          8.007972
 249         V                 3.857203          6.487036
 250         V                 3.861744          5.702428
 251         V                 3.870421          7.387443
 252         V                 3.928689          9.146829
 253         V                 3.942583          8.634985
 254         V                 4.055521          9.489089
 255         V                 4.143599          9.615275
 256         V                 4.272346          7.776530
 257         V                 4.288150          8.214994
 258         V                 4.384156          6.033323
 259         V                 4.409302          6.182632
 260         V                 4.491644          6.417955
 261         V                 4.524908          6.611608
 262         V                 4.968710          6.618362
 263         V                 4.974833          6.861622
 264         V                 4.989548          7.019872
 265         V                 5.007058          6.453939
 266         V                 5.017910          6.505208
 267         V                 5.019885          6.553702
 268         V                 5.026033          6.517661
 269         V                 5.033603          6.494048
 270         V                 5.046965          6.498136
 271         V                 5.084239          6.709204
 272         V                 5.098917          6.807126
 273         V                 5.102788          6.644216
 274         V                 5.122712          6.734077
 275         V                 5.139076          6.789917
 276         V                 5.148023          6.737001
 277         V                 5.166825          6.864618
 278         V                 5.203663          6.905766
 279         V                 5.222966          6.977077
 280         V                 5.239196          6.914117
 281         V                 5.249997          6.848971
 282         V                 5.302300          7.754817
 283         V                 5.312906          6.955643
 284         V                 5.330453          7.275365
 285         V                 5.340399          6.975909
 286         V                 5.388611          7.370951
 287         V                 5.410879          7.303414
 288         V                 5.418569          7.292348
 289         V                 5.439920          7.273978
 290         V                 5.618141          8.781154
 291         V                 5.775835          9.237881
 292         V                 5.841111          8.525350
 293         V                 6.053798          9.097499
 294         V                 6.071170          9.149936
 295         V                 6.111751          8.978029
 296         V                 6.156310          9.266462
 297         V                 6.184473          9.732936
 298         V                 6.189197          9.667028
 299         V                 6.207617         10.611824
 300         V                 6.222588          9.541059
 301         V                 6.229316          9.479148
 302         V                 6.247431          9.419434
 303         V                 6.307780          9.460264
 304         V                 6.341838          9.457180
 305         V                 6.408019          9.633721
 306         V                 6.421945          9.607685
 307         V                 6.540737          9.926974
 308         V                 6.576786          9.733602
 309         V                 6.610709          9.706901
 310         V                 6.670975         10.600589
 311         V                 6.738812         10.128381
 312         V                 6.765416          9.493654
 313         V                 6.827187         10.659843
 314         V                 6.865376          9.867357
 315         V                 6.920125          9.838609
 316         V                 6.997791         10.480440
 317         V                 7.256500         13.161551
 318         V                 7.389408         13.962692
 319         V                 7.472315         13.690258
 320         V                 8.125111         15.795559
 321         V                 8.184918         15.818629
 322         V                 8.212674         15.810471
 323         V                 8.662708         16.086335
 324         V                 8.723606         27.835715
 325         V                 8.723820         27.837612
 326         V                 9.003571         16.347854
 327         V                 9.245085         27.978332
 328         V                20.151940         37.508850
 329         V                22.552914         55.123139
 330         V                29.309967         36.028920
 331         V                29.462350         36.338675
 332         V                29.482390         36.189433
 333         V                32.152801         80.217217
 334         V                43.067055        108.491927
 335         V                43.193354        108.548498
 336         V                43.408007        108.747099
 337         V                43.568185        108.913830
 338         V                54.114688         40.000243
 339         V                70.222114         83.947510
 340         V                70.308919         84.119013
 341         V                70.322553         84.122252
 342         V               142.608796        242.427036
 343         V               142.783192        242.645080
 344         V               142.797684        242.661829
 345         V               202.608573        130.096911
 346         V               626.117152       1034.517017
 Total kinetic energy from orbitals= 9.570037627552D+02
 No NMR shielding tensors so no spin-rotation constants.
 Leave Link  601 at Wed Jul  5 10:37:20 2023, MaxMem=  2147483648 cpu:               3.7 elap:               0.5
 (Enter /home/pcmt/gaussian/g16.C.01/g16/l9999.exe)

 Test job not archived.
 1\1\GINC-U-0-0\SP\RBP86\Gen\C1H4N1O4Pa1S1\ROOT\05-Jul-2023\0\\#p BP86/
 GEN Pseudo=Read GFInput GFPrint IOP(6/7=3) Symm=(Loose) Int=(UltraFine
 ) Guess=(Harris) SCRF=(COSMORS) Scf=(NoVarAcc,MaxCycle=100,conver=8)\\
 pao_oh2_ncs_h2o-bp86-cosmors-deftzvp-klamt.com SGP in PCM calculation\
 \0,1\Pa,0,-0.6174548015,-0.0884829757,0.6259873885\O,0,0.711642005,1.4
 683779965,0.0141050884\O,0,-1.9337325571,0.5335588975,-0.8870627877\N,
 0,-1.6662879185,1.3703377045,2.2497293692\H,0,-1.9375696979,1.29927157
 36,-1.478041711\O,0,0.3526822702,-1.6534869132,-1.0720311711\H,0,0.200
 7508193,-1.619657258,-2.0256602784\H,0,1.1495506928,-2.1810707877,-0.9
 301053651\H,0,1.5833283296,1.6767066867,0.3707178226\O,0,0.5295474107,
 -0.8671226343,1.8633441804\S,0,-2.526742925,3.3361520312,4.0384360272\
 C,0,-2.0286219133,2.1997104028,3.0044058093\\Version=ES64L-G16RevC.01\
 State=1-A\HF=-1236.5300859\RMSD=1.044e-09\Dipole=1.463061,-3.6336206,-
 4.7147536\Quadrupole=0.8701319,-0.1607258,-0.7094061,3.3901952,-0.8367
 476,-0.1664244\PG=C01 [X(C1H4N1O4Pa1S1)]\\@


 WE THE UNWILLING
 LED BY THE UNQUALIFIED
 HAVE BEEN DOING THE UNBELIEVABLE SO LONG WITH SO LITTLE
 THAT WE NOW ATTEMPT THE IMPOSSIBLE WITH NOTHING.

                                    -- ANONYMOUS
 Job cpu time:       0 days  0 hours 15 minutes 41.9 seconds.
 Elapsed time:       0 days  0 hours  3 minutes 14.9 seconds.
 File lengths (MBytes):  RWF=     62 Int=      0 D2E=      0 Chk=      9 Scr=      1
 Normal termination of Gaussian 16 at Wed Jul  5 10:37:20 2023.
