 Entering Gaussian System, Link 0=/home/pcmt/gaussian/g16.C.01/g16/g16
 AtFile(1): /home/shaaban/basis.gaussian/Pa-def-TZVP
 AtFile(1): /home/shaaban/basis.gaussian/Pa-ECP60MWB
 Initial command:
 /home/pcmt/gaussian/g16.C.01/g16/l1.exe "/state/partition2/shaaban/972884.phlam-s-sakura/Gau-38701.inp" -scrdir="/state/partition2/shaaban/972884.phlam-s-sakura/"
 Entering Link 1 = /home/pcmt/gaussian/g16.C.01/g16/l1.exe PID=     38704.
  
 Copyright (c) 1988-2019, Gaussian, Inc.  All Rights Reserved.
  
 This is part of the Gaussian(R) 16 program.  It is based on
 the Gaussian(R) 09 system (copyright 2009, Gaussian, Inc.),
 the Gaussian(R) 03 system (copyright 2003, Gaussian, Inc.),
 the Gaussian(R) 98 system (copyright 1998, Gaussian, Inc.),
 the Gaussian(R) 94 system (copyright 1995, Gaussian, Inc.),
 the Gaussian 92(TM) system (copyright 1992, Gaussian, Inc.),
 the Gaussian 90(TM) system (copyright 1990, Gaussian, Inc.),
 the Gaussian 88(TM) system (copyright 1988, Gaussian, Inc.),
 the Gaussian 86(TM) system (copyright 1986, Carnegie Mellon
 University), and the Gaussian 82(TM) system (copyright 1983,
 Carnegie Mellon University). Gaussian is a federally registered
 trademark of Gaussian, Inc.
  
 This software contains proprietary and confidential information,
 including trade secrets, belonging to Gaussian, Inc.
  
 This software is provided under written license and may be
 used, copied, transmitted, or stored only in accord with that
 written license.
  
 The following legend is applicable only to US Government
 contracts under FAR:
  
                    RESTRICTED RIGHTS LEGEND
  
 Use, reproduction and disclosure by the US Government is
 subject to restrictions as set forth in subparagraphs (a)
 and (c) of the Commercial Computer Software - Restricted
 Rights clause in FAR 52.227-19.
  
 Gaussian, Inc.
 340 Quinnipiac St., Bldg. 40, Wallingford CT 06492
  
  
 ---------------------------------------------------------------
 Warning -- This program may not be used in any manner that
 competes with the business of Gaussian, Inc. or will provide
 assistance to any competitor of Gaussian, Inc.  The licensee
 of this program is prohibited from giving any competitor of
 Gaussian, Inc. access to this program.  By using this program,
 the user acknowledges that Gaussian, Inc. is engaged in the
 business of creating and licensing software in the field of
 computational chemistry and represents and warrants to the
 licensee that it is not a competitor of Gaussian, Inc. and that
 it will not use this program in any manner prohibited above.
 ---------------------------------------------------------------
  

 Cite this work as:
 Gaussian 16, Revision C.01,
 M. J. Frisch, G. W. Trucks, H. B. Schlegel, G. E. Scuseria, 
 M. A. Robb, J. R. Cheeseman, G. Scalmani, V. Barone, 
 G. A. Petersson, H. Nakatsuji, X. Li, M. Caricato, A. V. Marenich, 
 J. Bloino, B. G. Janesko, R. Gomperts, B. Mennucci, H. P. Hratchian, 
 J. V. Ortiz, A. F. Izmaylov, J. L. Sonnenberg, D. Williams-Young, 
 F. Ding, F. Lipparini, F. Egidi, J. Goings, B. Peng, A. Petrone, 
 T. Henderson, D. Ranasinghe, V. G. Zakrzewski, J. Gao, N. Rega, 
 G. Zheng, W. Liang, M. Hada, M. Ehara, K. Toyota, R. Fukuda, 
 J. Hasegawa, M. Ishida, T. Nakajima, Y. Honda, O. Kitao, H. Nakai, 
 T. Vreven, K. Throssell, J. A. Montgomery, Jr., J. E. Peralta, 
 F. Ogliaro, M. J. Bearpark, J. J. Heyd, E. N. Brothers, K. N. Kudin, 
 V. N. Staroverov, T. A. Keith, R. Kobayashi, J. Normand, 
 K. Raghavachari, A. P. Rendell, J. C. Burant, S. S. Iyengar, 
 J. Tomasi, M. Cossi, J. M. Millam, M. Klene, C. Adamo, R. Cammi, 
 J. W. Ochterski, R. L. Martin, K. Morokuma, O. Farkas, 
 J. B. Foresman, and D. J. Fox, Gaussian, Inc., Wallingford CT, 2019.
 
 ******************************************
 Gaussian 16:  ES64L-G16RevC.01  3-Jul-2019
                 4-Jul-2023 
 ******************************************
 %mem=16Gb
 %NProc=8
 Will use up to    8 processors via shared memory.
 %chk=pa_oh4_br-bp86-cosmors-deftzvp-gp.chk
 ----------------------------------------------------------------------
 #p BP86/GEN Pseudo=Read GFInput GFPrint IOP(6/7=3) Symm=(Loose) Int=(U
 ltraFine) Guess=(Harris) Scf=(NoVarAcc,MaxCycle=100,conver=8)
 ----------------------------------------------------------------------
 1/38=1,172=1/1;
 2/12=2,17=4,18=3,40=1/2;
 3/5=7,11=2,16=1,17=8,24=110,25=1,30=1,74=404,75=-5/1,2,3;
 4/11=8/1;
 5/5=2,6=8,7=100,38=1/2;
 6/7=3,8=2,9=2,10=2,28=1/1;
 99/5=1,9=1/99;
 Leave Link    1 at Tue Jul  4 11:12:53 2023, MaxMem=  2147483648 cpu:               0.7 elap:               0.1
 (Enter /home/pcmt/gaussian/g16.C.01/g16/l101.exe)
 ------------------------------------------------------------
 pa_oh4_br-bp86-cosmors-deftzvp-gp.com SGP in PCM calculation
 ------------------------------------------------------------
 Symbolic Z-matrix:
 Charge =  0 Multiplicity = 1
 Pa                    0.4347    0.09268   0.31352 
 O                     1.16787   1.76559  -0.69826 
 H                     1.23458   2.17154  -1.57201 
 O                    -1.52397   0.8392    0.18782 
 H                    -2.00815   1.52657  -0.28532 
 O                     0.40115  -1.03053  -1.44389 
 H                     0.01134  -1.81831  -1.83944 
 O                    -0.25714  -1.47872   1.51119 
 H                    -1.0995   -1.90025   1.72594 
 Br                    3.13206  -0.62239   1.01199 
 
 ITRead=  0  0  0  0  0  0  0  0  0  0
 MicOpt= -1 -1 -1 -1 -1 -1 -1 -1 -1 -1
 NAtoms=     10 NQM=       10 NQMF=       0 NMMI=      0 NMMIF=      0
                NMic=       0 NMicF=      0.
                    Isotopes and Nuclear Properties:
 (Nuclear quadrupole moments (NQMom) in fm**2, nuclear magnetic moments (NMagM)
  in nuclear magnetons)

  Atom         1           2           3           4           5           6           7           8           9          10
 IAtWgt=         231          16           1          16           1          16           1          16           1          79
 AtmWgt= 231.0359000  15.9949146   1.0078250  15.9949146   1.0078250  15.9949146   1.0078250  15.9949146   1.0078250  78.9183361
 NucSpn=           3           0           1           0           1           0           1           0           1           3
 AtZEff=  -0.0000000  -0.0000000  -0.0000000  -0.0000000  -0.0000000  -0.0000000  -0.0000000  -0.0000000  -0.0000000  -0.0000000
 NQMom= -172.0000000   0.0000000   0.0000000   0.0000000   0.0000000   0.0000000   0.0000000   0.0000000   0.0000000  31.3000000
 NMagM=    2.0100000   0.0000000   2.7928460   0.0000000   2.7928460   0.0000000   2.7928460   0.0000000   2.7928460   2.1063990
 AtZNuc=  91.0000000   8.0000000   1.0000000   8.0000000   1.0000000   8.0000000   1.0000000   8.0000000   1.0000000  35.0000000
 Leave Link  101 at Tue Jul  4 11:12:53 2023, MaxMem=  2147483648 cpu:               1.1 elap:               0.2
 (Enter /home/pcmt/gaussian/g16.C.01/g16/l202.exe)
                          Input orientation:                          
 ---------------------------------------------------------------------
 Center     Atomic      Atomic             Coordinates (Angstroms)
 Number     Number       Type             X           Y           Z
 ---------------------------------------------------------------------
      1         91           0        0.434696    0.092679    0.313523
      2          8           0        1.167867    1.765591   -0.698262
      3          1           0        1.234585    2.171542   -1.572014
      4          8           0       -1.523966    0.839201    0.187822
      5          1           0       -2.008150    1.526570   -0.285318
      6          8           0        0.401145   -1.030531   -1.443893
      7          1           0        0.011339   -1.818310   -1.839435
      8          8           0       -0.257143   -1.478723    1.511189
      9          1           0       -1.099496   -1.900251    1.725938
     10         35           0        3.132057   -0.622391    1.011994
 ---------------------------------------------------------------------
                    Distance matrix (angstroms):
                    1          2          3          4          5
     1  Pa   0.000000
     2  O    2.088034   0.000000
     3  H    2.918346   0.965758   0.000000
     4  O    2.099869   2.981494   3.532953   0.000000
     5  H    2.895195   3.211657   3.547803   0.964765   0.000000
     6  O    2.085962   2.993682   3.311240   3.140772   3.699428
     7  H    2.909697   3.934995   4.181718   3.678220   4.204979
     8  O    2.093406   4.175872   5.005580   2.954473   3.914748
     9  H    2.884515   4.945309   5.736194   3.170264   4.076016
    10  Br   2.876621   3.533479   4.252477   4.949148   5.720383
                    6          7          8          9         10
     6  O    0.000000
     7  H    0.963845   0.000000
     8  O    3.060512   3.378474   0.000000
     9  H    3.613332   3.735312   0.966107   0.000000
    10  Br   3.695381   4.393148   3.531173   4.477576   0.000000
 Stoichiometry    BrH4O4Pa
 Framework group  C1[X(BrH4O4Pa)]
 Deg. of freedom    24
 Full point group                 C1      NOp   1
 Largest Abelian subgroup         C1      NOp   1
 Largest concise Abelian subgroup C1      NOp   1
                         Standard orientation:                         
 ---------------------------------------------------------------------
 Center     Atomic      Atomic             Coordinates (Angstroms)
 Number     Number       Type             X           Y           Z
 ---------------------------------------------------------------------
      1         91           0        0.488177   -0.003466   -0.091901
      2          8           0        0.464189    2.080639   -0.217669
      3          1           0        0.720835    2.885363    0.250562
      4          8           0        2.536132   -0.036609   -0.554755
      5          1           0        3.276331    0.579705   -0.609836
      6          8           0        0.688800    0.063855    1.983300
      7          1           0        0.961585   -0.464691    2.741736
      8          8           0        0.451345   -2.094975   -0.173040
      9          1           0        1.083399   -2.825292   -0.150543
     10         35           0       -2.388285    0.001059   -0.062047
 ---------------------------------------------------------------------
 Rotational constants (GHZ):           2.1437490           0.7067984           0.6378366
 Leave Link  202 at Tue Jul  4 11:12:53 2023, MaxMem=  2147483648 cpu:               0.1 elap:               0.1
 (Enter /home/pcmt/gaussian/g16.C.01/g16/l301.exe)
 General basis read from cards:  (5D, 7F)
 Centers:       1
 S 3 1.00
     Exponent=  1.2047376000D+04 Coefficients=  3.4500000000D-04
     Exponent=  1.8116841000D+03 Coefficients=  2.7420000000D-03
     Exponent=  3.4770104000D+02 Coefficients=  1.0053000000D-02
 S 1 1.00
     Exponent=  9.8678010000D+01 Coefficients=  1.0000000000D+00
 S 3 1.00
     Exponent=  5.7507376000D+01 Coefficients=  5.1528000000D-02
     Exponent=  3.3502601000D+01 Coefficients= -2.3692400000D-01
     Exponent=  1.9554451000D+01 Coefficients=  7.1904800000D-01
 S 1 1.00
     Exponent=  9.7164210000D+00 Coefficients=  1.0000000000D+00
 S 1 1.00
     Exponent=  2.6920960000D+00 Coefficients=  1.0000000000D+00
 S 1 1.00
     Exponent=  1.4538470000D+00 Coefficients=  1.0000000000D+00
 S 1 1.00
     Exponent=  5.7435200000D-01 Coefficients=  1.0000000000D+00
 S 1 1.00
     Exponent=  2.6346800000D-01 Coefficients=  1.0000000000D+00
 S 1 1.00
     Exponent=  5.6557000000D-02 Coefficients=  1.0000000000D+00
 S 1 1.00
     Exponent=  2.3169000000D-02 Coefficients=  1.0000000000D+00
 P 5 1.00
     Exponent=  2.9033676000D+03 Coefficients=  3.5000000000D-05
     Exponent=  6.4486356000D+02 Coefficients=  2.0500000000D-04
     Exponent=  2.2025896000D+02 Coefficients=  1.2510000000D-03
     Exponent=  8.0276401000D+01 Coefficients=  2.4570000000D-03
     Exponent=  2.4080211000D+01 Coefficients=  1.1190000000D-02
 P 1 1.00
     Exponent=  1.4077580000D+01 Coefficients=  1.0000000000D+00
 P 1 1.00
     Exponent=  8.2658460000D+00 Coefficients=  1.0000000000D+00
 P 1 1.00
     Exponent=  3.5948000000D+00 Coefficients=  1.0000000000D+00
 P 1 1.00
     Exponent=  1.7531110000D+00 Coefficients=  1.0000000000D+00
 P 1 1.00
     Exponent=  6.5776700000D-01 Coefficients=  1.0000000000D+00
 P 1 1.00
     Exponent=  2.8463900000D-01 Coefficients=  1.0000000000D+00
 P 1 1.00
     Exponent=  1.0054300000D-01 Coefficients=  1.0000000000D+00
 P 1 1.00
     Exponent=  3.0190000000D-02 Coefficients=  1.0000000000D+00
 D 6 1.00
     Exponent=  4.4814991000D+02 Coefficients=  2.6000000000D-05
     Exponent=  1.5446145000D+02 Coefficients=  2.2800000000D-04
     Exponent=  6.0925377000D+01 Coefficients=  9.0400000000D-04
     Exponent=  1.7032091000D+01 Coefficients=  2.5647000000D-02
     Exponent=  1.0018877000D+01 Coefficients= -1.0575100000D-01
     Exponent=  3.4091930000D+00 Coefficients=  4.4743200000D-01
 D 1 1.00
     Exponent=  1.6702130000D+00 Coefficients=  1.0000000000D+00
 D 1 1.00
     Exponent=  7.4109500000D-01 Coefficients=  1.0000000000D+00
 D 1 1.00
     Exponent=  2.6139300000D-01 Coefficients=  1.0000000000D+00
 D 1 1.00
     Exponent=  8.2811000000D-02 Coefficients=  1.0000000000D+00
 F 5 1.00
     Exponent=  8.7991327000D+01 Coefficients=  2.2600000000D-04
     Exponent=  2.8340195000D+01 Coefficients=  2.3230000000D-03
     Exponent=  1.2440994000D+01 Coefficients=  4.5850000000D-03
     Exponent=  3.9572960000D+00 Coefficients=  1.5696100000D-01
     Exponent=  1.8759440000D+00 Coefficients=  3.4497700000D-01
 F 1 1.00
     Exponent=  8.2758900000D-01 Coefficients=  1.0000000000D+00
 F 1 1.00
     Exponent=  3.3274800000D-01 Coefficients=  1.0000000000D+00
 F 1 1.00
     Exponent=  1.1468500000D-01 Coefficients=  1.0000000000D+00
 G 1 1.00
     Exponent=  3.5000000000D-01 Coefficients=  1.0000000000D+00
 ****
 Centers:       2      4      6      8
 Def2TZVP
 ****
 Centers:       3      5      7      9
 Def2TZVP
 ****
 Centers:      10
 Def2TZVP
 ****
 ======================================================================================================
                                       Pseudopotential Parameters
 ======================================================================================================
  Center     Atomic      Valence      Angular      Power
  Number     Number     Electrons     Momentum     of R      Exponent        Coefficient   SO-Coeffient
 ======================================================================================================
    1         91           31
                                      H and up 
                                                     2        1.0000000        0.00000000    0.00000000
                                      S - H
                                                     2       15.2691737      475.47573283    0.00000000
                                      P - H
                                                     2        9.9577370      207.66485962    0.00000000
                                      D - H
                                                     2        8.9431413      156.67411988    0.00000000
                                      F - H
                                                     2        7.0104666       67.98223685    0.00000000
                                      G - H
                                                     2       12.2010560      -57.63059989    0.00000000
    2          8
                                   No pseudopotential on this center.
    3          1
                                   No pseudopotential on this center.
    4          8
                                   No pseudopotential on this center.
    5          1
                                   No pseudopotential on this center.
    6          8
                                   No pseudopotential on this center.
    7          1
                                   No pseudopotential on this center.
    8          8
                                   No pseudopotential on this center.
    9          1
                                   No pseudopotential on this center.
   10         35
                                   No pseudopotential on this center.
 ======================================================================================================
 Ernie: Thresh=  0.10000D-02 Tol=  0.10000D-05 Strict=F.
 AO basis set in the form of general basis input (Overlap normalization):
      1 0
 S   3 1.00       0.000000000000
      0.1204737600D+05  0.2857094961D-01
      0.1811684100D+04  0.2270769386D+00
      0.3477010400D+03  0.8325326273D+00
 S   3 1.00       0.000000000000
      0.5750737600D+02  0.9569327984D-01
      0.3350260100D+02 -0.4399944619D+00
      0.1955445100D+02  0.1335352847D+01
 S   1 1.00       0.000000000000
      0.9867801000D+02  0.1000000000D+01
 S   1 1.00       0.000000000000
      0.9716421000D+01  0.1000000000D+01
 S   1 1.00       0.000000000000
      0.2692096000D+01  0.1000000000D+01
 S   1 1.00       0.000000000000
      0.1453847000D+01  0.1000000000D+01
 S   1 1.00       0.000000000000
      0.5743520000D+00  0.1000000000D+01
 S   1 1.00       0.000000000000
      0.2634680000D+00  0.1000000000D+01
 S   1 1.00       0.000000000000
      0.5655700000D-01  0.1000000000D+01
 S   1 1.00       0.000000000000
      0.2316900000D-01  0.1000000000D+01
 P   5 1.00       0.000000000000
      0.2903367600D+04  0.2594222647D-02
      0.6448635600D+03  0.1519473264D-01
      0.2202589600D+03  0.9272492945D-01
      0.8027640100D+02  0.1821144298D+00
      0.2408021100D+02  0.8294100404D+00
 P   1 1.00       0.000000000000
      0.1407758000D+02  0.1000000000D+01
 P   1 1.00       0.000000000000
      0.8265846000D+01  0.1000000000D+01
 P   1 1.00       0.000000000000
      0.3594800000D+01  0.1000000000D+01
 P   1 1.00       0.000000000000
      0.1753111000D+01  0.1000000000D+01
 P   1 1.00       0.000000000000
      0.6577670000D+00  0.1000000000D+01
 P   1 1.00       0.000000000000
      0.2846390000D+00  0.1000000000D+01
 P   1 1.00       0.000000000000
      0.1005430000D+00  0.1000000000D+01
 P   1 1.00       0.000000000000
      0.3019000000D-01  0.1000000000D+01
 D   6 1.00       0.000000000000
      0.4481499100D+03  0.6556927566D-04
      0.1544614500D+03  0.5749921096D-03
      0.6092537700D+02  0.2279793277D-02
      0.1703209100D+02  0.6467904664D-01
      0.1001887700D+02 -0.2666929411D+00
      0.3409193000D+01  0.1128376621D+01
 D   1 1.00       0.000000000000
      0.1670213000D+01  0.1000000000D+01
 D   1 1.00       0.000000000000
      0.7410950000D+00  0.1000000000D+01
 D   1 1.00       0.000000000000
      0.2613930000D+00  0.1000000000D+01
 D   1 1.00       0.000000000000
      0.8281100000D-01  0.1000000000D+01
 F   5 1.00       0.000000000000
      0.8799132700D+02  0.4766318191D-03
      0.2834019500D+02  0.4899184583D-02
      0.1244099400D+02  0.9669720755D-02
      0.3957296000D+01  0.3310292343D+00
      0.1875944000D+01  0.7275531640D+00
 F   1 1.00       0.000000000000
      0.8275890000D+00  0.1000000000D+01
 F   1 1.00       0.000000000000
      0.3327480000D+00  0.1000000000D+01
 F   1 1.00       0.000000000000
      0.1146850000D+00  0.1000000000D+01
 G   1 1.00       0.000000000000
      0.3500000000D+00  0.1000000000D+01
 ****
      2 0
 S   6 1.00       0.000000000000
      0.2703238263D+05  0.5722733521D-03
      0.4052387139D+04  0.4435323349D-02
      0.9223272271D+03  0.2302010771D-01
      0.2612407099D+03  0.9282249067D-01
      0.8535464135D+02  0.2937850001D+00
      0.3103503524D+02  0.6740160450D+00
 S   2 1.00       0.000000000000
      0.1226086073D+02  0.6383993703D+00
      0.4998707601D+01  0.3953458713D+00
 S   1 1.00       0.000000000000
      0.1170310816D+01  0.1000000000D+01
 S   1 1.00       0.000000000000
      0.4647474099D+00  0.1000000000D+01
 S   1 1.00       0.000000000000
      0.1850453636D+00  0.1000000000D+01
 P   4 1.00       0.000000000000
      0.6327495480D+02  0.1201833222D-01
      0.1462704938D+02  0.8300542179D-01
      0.4450122346D+01  0.3199174393D+00
      0.1527579965D+01  0.7071554292D+00
 P   1 1.00       0.000000000000
      0.5293511794D+00  0.1000000000D+01
 P   1 1.00       0.000000000000
      0.1747842127D+00  0.1000000000D+01
 D   1 1.00       0.000000000000
      0.2314000000D+01  0.1000000000D+01
 D   1 1.00       0.000000000000
      0.6450000000D+00  0.1000000000D+01
 F   1 1.00       0.000000000000
      0.1428000000D+01  0.1000000000D+01
 ****
      3 0
 S   3 1.00       0.000000000000
      0.3406134100D+02  0.2543930721D-01
      0.5123574600D+01  0.1900859489D+00
      0.1164662600D+01  0.8524411301D+00
 S   1 1.00       0.000000000000
      0.3272304100D+00  0.1000000000D+01
 S   1 1.00       0.000000000000
      0.1030724100D+00  0.1000000000D+01
 P   1 1.00       0.000000000000
      0.8000000000D+00  0.1000000000D+01
 ****
      4 0
 S   6 1.00       0.000000000000
      0.2703238263D+05  0.5722733521D-03
      0.4052387139D+04  0.4435323349D-02
      0.9223272271D+03  0.2302010771D-01
      0.2612407099D+03  0.9282249067D-01
      0.8535464135D+02  0.2937850001D+00
      0.3103503524D+02  0.6740160450D+00
 S   2 1.00       0.000000000000
      0.1226086073D+02  0.6383993703D+00
      0.4998707601D+01  0.3953458713D+00
 S   1 1.00       0.000000000000
      0.1170310816D+01  0.1000000000D+01
 S   1 1.00       0.000000000000
      0.4647474099D+00  0.1000000000D+01
 S   1 1.00       0.000000000000
      0.1850453636D+00  0.1000000000D+01
 P   4 1.00       0.000000000000
      0.6327495480D+02  0.1201833222D-01
      0.1462704938D+02  0.8300542179D-01
      0.4450122346D+01  0.3199174393D+00
      0.1527579965D+01  0.7071554292D+00
 P   1 1.00       0.000000000000
      0.5293511794D+00  0.1000000000D+01
 P   1 1.00       0.000000000000
      0.1747842127D+00  0.1000000000D+01
 D   1 1.00       0.000000000000
      0.2314000000D+01  0.1000000000D+01
 D   1 1.00       0.000000000000
      0.6450000000D+00  0.1000000000D+01
 F   1 1.00       0.000000000000
      0.1428000000D+01  0.1000000000D+01
 ****
      5 0
 S   3 1.00       0.000000000000
      0.3406134100D+02  0.2543930721D-01
      0.5123574600D+01  0.1900859489D+00
      0.1164662600D+01  0.8524411301D+00
 S   1 1.00       0.000000000000
      0.3272304100D+00  0.1000000000D+01
 S   1 1.00       0.000000000000
      0.1030724100D+00  0.1000000000D+01
 P   1 1.00       0.000000000000
      0.8000000000D+00  0.1000000000D+01
 ****
      6 0
 S   6 1.00       0.000000000000
      0.2703238263D+05  0.5722733521D-03
      0.4052387139D+04  0.4435323349D-02
      0.9223272271D+03  0.2302010771D-01
      0.2612407099D+03  0.9282249067D-01
      0.8535464135D+02  0.2937850001D+00
      0.3103503524D+02  0.6740160450D+00
 S   2 1.00       0.000000000000
      0.1226086073D+02  0.6383993703D+00
      0.4998707601D+01  0.3953458713D+00
 S   1 1.00       0.000000000000
      0.1170310816D+01  0.1000000000D+01
 S   1 1.00       0.000000000000
      0.4647474099D+00  0.1000000000D+01
 S   1 1.00       0.000000000000
      0.1850453636D+00  0.1000000000D+01
 P   4 1.00       0.000000000000
      0.6327495480D+02  0.1201833222D-01
      0.1462704938D+02  0.8300542179D-01
      0.4450122346D+01  0.3199174393D+00
      0.1527579965D+01  0.7071554292D+00
 P   1 1.00       0.000000000000
      0.5293511794D+00  0.1000000000D+01
 P   1 1.00       0.000000000000
      0.1747842127D+00  0.1000000000D+01
 D   1 1.00       0.000000000000
      0.2314000000D+01  0.1000000000D+01
 D   1 1.00       0.000000000000
      0.6450000000D+00  0.1000000000D+01
 F   1 1.00       0.000000000000
      0.1428000000D+01  0.1000000000D+01
 ****
      7 0
 S   3 1.00       0.000000000000
      0.3406134100D+02  0.2543930721D-01
      0.5123574600D+01  0.1900859489D+00
      0.1164662600D+01  0.8524411301D+00
 S   1 1.00       0.000000000000
      0.3272304100D+00  0.1000000000D+01
 S   1 1.00       0.000000000000
      0.1030724100D+00  0.1000000000D+01
 P   1 1.00       0.000000000000
      0.8000000000D+00  0.1000000000D+01
 ****
      8 0
 S   6 1.00       0.000000000000
      0.2703238263D+05  0.5722733521D-03
      0.4052387139D+04  0.4435323349D-02
      0.9223272271D+03  0.2302010771D-01
      0.2612407099D+03  0.9282249067D-01
      0.8535464135D+02  0.2937850001D+00
      0.3103503524D+02  0.6740160450D+00
 S   2 1.00       0.000000000000
      0.1226086073D+02  0.6383993703D+00
      0.4998707601D+01  0.3953458713D+00
 S   1 1.00       0.000000000000
      0.1170310816D+01  0.1000000000D+01
 S   1 1.00       0.000000000000
      0.4647474099D+00  0.1000000000D+01
 S   1 1.00       0.000000000000
      0.1850453636D+00  0.1000000000D+01
 P   4 1.00       0.000000000000
      0.6327495480D+02  0.1201833222D-01
      0.1462704938D+02  0.8300542179D-01
      0.4450122346D+01  0.3199174393D+00
      0.1527579965D+01  0.7071554292D+00
 P   1 1.00       0.000000000000
      0.5293511794D+00  0.1000000000D+01
 P   1 1.00       0.000000000000
      0.1747842127D+00  0.1000000000D+01
 D   1 1.00       0.000000000000
      0.2314000000D+01  0.1000000000D+01
 D   1 1.00       0.000000000000
      0.6450000000D+00  0.1000000000D+01
 F   1 1.00       0.000000000000
      0.1428000000D+01  0.1000000000D+01
 ****
      9 0
 S   3 1.00       0.000000000000
      0.3406134100D+02  0.2543930721D-01
      0.5123574600D+01  0.1900859489D+00
      0.1164662600D+01  0.8524411301D+00
 S   1 1.00       0.000000000000
      0.3272304100D+00  0.1000000000D+01
 S   1 1.00       0.000000000000
      0.1030724100D+00  0.1000000000D+01
 P   1 1.00       0.000000000000
      0.8000000000D+00  0.1000000000D+01
 ****
     10 0
 S   8 1.00       0.000000000000
      0.5650732526D+06  0.2313996799D-03
      0.8470172318D+05  0.1794480895D-02
      0.1927627190D+05  0.9336632833D-02
      0.5456428458D+04  0.3802214115D-01
      0.1776950350D+04  0.1243860819D+00
      0.6391939828D+03  0.2976826547D+00
      0.2487882396D+03  0.4351247869D+00
      0.9867830549D+02  0.2384543263D+00
 S   4 1.00       0.000000000000
      0.6060782457D+03 -0.2580299811D-01
      0.1884559848D+03 -0.1214377016D+00
      0.3149714451D+02  0.5492715414D+00
      0.1373600832D+02  0.5403867432D+00
 S   2 1.00       0.000000000000
      0.2120321277D+02 -0.4189765707D+00
      0.3761642018D+01  0.1196292202D+01
 S   1 1.00       0.000000000000
      0.1773593396D+01  0.1000000000D+01
 S   1 1.00       0.000000000000
      0.4519741366D+00  0.1000000000D+01
 S   1 1.00       0.000000000000
      0.1661337710D+00  0.1000000000D+01
 P   6 1.00       0.000000000000
      0.3019695572D+04  0.2697896720D-02
      0.7153548113D+03  0.2206117705D-01
      0.2299832875D+03  0.1046886297D+00
      0.8616784462D+02  0.3030971016D+00
      0.3466787080D+02  0.4819318191D+00
      0.1411387031D+02  0.2637288336D+00
 P   4 1.00       0.000000000000
      0.5708565308D+02 -0.1928818758D-01
      0.8819384584D+01  0.2886445949D+00
      0.3934030287D+01  0.5105806350D+00
      0.1799883038D+01  0.2962687446D+00
 P   1 1.00       0.000000000000
      0.6689941051D+00  0.1000000000D+01
 P   1 1.00       0.000000000000
      0.2713623823D+00  0.1000000000D+01
 P   1 1.00       0.000000000000
      0.1008379024D+00  0.1000000000D+01
 D   5 1.00       0.000000000000
      0.1688537026D+03  0.9842827717D-02
      0.4997794992D+02  0.6812837709D-01
      0.1827491334D+02  0.2357380148D+00
      0.7245569463D+01  0.4427795439D+00
      0.2856231503D+01  0.4633455553D+00
 D   1 1.00       0.000000000000
      0.1045962114D+01  0.1000000000D+01
 D   1 1.00       0.000000000000
      0.5686565500D+00  0.1000000000D+01
 D   1 1.00       0.000000000000
      0.2203149000D+00  0.1000000000D+01
 F   1 1.00       0.000000000000
      0.5708331200D+00  0.1000000000D+01
 ****

 AO basis set (Overlap normalization):
 Atom Pa1      Shell     1 S   3     bf    1 -     1          0.922520666334         -0.006550644360         -0.173667117351
      0.1204737600D+05  0.2857094961D-01
      0.1811684100D+04  0.2270769386D+00
      0.3477010400D+03  0.8325326273D+00
 Atom Pa1      Shell     2 S   3     bf    2 -     2          0.922520666334         -0.006550644360         -0.173667117351
      0.5750737600D+02  0.9569327984D-01
      0.3350260100D+02 -0.4399944619D+00
      0.1955445100D+02  0.1335352847D+01
 Atom Pa1      Shell     3 S   1     bf    3 -     3          0.922520666334         -0.006550644360         -0.173667117351
      0.9867801000D+02  0.1000000000D+01
 Atom Pa1      Shell     4 S   1     bf    4 -     4          0.922520666334         -0.006550644360         -0.173667117351
      0.9716421000D+01  0.1000000000D+01
 Atom Pa1      Shell     5 S   1     bf    5 -     5          0.922520666334         -0.006550644360         -0.173667117351
      0.2692096000D+01  0.1000000000D+01
 Atom Pa1      Shell     6 S   1     bf    6 -     6          0.922520666334         -0.006550644360         -0.173667117351
      0.1453847000D+01  0.1000000000D+01
 Atom Pa1      Shell     7 S   1     bf    7 -     7          0.922520666334         -0.006550644360         -0.173667117351
      0.5743520000D+00  0.1000000000D+01
 Atom Pa1      Shell     8 S   1     bf    8 -     8          0.922520666334         -0.006550644360         -0.173667117351
      0.2634680000D+00  0.1000000000D+01
 Atom Pa1      Shell     9 S   1     bf    9 -     9          0.922520666334         -0.006550644360         -0.173667117351
      0.5655700000D-01  0.1000000000D+01
 Atom Pa1      Shell    10 S   1     bf   10 -    10          0.922520666334         -0.006550644360         -0.173667117351
      0.2316900000D-01  0.1000000000D+01
 Atom Pa1      Shell    11 P   5     bf   11 -    13          0.922520666334         -0.006550644360         -0.173667117351
      0.2903367600D+04  0.2594222647D-02
      0.6448635600D+03  0.1519473264D-01
      0.2202589600D+03  0.9272492945D-01
      0.8027640100D+02  0.1821144298D+00
      0.2408021100D+02  0.8294100404D+00
 Atom Pa1      Shell    12 P   1     bf   14 -    16          0.922520666334         -0.006550644360         -0.173667117351
      0.1407758000D+02  0.1000000000D+01
 Atom Pa1      Shell    13 P   1     bf   17 -    19          0.922520666334         -0.006550644360         -0.173667117351
      0.8265846000D+01  0.1000000000D+01
 Atom Pa1      Shell    14 P   1     bf   20 -    22          0.922520666334         -0.006550644360         -0.173667117351
      0.3594800000D+01  0.1000000000D+01
 Atom Pa1      Shell    15 P   1     bf   23 -    25          0.922520666334         -0.006550644360         -0.173667117351
      0.1753111000D+01  0.1000000000D+01
 Atom Pa1      Shell    16 P   1     bf   26 -    28          0.922520666334         -0.006550644360         -0.173667117351
      0.6577670000D+00  0.1000000000D+01
 Atom Pa1      Shell    17 P   1     bf   29 -    31          0.922520666334         -0.006550644360         -0.173667117351
      0.2846390000D+00  0.1000000000D+01
 Atom Pa1      Shell    18 P   1     bf   32 -    34          0.922520666334         -0.006550644360         -0.173667117351
      0.1005430000D+00  0.1000000000D+01
 Atom Pa1      Shell    19 P   1     bf   35 -    37          0.922520666334         -0.006550644360         -0.173667117351
      0.3019000000D-01  0.1000000000D+01
 Atom Pa1      Shell    20 D   6     bf   38 -    42          0.922520666334         -0.006550644360         -0.173667117351
      0.4481499100D+03  0.6556927566D-04
      0.1544614500D+03  0.5749921096D-03
      0.6092537700D+02  0.2279793277D-02
      0.1703209100D+02  0.6467904664D-01
      0.1001887700D+02 -0.2666929411D+00
      0.3409193000D+01  0.1128376621D+01
 Atom Pa1      Shell    21 D   1     bf   43 -    47          0.922520666334         -0.006550644360         -0.173667117351
      0.1670213000D+01  0.1000000000D+01
 Atom Pa1      Shell    22 D   1     bf   48 -    52          0.922520666334         -0.006550644360         -0.173667117351
      0.7410950000D+00  0.1000000000D+01
 Atom Pa1      Shell    23 D   1     bf   53 -    57          0.922520666334         -0.006550644360         -0.173667117351
      0.2613930000D+00  0.1000000000D+01
 Atom Pa1      Shell    24 D   1     bf   58 -    62          0.922520666334         -0.006550644360         -0.173667117351
      0.8281100000D-01  0.1000000000D+01
 Atom Pa1      Shell    25 F   5     bf   63 -    69          0.922520666334         -0.006550644360         -0.173667117351
      0.8799132700D+02  0.4766318191D-03
      0.2834019500D+02  0.4899184583D-02
      0.1244099400D+02  0.9669720755D-02
      0.3957296000D+01  0.3310292343D+00
      0.1875944000D+01  0.7275531640D+00
 Atom Pa1      Shell    26 F   1     bf   70 -    76          0.922520666334         -0.006550644360         -0.173667117351
      0.8275890000D+00  0.1000000000D+01
 Atom Pa1      Shell    27 F   1     bf   77 -    83          0.922520666334         -0.006550644360         -0.173667117351
      0.3327480000D+00  0.1000000000D+01
 Atom Pa1      Shell    28 F   1     bf   84 -    90          0.922520666334         -0.006550644360         -0.173667117351
      0.1146850000D+00  0.1000000000D+01
 Atom Pa1      Shell    29 G   1     bf   91 -    99          0.922520666334         -0.006550644360         -0.173667117351
      0.3500000000D+00  0.1000000000D+01
 Atom O2       Shell    30 S   6     bf  100 -   100          0.877190350920          3.931836988272         -0.411335659795
      0.2703238263D+05  0.5722733521D-03
      0.4052387139D+04  0.4435323349D-02
      0.9223272271D+03  0.2302010771D-01
      0.2612407099D+03  0.9282249067D-01
      0.8535464135D+02  0.2937850001D+00
      0.3103503524D+02  0.6740160450D+00
 Atom O2       Shell    31 S   2     bf  101 -   101          0.877190350920          3.931836988272         -0.411335659795
      0.1226086073D+02  0.6383993703D+00
      0.4998707601D+01  0.3953458713D+00
 Atom O2       Shell    32 S   1     bf  102 -   102          0.877190350920          3.931836988272         -0.411335659795
      0.1170310816D+01  0.1000000000D+01
 Atom O2       Shell    33 S   1     bf  103 -   103          0.877190350920          3.931836988272         -0.411335659795
      0.4647474099D+00  0.1000000000D+01
 Atom O2       Shell    34 S   1     bf  104 -   104          0.877190350920          3.931836988272         -0.411335659795
      0.1850453636D+00  0.1000000000D+01
 Atom O2       Shell    35 P   4     bf  105 -   107          0.877190350920          3.931836988272         -0.411335659795
      0.6327495480D+02  0.1201833222D-01
      0.1462704938D+02  0.8300542179D-01
      0.4450122346D+01  0.3199174393D+00
      0.1527579965D+01  0.7071554292D+00
 Atom O2       Shell    36 P   1     bf  108 -   110          0.877190350920          3.931836988272         -0.411335659795
      0.5293511794D+00  0.1000000000D+01
 Atom O2       Shell    37 P   1     bf  111 -   113          0.877190350920          3.931836988272         -0.411335659795
      0.1747842127D+00  0.1000000000D+01
 Atom O2       Shell    38 D   1     bf  114 -   118          0.877190350920          3.931836988272         -0.411335659795
      0.2314000000D+01  0.1000000000D+01
 Atom O2       Shell    39 D   1     bf  119 -   123          0.877190350920          3.931836988272         -0.411335659795
      0.6450000000D+00  0.1000000000D+01
 Atom O2       Shell    40 F   1     bf  124 -   130          0.877190350920          3.931836988272         -0.411335659795
      0.1428000000D+01  0.1000000000D+01
 Atom H3       Shell    41 S   3     bf  131 -   131          1.362181098010          5.452545726520          0.473493900060
      0.3406134100D+02  0.2543930721D-01
      0.5123574600D+01  0.1900859489D+00
      0.1164662600D+01  0.8524411301D+00
 Atom H3       Shell    42 S   1     bf  132 -   132          1.362181098010          5.452545726520          0.473493900060
      0.3272304100D+00  0.1000000000D+01
 Atom H3       Shell    43 S   1     bf  133 -   133          1.362181098010          5.452545726520          0.473493900060
      0.1030724100D+00  0.1000000000D+01
 Atom H3       Shell    44 P   1     bf  134 -   136          1.362181098010          5.452545726520          0.473493900060
      0.8000000000D+00  0.1000000000D+01
 Atom O4       Shell    45 S   6     bf  137 -   137          4.792594366100         -0.069180441347         -1.048335013477
      0.2703238263D+05  0.5722733521D-03
      0.4052387139D+04  0.4435323349D-02
      0.9223272271D+03  0.2302010771D-01
      0.2612407099D+03  0.9282249067D-01
      0.8535464135D+02  0.2937850001D+00
      0.3103503524D+02  0.6740160450D+00
 Atom O4       Shell    46 S   2     bf  138 -   138          4.792594366100         -0.069180441347         -1.048335013477
      0.1226086073D+02  0.6383993703D+00
      0.4998707601D+01  0.3953458713D+00
 Atom O4       Shell    47 S   1     bf  139 -   139          4.792594366100         -0.069180441347         -1.048335013477
      0.1170310816D+01  0.1000000000D+01
 Atom O4       Shell    48 S   1     bf  140 -   140          4.792594366100         -0.069180441347         -1.048335013477
      0.4647474099D+00  0.1000000000D+01
 Atom O4       Shell    49 S   1     bf  141 -   141          4.792594366100         -0.069180441347         -1.048335013477
      0.1850453636D+00  0.1000000000D+01
 Atom O4       Shell    50 P   4     bf  142 -   144          4.792594366100         -0.069180441347         -1.048335013477
      0.6327495480D+02  0.1201833222D-01
      0.1462704938D+02  0.8300542179D-01
      0.4450122346D+01  0.3199174393D+00
      0.1527579965D+01  0.7071554292D+00
 Atom O4       Shell    51 P   1     bf  145 -   147          4.792594366100         -0.069180441347         -1.048335013477
      0.5293511794D+00  0.1000000000D+01
 Atom O4       Shell    52 P   1     bf  148 -   150          4.792594366100         -0.069180441347         -1.048335013477
      0.1747842127D+00  0.1000000000D+01
 Atom O4       Shell    53 D   1     bf  151 -   155          4.792594366100         -0.069180441347         -1.048335013477
      0.2314000000D+01  0.1000000000D+01
 Atom O4       Shell    54 D   1     bf  156 -   160          4.792594366100         -0.069180441347         -1.048335013477
      0.6450000000D+00  0.1000000000D+01
 Atom O4       Shell    55 F   1     bf  161 -   167          4.792594366100         -0.069180441347         -1.048335013477
      0.1428000000D+01  0.1000000000D+01
 Atom H5       Shell    56 S   3     bf  168 -   168          6.191369220429          1.095483256686         -1.152422642482
      0.3406134100D+02  0.2543930721D-01
      0.5123574600D+01  0.1900859489D+00
      0.1164662600D+01  0.8524411301D+00
 Atom H5       Shell    57 S   1     bf  169 -   169          6.191369220429          1.095483256686         -1.152422642482
      0.3272304100D+00  0.1000000000D+01
 Atom H5       Shell    58 S   1     bf  170 -   170          6.191369220429          1.095483256686         -1.152422642482
      0.1030724100D+00  0.1000000000D+01
 Atom H5       Shell    59 P   1     bf  171 -   173          6.191369220429          1.095483256686         -1.152422642482
      0.8000000000D+00  0.1000000000D+01
 Atom O6       Shell    60 S   6     bf  174 -   174          1.301643987943          0.120669054448          3.747893242465
      0.2703238263D+05  0.5722733521D-03
      0.4052387139D+04  0.4435323349D-02
      0.9223272271D+03  0.2302010771D-01
      0.2612407099D+03  0.9282249067D-01
      0.8535464135D+02  0.2937850001D+00
      0.3103503524D+02  0.6740160450D+00
 Atom O6       Shell    61 S   2     bf  175 -   175          1.301643987943          0.120669054448          3.747893242465
      0.1226086073D+02  0.6383993703D+00
      0.4998707601D+01  0.3953458713D+00
 Atom O6       Shell    62 S   1     bf  176 -   176          1.301643987943          0.120669054448          3.747893242465
      0.1170310816D+01  0.1000000000D+01
 Atom O6       Shell    63 S   1     bf  177 -   177          1.301643987943          0.120669054448          3.747893242465
      0.4647474099D+00  0.1000000000D+01
 Atom O6       Shell    64 S   1     bf  178 -   178          1.301643987943          0.120669054448          3.747893242465
      0.1850453636D+00  0.1000000000D+01
 Atom O6       Shell    65 P   4     bf  179 -   181          1.301643987943          0.120669054448          3.747893242465
      0.6327495480D+02  0.1201833222D-01
      0.1462704938D+02  0.8300542179D-01
      0.4450122346D+01  0.3199174393D+00
      0.1527579965D+01  0.7071554292D+00
 Atom O6       Shell    66 P   1     bf  182 -   184          1.301643987943          0.120669054448          3.747893242465
      0.5293511794D+00  0.1000000000D+01
 Atom O6       Shell    67 P   1     bf  185 -   187          1.301643987943          0.120669054448          3.747893242465
      0.1747842127D+00  0.1000000000D+01
 Atom O6       Shell    68 D   1     bf  188 -   192          1.301643987943          0.120669054448          3.747893242465
      0.2314000000D+01  0.1000000000D+01
 Atom O6       Shell    69 D   1     bf  193 -   197          1.301643987943          0.120669054448          3.747893242465
      0.6450000000D+00  0.1000000000D+01
 Atom O6       Shell    70 F   1     bf  198 -   204          1.301643987943          0.120669054448          3.747893242465
      0.1428000000D+01  0.1000000000D+01
 Atom H7       Shell    71 S   3     bf  205 -   205          1.817132768798         -0.878138448591          5.181129676183
      0.3406134100D+02  0.2543930721D-01
      0.5123574600D+01  0.1900859489D+00
      0.1164662600D+01  0.8524411301D+00
 Atom H7       Shell    72 S   1     bf  206 -   206          1.817132768798         -0.878138448591          5.181129676183
      0.3272304100D+00  0.1000000000D+01
 Atom H7       Shell    73 S   1     bf  207 -   207          1.817132768798         -0.878138448591          5.181129676183
      0.1030724100D+00  0.1000000000D+01
 Atom H7       Shell    74 P   1     bf  208 -   210          1.817132768798         -0.878138448591          5.181129676183
      0.8000000000D+00  0.1000000000D+01
 Atom O8       Shell    75 S   6     bf  211 -   211          0.852918694750         -3.958928833410         -0.326997766021
      0.2703238263D+05  0.5722733521D-03
      0.4052387139D+04  0.4435323349D-02
      0.9223272271D+03  0.2302010771D-01
      0.2612407099D+03  0.9282249067D-01
      0.8535464135D+02  0.2937850001D+00
      0.3103503524D+02  0.6740160450D+00
 Atom O8       Shell    76 S   2     bf  212 -   212          0.852918694750         -3.958928833410         -0.326997766021
      0.1226086073D+02  0.6383993703D+00
      0.4998707601D+01  0.3953458713D+00
 Atom O8       Shell    77 S   1     bf  213 -   213          0.852918694750         -3.958928833410         -0.326997766021
      0.1170310816D+01  0.1000000000D+01
 Atom O8       Shell    78 S   1     bf  214 -   214          0.852918694750         -3.958928833410         -0.326997766021
      0.4647474099D+00  0.1000000000D+01
 Atom O8       Shell    79 S   1     bf  215 -   215          0.852918694750         -3.958928833410         -0.326997766021
      0.1850453636D+00  0.1000000000D+01
 Atom O8       Shell    80 P   4     bf  216 -   218          0.852918694750         -3.958928833410         -0.326997766021
      0.6327495480D+02  0.1201833222D-01
      0.1462704938D+02  0.8300542179D-01
      0.4450122346D+01  0.3199174393D+00
      0.1527579965D+01  0.7071554292D+00
 Atom O8       Shell    81 P   1     bf  219 -   221          0.852918694750         -3.958928833410         -0.326997766021
      0.5293511794D+00  0.1000000000D+01
 Atom O8       Shell    82 P   1     bf  222 -   224          0.852918694750         -3.958928833410         -0.326997766021
      0.1747842127D+00  0.1000000000D+01
 Atom O8       Shell    83 D   1     bf  225 -   229          0.852918694750         -3.958928833410         -0.326997766021
      0.2314000000D+01  0.1000000000D+01
 Atom O8       Shell    84 D   1     bf  230 -   234          0.852918694750         -3.958928833410         -0.326997766021
      0.6450000000D+00  0.1000000000D+01
 Atom O8       Shell    85 F   1     bf  235 -   241          0.852918694750         -3.958928833410         -0.326997766021
      0.1428000000D+01  0.1000000000D+01
 Atom H9       Shell    86 S   3     bf  242 -   242          2.047328252943         -5.339028405786         -0.284484774512
      0.3406134100D+02  0.2543930721D-01
      0.5123574600D+01  0.1900859489D+00
      0.1164662600D+01  0.8524411301D+00
 Atom H9       Shell    87 S   1     bf  243 -   243          2.047328252943         -5.339028405786         -0.284484774512
      0.3272304100D+00  0.1000000000D+01
 Atom H9       Shell    88 S   1     bf  244 -   244          2.047328252943         -5.339028405786         -0.284484774512
      0.1030724100D+00  0.1000000000D+01
 Atom H9       Shell    89 P   1     bf  245 -   247          2.047328252943         -5.339028405786         -0.284484774512
      0.8000000000D+00  0.1000000000D+01
 Atom Br10     Shell    90 S   8     bf  248 -   248         -4.513204890692          0.002002067549         -0.117251625876
      0.5650732526D+06  0.2313996799D-03
      0.8470172318D+05  0.1794480895D-02
      0.1927627190D+05  0.9336632833D-02
      0.5456428458D+04  0.3802214115D-01
      0.1776950350D+04  0.1243860819D+00
      0.6391939828D+03  0.2976826547D+00
      0.2487882396D+03  0.4351247869D+00
      0.9867830549D+02  0.2384543263D+00
 Atom Br10     Shell    91 S   4     bf  249 -   249         -4.513204890692          0.002002067549         -0.117251625876
      0.6060782457D+03 -0.2580299811D-01
      0.1884559848D+03 -0.1214377016D+00
      0.3149714451D+02  0.5492715414D+00
      0.1373600832D+02  0.5403867432D+00
 Atom Br10     Shell    92 S   2     bf  250 -   250         -4.513204890692          0.002002067549         -0.117251625876
      0.2120321277D+02 -0.4189765707D+00
      0.3761642018D+01  0.1196292202D+01
 Atom Br10     Shell    93 S   1     bf  251 -   251         -4.513204890692          0.002002067549         -0.117251625876
      0.1773593396D+01  0.1000000000D+01
 Atom Br10     Shell    94 S   1     bf  252 -   252         -4.513204890692          0.002002067549         -0.117251625876
      0.4519741366D+00  0.1000000000D+01
 Atom Br10     Shell    95 S   1     bf  253 -   253         -4.513204890692          0.002002067549         -0.117251625876
      0.1661337710D+00  0.1000000000D+01
 Atom Br10     Shell    96 P   6     bf  254 -   256         -4.513204890692          0.002002067549         -0.117251625876
      0.3019695572D+04  0.2697896720D-02
      0.7153548113D+03  0.2206117705D-01
      0.2299832875D+03  0.1046886297D+00
      0.8616784462D+02  0.3030971016D+00
      0.3466787080D+02  0.4819318191D+00
      0.1411387031D+02  0.2637288336D+00
 Atom Br10     Shell    97 P   4     bf  257 -   259         -4.513204890692          0.002002067549         -0.117251625876
      0.5708565308D+02 -0.1928818758D-01
      0.8819384584D+01  0.2886445949D+00
      0.3934030287D+01  0.5105806350D+00
      0.1799883038D+01  0.2962687446D+00
 Atom Br10     Shell    98 P   1     bf  260 -   262         -4.513204890692          0.002002067549         -0.117251625876
      0.6689941051D+00  0.1000000000D+01
 Atom Br10     Shell    99 P   1     bf  263 -   265         -4.513204890692          0.002002067549         -0.117251625876
      0.2713623823D+00  0.1000000000D+01
 Atom Br10     Shell   100 P   1     bf  266 -   268         -4.513204890692          0.002002067549         -0.117251625876
      0.1008379024D+00  0.1000000000D+01
 Atom Br10     Shell   101 D   5     bf  269 -   273         -4.513204890692          0.002002067549         -0.117251625876
      0.1688537026D+03  0.9842827717D-02
      0.4997794992D+02  0.6812837709D-01
      0.1827491334D+02  0.2357380148D+00
      0.7245569463D+01  0.4427795439D+00
      0.2856231503D+01  0.4633455553D+00
 Atom Br10     Shell   102 D   1     bf  274 -   278         -4.513204890692          0.002002067549         -0.117251625876
      0.1045962114D+01  0.1000000000D+01
 Atom Br10     Shell   103 D   1     bf  279 -   283         -4.513204890692          0.002002067549         -0.117251625876
      0.5686565500D+00  0.1000000000D+01
 Atom Br10     Shell   104 D   1     bf  284 -   288         -4.513204890692          0.002002067549         -0.117251625876
      0.2203149000D+00  0.1000000000D+01
 Atom Br10     Shell   105 F   1     bf  289 -   295         -4.513204890692          0.002002067549         -0.117251625876
      0.5708331200D+00  0.1000000000D+01
 Effective core potential in the form of general ECP input:
      1 0
 Pa1-ECP   5 60
 H component
  1
  2        1.0000000        0.00000000    0.00000000
 S-H projection
  1
  2       15.2691737      475.47573283    0.00000000
 P-H projection
  1
  2        9.9577370      207.66485962    0.00000000
 D-H projection
  1
  2        8.9431413      156.67411988    0.00000000
 F-H projection
  1
  2        7.0104666       67.98223685    0.00000000
 G-H projection
  1
  2       12.2010560      -57.63059989    0.00000000
 
 There are   345 symmetry adapted cartesian basis functions of A   symmetry.
 There are   295 symmetry adapted basis functions of A   symmetry.
   295 basis functions,   558 primitive gaussians,   345 cartesian basis functions
    51 alpha electrons       51 beta electrons
       nuclear repulsion energy       739.1473077156 Hartrees.
 IExCor=  404 DFT=T Ex=B Corr=P86 ExCW=0 ScaHFX=  0.000000
 ScaDFX=  1.000000  1.000000  1.000000  1.000000 ScalE2=  1.000000  1.000000
 IRadAn=      5 IRanWt=     -1 IRanGd=            0 ICorTp=0 IEmpDi=  4
 NAtoms=   10 NActive=   10 NUniq=   10 SFac= 1.00D+00 NAtFMM=   60 NAOKFM=F Big=F
 Integral buffers will be    131072 words long.
 Raffenetti 2 integral format.
 Two-electron integral symmetry is turned on.
 Leave Link  301 at Tue Jul  4 11:12:53 2023, MaxMem=  2147483648 cpu:               1.0 elap:               0.2
 (Enter /home/pcmt/gaussian/g16.C.01/g16/l302.exe)
 NPDir=0 NMtPBC=     1 NCelOv=     1 NCel=       1 NClECP=     1 NCelD=      1
         NCelK=      1 NCelE2=     1 NClLst=     1 CellRange=     0.0.
 One-electron integrals computed using PRISM.
 One-electron integral symmetry used in STVInt
   1 Symmetry operations used in ECPInt.
 ECPInt:  NShTT=    5565 NPrTT=   18162 LenC2=    5288 LenP2D=   12847.
 LDataN:  DoStor=T MaxTD1= 9 Len=  602
 NBasis=   295 RedAO= T EigKep=  5.91D-04  NBF=   295
 NBsUse=   295 1.00D-06 EigRej= -1.00D+00 NBFU=   295
 Precomputing XC quadrature grid using
 IXCGrd= 4 IRadAn=           5 IRanWt=          -1 IRanGd=           0 AccXCQ= 0.00D+00.
 Defaulting to unpruned grid for atomic number  91.
 Generated NRdTot=       0 NPtTot=           0 NUsed=           0 NTot=          32
 NSgBfM=   336   336   336   336   336 MxSgAt=    10 MxSgA2=    10.
 Leave Link  302 at Tue Jul  4 11:12:54 2023, MaxMem=  2147483648 cpu:               6.6 elap:               0.9
 (Enter /home/pcmt/gaussian/g16.C.01/g16/l303.exe)
 DipDrv:  MaxL=1.
 Leave Link  303 at Tue Jul  4 11:12:54 2023, MaxMem=  2147483648 cpu:               0.4 elap:               0.1
 (Enter /home/pcmt/gaussian/g16.C.01/g16/l401.exe)
 ExpMin= 2.32D-02 ExpMax= 5.65D+05 ExpMxC= 1.20D+04 IAcc=3 IRadAn=         5 AccDes= 0.00D+00
 Harris functional with IExCor=  404 and IRadAn=       5 diagonalized for initial guess.
 HarFok:  IExCor=  404 AccDes= 0.00D+00 IRadAn=         5 IDoV= 1 UseB2=F ITyADJ=14
 ICtDFT=  3500011 ScaDFX=  1.000000  1.000000  1.000000  1.000000
 Defaulting to unpruned grid for atomic number  91.
 FoFCou: FMM=F IPFlag=           0 FMFlag=      100000 FMFlg1=           0
         NFxFlg=           0 DoJE=T BraDBF=F KetDBF=T FulRan=T
         wScrn=  0.000000 ICntrl=       500 IOpCl=  0 I1Cent=   200000004 NGrid=           0
         NMat0=    1 NMatS0=      1 NMatT0=    0 NMatD0=    1 NMtDS0=    0 NMtDT0=    0
 Petite list used in FoFCou.
 Harris En= -3321.31020566688    
 JPrj=0 DoOrth=F DoCkMO=F.
 Leave Link  401 at Tue Jul  4 11:12:56 2023, MaxMem=  2147483648 cpu:              14.8 elap:               1.9
 (Enter /home/pcmt/gaussian/g16.C.01/g16/l502.exe)
 Keep J ints in memory in canonical form, NReq=973832063.
 FoFCou: FMM=F IPFlag=           0 FMFlag=           0 FMFlg1=           0
         NFxFlg=           0 DoJE=F BraDBF=F KetDBF=F FulRan=T
         wScrn=  0.000000 ICntrl=       600 IOpCl=  0 I1Cent=           0 NGrid=           0
         NMat0=    1 NMatS0=  43660 NMatT0=    0 NMatD0=    1 NMtDS0=    0 NMtDT0=    0
 Symmetry not used in FoFCou.
 Two-electron integral symmetry not used.
 Closed shell SCF:
 Using DIIS extrapolation, IDIIS=  1040.
 NGot=  2147483648 LenX=  1194120012 LenY=  1194000546
 Requested convergence on RMS density matrix=1.00D-08 within 100 cycles.
 Requested convergence on MAX density matrix=1.00D-06.
 Requested convergence on             energy=1.00D-06.
 No special actions if energy rises.

 Cycle   1  Pass 1  IDiag  1:
 Defaulting to unpruned grid for atomic number  91.
 Defaulting to unpruned grid for atomic number  91.
 Defaulting to unpruned grid for atomic number  91.
 Defaulting to unpruned grid for atomic number  91.
 Defaulting to unpruned grid for atomic number  91.
 Defaulting to unpruned grid for atomic number  91.
 Defaulting to unpruned grid for atomic number  91.
 Defaulting to unpruned grid for atomic number  91.
 E= -3318.76657064747    
 DIIS: error= 4.42D-02 at cycle   1 NSaved=   1.
 NSaved= 1 IEnMin= 1 EnMin= -3318.76657064747     IErMin= 1 ErrMin= 4.42D-02
 ErrMax= 4.42D-02  0.00D+00 EMaxC= 1.00D-01 BMatC= 1.56D+00 BMatP= 1.56D+00
 IDIUse=3 WtCom= 5.58D-01 WtEn= 4.42D-01
 Coeff-Com:  0.100D+01
 Coeff-En:   0.100D+01
 Coeff:      0.100D+01
 Gap=     0.084 Goal=   None    Shift=    0.000
 GapD=    0.084 DampG=0.500 DampE=0.250 DampFc=0.1250 IDamp=-1.
 Damping current iteration by 1.25D-01
 RMSDP=1.47D-02 MaxDP=1.52D+00              OVMax= 9.98D-01

 Cycle   2  Pass 1  IDiag  1:
 E= -3318.79609164022     Delta-E=       -0.029520992751 Rises=F Damp=T
 DIIS: error= 2.22D-02 at cycle   2 NSaved=   2.
 NSaved= 2 IEnMin= 2 EnMin= -3318.79609164022     IErMin= 2 ErrMin= 2.22D-02
 ErrMax= 2.22D-02  0.00D+00 EMaxC= 1.00D-01 BMatC= 2.92D-01 BMatP= 1.56D+00
 IDIUse=3 WtCom= 7.78D-01 WtEn= 2.22D-01
 Coeff-Com: -0.138D-01 0.101D+01
 Coeff-En:   0.488D+00 0.512D+00
 Coeff:      0.976D-01 0.902D+00
 Gap=     0.020 Goal=   None    Shift=    0.000
 RMSDP=3.88D-03 MaxDP=1.16D-01 DE=-2.95D-02 OVMax= 9.30D-01

 Cycle   3  Pass 1  IDiag  1:
 E= -3318.92445530398     Delta-E=       -0.128363663767 Rises=F Damp=F
 DIIS: error= 3.63D-02 at cycle   3 NSaved=   3.
 NSaved= 3 IEnMin= 3 EnMin= -3318.92445530398     IErMin= 2 ErrMin= 2.22D-02
 ErrMax= 3.63D-02  0.00D+00 EMaxC= 1.00D-01 BMatC= 1.02D+00 BMatP= 2.92D-01
 IDIUse=2 WtCom= 0.00D+00 WtEn= 1.00D+00
 EnCoef did     3 forward-backward iterations
 Coeff-En:   0.161D+00 0.392D+00 0.447D+00
 Coeff:      0.161D+00 0.392D+00 0.447D+00
 Gap=     0.287 Goal=   None    Shift=    0.000
 RMSDP=8.43D-03 MaxDP=5.19D-01 DE=-1.28D-01 OVMax= 9.34D-01

 Cycle   4  Pass 1  IDiag  1:
 E= -3292.48855157435     Delta-E=       26.435903729638 Rises=F Damp=F
 DIIS: error= 2.79D-01 at cycle   4 NSaved=   4.
 NSaved= 4 IEnMin= 3 EnMin= -3318.92445530398     IErMin= 2 ErrMin= 2.22D-02
 ErrMax= 2.79D-01  0.00D+00 EMaxC= 1.00D-01 BMatC= 4.81D+01 BMatP= 2.92D-01
 IDIUse=2 WtCom= 0.00D+00 WtEn= 1.00D+00
 EnCoef did   100 forward-backward iterations
 Coeff-En:   0.406D+00 0.127D-01 0.489D+00 0.929D-01
 Coeff:      0.406D+00 0.127D-01 0.489D+00 0.929D-01
 Gap=    -0.011 Goal=   None    Shift=    0.000
 RMSDP=5.31D-03 MaxDP=2.88D-01 DE= 2.64D+01 OVMax= 9.42D-01

 Cycle   5  Pass 1  IDiag  1:
 E= -3318.46833294005     Delta-E=      -25.979781365700 Rises=F Damp=F
 DIIS: error= 9.05D-02 at cycle   5 NSaved=   5.
 NSaved= 5 IEnMin= 3 EnMin= -3318.92445530398     IErMin= 2 ErrMin= 2.22D-02
 ErrMax= 9.05D-02  0.00D+00 EMaxC= 1.00D-01 BMatC= 2.34D+00 BMatP= 2.92D-01
 IDIUse=2 WtCom= 0.00D+00 WtEn= 1.00D+00
 EnCoef did     3 forward-backward iterations
 Coeff-En:   0.348D+00 0.000D+00 0.251D+00 0.000D+00 0.401D+00
 Coeff:      0.348D+00 0.000D+00 0.251D+00 0.000D+00 0.401D+00
 Gap=     0.086 Goal=   None    Shift=    0.000
 RMSDP=2.46D-03 MaxDP=1.42D-01 DE=-2.60D+01 OVMax= 2.87D-01

 Cycle   6  Pass 1  IDiag  1:
 E= -3319.74501670763     Delta-E=       -1.276683767589 Rises=F Damp=F
 DIIS: error= 8.27D-03 at cycle   6 NSaved=   6.
 NSaved= 6 IEnMin= 6 EnMin= -3319.74501670763     IErMin= 6 ErrMin= 8.27D-03
 ErrMax= 8.27D-03  0.00D+00 EMaxC= 1.00D-01 BMatC= 5.98D-02 BMatP= 2.92D-01
 IDIUse=3 WtCom= 9.17D-01 WtEn= 8.27D-02
 Coeff-Com: -0.635D-01 0.244D+00 0.134D+00-0.102D-01 0.105D+00 0.591D+00
 Coeff-En:   0.000D+00 0.000D+00 0.000D+00 0.000D+00 0.874D-01 0.913D+00
 Coeff:     -0.582D-01 0.223D+00 0.123D+00-0.939D-02 0.104D+00 0.618D+00
 Gap=     0.140 Goal=   None    Shift=    0.000
 RMSDP=9.78D-04 MaxDP=5.01D-02 DE=-1.28D+00 OVMax= 1.04D-01

 Cycle   7  Pass 1  IDiag  1:
 E= -3319.74962599941     Delta-E=       -0.004609291779 Rises=F Damp=F
 DIIS: error= 8.31D-03 at cycle   7 NSaved=   7.
 NSaved= 7 IEnMin= 7 EnMin= -3319.74962599941     IErMin= 6 ErrMin= 8.27D-03
 ErrMax= 8.31D-03  0.00D+00 EMaxC= 1.00D-01 BMatC= 6.48D-02 BMatP= 5.98D-02
 IDIUse=3 WtCom= 9.17D-01 WtEn= 8.27D-02
 EnCoef did     3 forward-backward iterations
 Coeff-Com: -0.821D-01 0.132D+00 0.327D-01-0.353D-02 0.649D-01 0.457D+00
 Coeff-Com:  0.400D+00
 Coeff-En:   0.000D+00 0.000D+00 0.000D+00 0.000D+00 0.714D-01 0.448D+00
 Coeff-En:   0.481D+00
 Coeff:     -0.753D-01 0.121D+00 0.300D-01-0.324D-02 0.654D-01 0.456D+00
 Coeff:      0.406D+00
 Gap=     0.107 Goal=   None    Shift=    0.000
 RMSDP=5.17D-04 MaxDP=2.63D-02 DE=-4.61D-03 OVMax= 5.29D-02

 Cycle   8  Pass 1  IDiag  1:
 E= -3319.79533705368     Delta-E=       -0.045711054263 Rises=F Damp=F
 DIIS: error= 3.66D-03 at cycle   8 NSaved=   8.
 NSaved= 8 IEnMin= 8 EnMin= -3319.79533705368     IErMin= 8 ErrMin= 3.66D-03
 ErrMax= 3.66D-03  0.00D+00 EMaxC= 1.00D-01 BMatC= 8.81D-03 BMatP= 5.98D-02
 IDIUse=3 WtCom= 9.63D-01 WtEn= 3.66D-02
 Coeff-Com: -0.517D-01 0.608D-01-0.896D-02-0.116D-02 0.430D-01 0.239D+00
 Coeff-Com:  0.263D+00 0.456D+00
 Coeff-En:   0.000D+00 0.000D+00 0.000D+00 0.000D+00 0.000D+00 0.000D+00
 Coeff-En:   0.000D+00 0.100D+01
 Coeff:     -0.498D-01 0.586D-01-0.863D-02-0.111D-02 0.415D-01 0.231D+00
 Coeff:      0.253D+00 0.476D+00
 Gap=     0.085 Goal=   None    Shift=    0.000
 RMSDP=2.95D-04 MaxDP=1.64D-02 DE=-4.57D-02 OVMax= 3.64D-02

 Cycle   9  Pass 1  IDiag  1:
 E= -3319.80296612143     Delta-E=       -0.007629067753 Rises=F Damp=F
 DIIS: error= 1.73D-03 at cycle   9 NSaved=   9.
 NSaved= 9 IEnMin= 9 EnMin= -3319.80296612143     IErMin= 9 ErrMin= 1.73D-03
 ErrMax= 1.73D-03  0.00D+00 EMaxC= 1.00D-01 BMatC= 1.58D-03 BMatP= 8.81D-03
 IDIUse=3 WtCom= 9.83D-01 WtEn= 1.73D-02
 Coeff-Com: -0.422D-02-0.120D-01-0.181D-01 0.425D-03 0.139D-01 0.451D-02
 Coeff-Com:  0.157D-01 0.330D+00 0.670D+00
 Coeff-En:   0.000D+00 0.000D+00 0.000D+00 0.000D+00 0.000D+00 0.000D+00
 Coeff-En:   0.000D+00 0.000D+00 0.100D+01
 Coeff:     -0.415D-02-0.118D-01-0.178D-01 0.418D-03 0.137D-01 0.443D-02
 Coeff:      0.154D-01 0.324D+00 0.676D+00
 Gap=     0.079 Goal=   None    Shift=    0.000
 RMSDP=3.43D-04 MaxDP=2.17D-02 DE=-7.63D-03 OVMax= 2.93D-02

 Cycle  10  Pass 1  IDiag  1:
 E= -3319.80344102257     Delta-E=       -0.000474901140 Rises=F Damp=F
 DIIS: error= 2.98D-03 at cycle  10 NSaved=  10.
 NSaved=10 IEnMin=10 EnMin= -3319.80344102257     IErMin= 9 ErrMin= 1.73D-03
 ErrMax= 2.98D-03  0.00D+00 EMaxC= 1.00D-01 BMatC= 5.40D-03 BMatP= 1.58D-03
 IDIUse=3 WtCom= 9.83D-01 WtEn= 1.73D-02
 Coeff-Com:  0.121D-01-0.135D-01-0.535D-02 0.347D-03-0.142D-02-0.451D-01
 Coeff-Com: -0.104D-01 0.230D+00 0.470D+00 0.363D+00
 Coeff-En:   0.000D+00 0.000D+00 0.000D+00 0.000D+00 0.000D+00 0.000D+00
 Coeff-En:   0.000D+00 0.000D+00 0.442D+00 0.558D+00
 Coeff:      0.118D-01-0.132D-01-0.526D-02 0.341D-03-0.139D-02-0.443D-01
 Coeff:     -0.102D-01 0.226D+00 0.470D+00 0.366D+00
 Gap=     0.078 Goal=   None    Shift=    0.000
 RMSDP=6.54D-05 MaxDP=4.34D-03 DE=-4.75D-04 OVMax= 6.15D-03

 Cycle  11  Pass 1  IDiag  1:
 E= -3319.80373683566     Delta-E=       -0.000295813093 Rises=F Damp=F
 DIIS: error= 2.62D-03 at cycle  11 NSaved=  11.
 NSaved=11 IEnMin=11 EnMin= -3319.80373683566     IErMin= 9 ErrMin= 1.73D-03
 ErrMax= 2.62D-03  0.00D+00 EMaxC= 1.00D-01 BMatC= 4.52D-03 BMatP= 1.58D-03
 IDIUse=3 WtCom= 9.83D-01 WtEn= 1.73D-02
 Coeff-Com: -0.460D-02 0.405D-02-0.434D-02 0.253D-03 0.292D-02 0.350D-01
 Coeff-Com:  0.754D-01 0.270D+00 0.127D+00-0.110D+01 0.159D+01
 Coeff-En:   0.000D+00 0.000D+00 0.000D+00 0.000D+00 0.000D+00 0.000D+00
 Coeff-En:   0.000D+00 0.000D+00 0.403D+00 0.000D+00 0.597D+00
 Coeff:     -0.452D-02 0.397D-02-0.427D-02 0.249D-03 0.287D-02 0.344D-01
 Coeff:      0.741D-01 0.266D+00 0.132D+00-0.108D+01 0.158D+01
 Gap=     0.094 Goal=   None    Shift=    0.000
 RMSDP=2.49D-04 MaxDP=2.04D-02 DE=-2.96D-04 OVMax= 2.33D-02

 Cycle  12  Pass 1  IDiag  1:
 E= -3319.80496090818     Delta-E=       -0.001224072518 Rises=F Damp=F
 DIIS: error= 9.63D-04 at cycle  12 NSaved=  12.
 NSaved=12 IEnMin=12 EnMin= -3319.80496090818     IErMin=12 ErrMin= 9.63D-04
 ErrMax= 9.63D-04  0.00D+00 EMaxC= 1.00D-01 BMatC= 7.46D-04 BMatP= 1.58D-03
 IDIUse=3 WtCom= 9.90D-01 WtEn= 9.63D-03
 Coeff-Com: -0.314D-02 0.104D-02-0.284D-02 0.203D-03-0.173D-02 0.288D-01
 Coeff-Com:  0.530D-01 0.127D+00-0.708D-01-0.123D+01 0.165D+01 0.455D+00
 Coeff-En:   0.000D+00 0.000D+00 0.000D+00 0.000D+00 0.000D+00 0.000D+00
 Coeff-En:   0.000D+00 0.000D+00 0.000D+00 0.000D+00 0.318D+00 0.682D+00
 Coeff:     -0.311D-02 0.103D-02-0.281D-02 0.201D-03-0.171D-02 0.285D-01
 Coeff:      0.524D-01 0.126D+00-0.702D-01-0.122D+01 0.163D+01 0.457D+00
 Gap=     0.090 Goal=   None    Shift=    0.000
 RMSDP=9.63D-05 MaxDP=5.13D-03 DE=-1.22D-03 OVMax= 8.90D-03

 Cycle  13  Pass 1  IDiag  1:
 E= -3319.80575693146     Delta-E=       -0.000796023275 Rises=F Damp=F
 DIIS: error= 7.81D-04 at cycle  13 NSaved=  13.
 NSaved=13 IEnMin=13 EnMin= -3319.80575693146     IErMin=13 ErrMin= 7.81D-04
 ErrMax= 7.81D-04  0.00D+00 EMaxC= 1.00D-01 BMatC= 3.67D-04 BMatP= 7.46D-04
 IDIUse=3 WtCom= 9.92D-01 WtEn= 7.81D-03
 Coeff-Com:  0.213D-02-0.248D-02-0.298D-03 0.122D-03-0.478D-02 0.439D-02
 Coeff-Com:  0.179D-01 0.260D-01-0.116D+00-0.816D+00 0.118D+01 0.333D+00
 Coeff-Com:  0.378D+00
 Coeff-En:   0.000D+00 0.000D+00 0.000D+00 0.000D+00 0.000D+00 0.000D+00
 Coeff-En:   0.000D+00 0.000D+00 0.000D+00 0.000D+00 0.220D+00 0.000D+00
 Coeff-En:   0.780D+00
 Coeff:      0.212D-02-0.246D-02-0.295D-03 0.121D-03-0.474D-02 0.436D-02
 Coeff:      0.178D-01 0.258D-01-0.115D+00-0.810D+00 0.117D+01 0.331D+00
 Coeff:      0.381D+00
 Gap=     0.086 Goal=   None    Shift=    0.000
 RMSDP=1.13D-04 MaxDP=6.81D-03 DE=-7.96D-04 OVMax= 1.10D-02

 Cycle  14  Pass 1  IDiag  1:
 E= -3319.80631984133     Delta-E=       -0.000562909871 Rises=F Damp=F
 DIIS: error= 2.46D-04 at cycle  14 NSaved=  14.
 NSaved=14 IEnMin=14 EnMin= -3319.80631984133     IErMin=14 ErrMin= 2.46D-04
 ErrMax= 2.46D-04  0.00D+00 EMaxC= 1.00D-01 BMatC= 3.78D-05 BMatP= 3.67D-04
 IDIUse=3 WtCom= 9.98D-01 WtEn= 2.46D-03
 Coeff-Com: -0.683D-03-0.750D-05-0.782D-03-0.178D-04 0.521D-03 0.873D-02
 Coeff-Com:  0.641D-02 0.842D-03-0.602D-01-0.460D+00 0.516D+00 0.139D+00
 Coeff-Com:  0.199D+00 0.651D+00
 Coeff-En:   0.000D+00 0.000D+00 0.000D+00 0.000D+00 0.000D+00 0.000D+00
 Coeff-En:   0.000D+00 0.000D+00 0.000D+00 0.000D+00 0.000D+00 0.000D+00
 Coeff-En:   0.000D+00 0.100D+01
 Coeff:     -0.681D-03-0.748D-05-0.780D-03-0.178D-04 0.520D-03 0.871D-02
 Coeff:      0.639D-02 0.840D-03-0.600D-01-0.459D+00 0.515D+00 0.139D+00
 Coeff:      0.198D+00 0.652D+00
 Gap=     0.083 Goal=   None    Shift=    0.000
 RMSDP=2.15D-05 MaxDP=2.72D-03 DE=-5.63D-04 OVMax= 1.32D-03

 Cycle  15  Pass 1  IDiag  1:
 E= -3319.80632619447     Delta-E=       -0.000006353142 Rises=F Damp=F
 DIIS: error= 6.45D-05 at cycle  15 NSaved=  15.
 NSaved=15 IEnMin=15 EnMin= -3319.80632619447     IErMin=15 ErrMin= 6.45D-05
 ErrMax= 6.45D-05  0.00D+00 EMaxC= 1.00D-01 BMatC= 1.79D-06 BMatP= 3.78D-05
 IDIUse=1 WtCom= 1.00D+00 WtEn= 0.00D+00
 Coeff-Com: -0.783D-04-0.103D-03 0.218D-04 0.392D-05 0.629D-04 0.147D-02
 Coeff-Com:  0.107D-02-0.382D-02-0.218D-01-0.114D+00 0.107D+00 0.225D-01
 Coeff-Com:  0.512D-01 0.282D+00 0.674D+00
 Coeff:     -0.783D-04-0.103D-03 0.218D-04 0.392D-05 0.629D-04 0.147D-02
 Coeff:      0.107D-02-0.382D-02-0.218D-01-0.114D+00 0.107D+00 0.225D-01
 Coeff:      0.512D-01 0.282D+00 0.674D+00
 Gap=     0.083 Goal=   None    Shift=    0.000
 RMSDP=1.03D-05 MaxDP=5.91D-04 DE=-6.35D-06 OVMax= 1.05D-03

 Cycle  16  Pass 1  IDiag  1:
 E= -3319.80632764567     Delta-E=       -0.000001451201 Rises=F Damp=F
 DIIS: error= 4.73D-05 at cycle  16 NSaved=  16.
 NSaved=16 IEnMin=16 EnMin= -3319.80632764567     IErMin=16 ErrMin= 4.73D-05
 ErrMax= 4.73D-05  0.00D+00 EMaxC= 1.00D-01 BMatC= 1.23D-06 BMatP= 1.79D-06
 IDIUse=1 WtCom= 1.00D+00 WtEn= 0.00D+00
 Coeff-Com: -0.318D-04-0.310D-04 0.116D-04-0.208D-06 0.758D-04 0.324D-03
 Coeff-Com:  0.129D-03-0.156D-02-0.688D-02-0.365D-01 0.240D-01 0.677D-02
 Coeff-Com:  0.258D-01 0.119D+00 0.459D+00 0.409D+00
 Coeff:     -0.318D-04-0.310D-04 0.116D-04-0.208D-06 0.758D-04 0.324D-03
 Coeff:      0.129D-03-0.156D-02-0.688D-02-0.365D-01 0.240D-01 0.677D-02
 Coeff:      0.258D-01 0.119D+00 0.459D+00 0.409D+00
 Gap=     0.083 Goal=   None    Shift=    0.000
 RMSDP=3.17D-06 MaxDP=1.81D-04 DE=-1.45D-06 OVMax= 3.18D-04

 Cycle  17  Pass 1  IDiag  1:
 E= -3319.80632872460     Delta-E=       -0.000001078927 Rises=F Damp=F
 DIIS: error= 1.72D-05 at cycle  17 NSaved=  17.
 NSaved=17 IEnMin=17 EnMin= -3319.80632872460     IErMin=17 ErrMin= 1.72D-05
 ErrMax= 1.72D-05  0.00D+00 EMaxC= 1.00D-01 BMatC= 1.64D-07 BMatP= 1.23D-06
 IDIUse=1 WtCom= 1.00D+00 WtEn= 0.00D+00
 Coeff-Com: -0.194D-04-0.127D-04 0.180D-05-0.386D-06 0.503D-04 0.565D-04
 Coeff-Com: -0.473D-04-0.480D-03-0.183D-02-0.118D-01 0.273D-02 0.314D-02
 Coeff-Com:  0.151D-01 0.479D-01 0.263D+00 0.266D+00 0.416D+00
 Coeff:     -0.194D-04-0.127D-04 0.180D-05-0.386D-06 0.503D-04 0.565D-04
 Coeff:     -0.473D-04-0.480D-03-0.183D-02-0.118D-01 0.273D-02 0.314D-02
 Coeff:      0.151D-01 0.479D-01 0.263D+00 0.266D+00 0.416D+00
 Gap=     0.083 Goal=   None    Shift=    0.000
 RMSDP=1.40D-06 MaxDP=8.05D-05 DE=-1.08D-06 OVMax= 1.35D-04

 Cycle  18  Pass 1  IDiag  1:
 E= -3319.80632888128     Delta-E=       -0.000000156684 Rises=F Damp=F
 DIIS: error= 3.70D-06 at cycle  18 NSaved=  18.
 NSaved=18 IEnMin=18 EnMin= -3319.80632888128     IErMin=18 ErrMin= 3.70D-06
 ErrMax= 3.70D-06  0.00D+00 EMaxC= 1.00D-01 BMatC= 1.54D-08 BMatP= 1.64D-07
 IDIUse=1 WtCom= 1.00D+00 WtEn= 0.00D+00
 Coeff-Com:  0.130D-05-0.129D-04 0.708D-05 0.396D-06 0.112D-04-0.757D-04
 Coeff-Com: -0.112D-03-0.929D-04 0.233D-03 0.389D-03-0.523D-02 0.741D-03
 Coeff-Com:  0.596D-02 0.922D-02 0.110D+00 0.106D+00 0.316D+00 0.458D+00
 Coeff:      0.130D-05-0.129D-04 0.708D-05 0.396D-06 0.112D-04-0.757D-04
 Coeff:     -0.112D-03-0.929D-04 0.233D-03 0.389D-03-0.523D-02 0.741D-03
 Coeff:      0.596D-02 0.922D-02 0.110D+00 0.106D+00 0.316D+00 0.458D+00
 Gap=     0.083 Goal=   None    Shift=    0.000
 RMSDP=3.66D-07 MaxDP=1.82D-05 DE=-1.57D-07 OVMax= 4.17D-05

 Cycle  19  Pass 1  IDiag  1:
 E= -3319.80632889306     Delta-E=       -0.000000011782 Rises=F Damp=F
 DIIS: error= 9.42D-07 at cycle  19 NSaved=  19.
 NSaved=19 IEnMin=19 EnMin= -3319.80632889306     IErMin=19 ErrMin= 9.42D-07
 ErrMax= 9.42D-07  0.00D+00 EMaxC= 1.00D-01 BMatC= 8.08D-10 BMatP= 1.54D-08
 IDIUse=1 WtCom= 1.00D+00 WtEn= 0.00D+00
 Coeff-Com:  0.276D-05-0.438D-05 0.227D-05 0.103D-06 0.277D-05-0.256D-04
 Coeff-Com: -0.550D-04-0.111D-04 0.266D-03 0.982D-03-0.291D-02 0.193D-03
 Coeff-Com:  0.154D-02 0.754D-03 0.347D-01 0.284D-01 0.131D+00 0.246D+00
 Coeff-Com:  0.558D+00
 Coeff:      0.276D-05-0.438D-05 0.227D-05 0.103D-06 0.277D-05-0.256D-04
 Coeff:     -0.550D-04-0.111D-04 0.266D-03 0.982D-03-0.291D-02 0.193D-03
 Coeff:      0.154D-02 0.754D-03 0.347D-01 0.284D-01 0.131D+00 0.246D+00
 Coeff:      0.558D+00
 Gap=     0.083 Goal=   None    Shift=    0.000
 RMSDP=8.25D-08 MaxDP=7.36D-06 DE=-1.18D-08 OVMax= 7.00D-06

 Cycle  20  Pass 1  IDiag  1:
 E= -3319.80632889348     Delta-E=       -0.000000000414 Rises=F Damp=F
 DIIS: error= 4.82D-07 at cycle  20 NSaved=  20.
 NSaved=20 IEnMin=20 EnMin= -3319.80632889348     IErMin=20 ErrMin= 4.82D-07
 ErrMax= 4.82D-07  0.00D+00 EMaxC= 1.00D-01 BMatC= 6.54D-11 BMatP= 8.08D-10
 IDIUse=1 WtCom= 1.00D+00 WtEn= 0.00D+00
 Coeff-Com:  0.138D-05-0.170D-05 0.146D-05 0.620D-07-0.605D-06 0.164D-05
 Coeff-Com: -0.557D-05-0.138D-04 0.220D-04 0.290D-03-0.768D-03-0.633D-04
 Coeff-Com:  0.140D-05-0.217D-04 0.648D-02 0.394D-02 0.288D-01 0.618D-01
 Coeff-Com:  0.215D+00 0.685D+00
 Coeff:      0.138D-05-0.170D-05 0.146D-05 0.620D-07-0.605D-06 0.164D-05
 Coeff:     -0.557D-05-0.138D-04 0.220D-04 0.290D-03-0.768D-03-0.633D-04
 Coeff:      0.140D-05-0.217D-04 0.648D-02 0.394D-02 0.288D-01 0.618D-01
 Coeff:      0.215D+00 0.685D+00
 Gap=     0.083 Goal=   None    Shift=    0.000
 RMSDP=6.02D-08 MaxDP=3.65D-06 DE=-4.14D-10 OVMax= 6.33D-06

 Cycle  21  Pass 1  IDiag  1:
 E= -3319.80632889356     Delta-E=       -0.000000000081 Rises=F Damp=F
 DIIS: error= 1.12D-07 at cycle  21 NSaved=  20.
 NSaved=20 IEnMin=20 EnMin= -3319.80632889356     IErMin=20 ErrMin= 1.12D-07
 ErrMax= 1.12D-07  0.00D+00 EMaxC= 1.00D-01 BMatC= 8.62D-12 BMatP= 6.54D-11
 IDIUse=1 WtCom= 1.00D+00 WtEn= 0.00D+00
 Coeff-Com:  0.180D-06-0.344D-06 0.105D-06-0.192D-06 0.458D-05 0.288D-05
 Coeff-Com:  0.406D-05 0.159D-04 0.110D-03-0.199D-03-0.484D-04-0.117D-03
 Coeff-Com: -0.280D-03 0.567D-04-0.331D-03 0.484D-02 0.133D-01 0.553D-01
 Coeff-Com:  0.305D+00 0.622D+00
 Coeff:      0.180D-06-0.344D-06 0.105D-06-0.192D-06 0.458D-05 0.288D-05
 Coeff:      0.406D-05 0.159D-04 0.110D-03-0.199D-03-0.484D-04-0.117D-03
 Coeff:     -0.280D-03 0.567D-04-0.331D-03 0.484D-02 0.133D-01 0.553D-01
 Coeff:      0.305D+00 0.622D+00
 Gap=     0.083 Goal=   None    Shift=    0.000
 RMSDP=1.47D-08 MaxDP=8.52D-07 DE=-8.09D-11 OVMax= 1.39D-06

 Cycle  22  Pass 1  IDiag  1:
 E= -3319.80632889362     Delta-E=       -0.000000000061 Rises=F Damp=F
 DIIS: error= 7.91D-08 at cycle  22 NSaved=  20.
 NSaved=20 IEnMin=20 EnMin= -3319.80632889362     IErMin=20 ErrMin= 7.91D-08
 ErrMax= 7.91D-08  0.00D+00 EMaxC= 1.00D-01 BMatC= 2.08D-12 BMatP= 8.62D-12
 IDIUse=1 WtCom= 1.00D+00 WtEn= 0.00D+00
 Coeff-Com: -0.457D-07-0.567D-07-0.314D-07 0.232D-05 0.175D-05 0.164D-05
 Coeff-Com:  0.793D-06 0.186D-05-0.143D-04-0.214D-04-0.303D-04 0.460D-04
 Coeff-Com: -0.527D-04 0.286D-03 0.641D-05-0.503D-03 0.348D-02 0.280D-01
 Coeff-Com:  0.308D+00 0.661D+00
 Coeff:     -0.457D-07-0.567D-07-0.314D-07 0.232D-05 0.175D-05 0.164D-05
 Coeff:      0.793D-06 0.186D-05-0.143D-04-0.214D-04-0.303D-04 0.460D-04
 Coeff:     -0.527D-04 0.286D-03 0.641D-05-0.503D-03 0.348D-02 0.280D-01
 Coeff:      0.308D+00 0.661D+00
 Gap=     0.083 Goal=   None    Shift=    0.000
 RMSDP=6.39D-09 MaxDP=3.75D-07 DE=-6.09D-11 OVMax= 6.36D-07

 SCF Done:  E(RB-P86) =  -3319.80632889     A.U. after   22 cycles
            NFock= 22  Conv=0.64D-08     -V/T= 2.0925
 KE= 3.038614197486D+03 PE=-9.271165238159D+03 EE= 2.173597404063D+03
 Leave Link  502 at Tue Jul  4 11:14:55 2023, MaxMem=  2147483648 cpu:             627.3 elap:             118.2
 (Enter /home/pcmt/gaussian/g16.C.01/g16/l601.exe)
 Copying SCF densities to generalized density rwf, IOpCl= 0 IROHF=0.

 **********************************************************************

            Population analysis using the SCF Density.

 **********************************************************************

 Orbital symmetries:
       Occupied  (A) (A) (A) (A) (A) (A) (A) (A) (A) (A) (A) (A)
                 (A) (A) (A) (A) (A) (A) (A) (A) (A) (A) (A) (A)
                 (A) (A) (A) (A) (A) (A) (A) (A) (A) (A) (A) (A)
                 (A) (A) (A) (A) (A) (A) (A) (A) (A) (A) (A) (A)
                 (A) (A) (A)
       Virtual   (A) (A) (A) (A) (A) (A) (A) (A) (A) (A) (A) (A)
                 (A) (A) (A) (A) (A) (A) (A) (A) (A) (A) (A) (A)
                 (A) (A) (A) (A) (A) (A) (A) (A) (A) (A) (A) (A)
                 (A) (A) (A) (A) (A) (A) (A) (A) (A) (A) (A) (A)
                 (A) (A) (A) (A) (A) (A) (A) (A) (A) (A) (A) (A)
                 (A) (A) (A) (A) (A) (A) (A) (A) (A) (A) (A) (A)
                 (A) (A) (A) (A) (A) (A) (A) (A) (A) (A) (A) (A)
                 (A) (A) (A) (A) (A) (A) (A) (A) (A) (A) (A) (A)
                 (A) (A) (A) (A) (A) (A) (A) (A) (A) (A) (A) (A)
                 (A) (A) (A) (A) (A) (A) (A) (A) (A) (A) (A) (A)
                 (A) (A) (A) (A) (A) (A) (A) (A) (A) (A) (A) (A)
                 (A) (A) (A) (A) (A) (A) (A) (A) (A) (A) (A) (A)
                 (A) (A) (A) (A) (A) (A) (A) (A) (A) (A) (A) (A)
                 (A) (A) (A) (A) (A) (A) (A) (A) (A) (A) (A) (A)
                 (A) (A) (A) (A) (A) (A) (A) (A) (A) (A) (A) (A)
                 (A) (A) (A) (A) (A) (A) (A) (A) (A) (A) (A) (A)
                 (A) (A) (A) (A) (A) (A) (A) (A) (A) (A) (A) (A)
                 (A) (A) (A) (A) (A) (A) (A) (A) (A) (A) (A) (A)
                 (A) (A) (A) (A) (A) (A) (A) (A) (A) (A) (A) (A)
                 (A) (A) (A) (A) (A) (A) (A) (A) (A) (A) (A) (A)
                 (A) (A) (A) (A)
 The electronic state is 1-A.
 Alpha  occ. eigenvalues -- -481.09397 -61.78534 -55.69721 -55.69653 -55.69614
 Alpha  occ. eigenvalues --  -18.78205 -18.78166 -18.78041 -18.77711 -11.12201
 Alpha  occ. eigenvalues --   -8.35929  -7.18792  -7.18433  -7.18238  -6.23121
 Alpha  occ. eigenvalues --   -6.22927  -6.22813  -3.54285  -3.54253  -3.54181
 Alpha  occ. eigenvalues --   -3.53999  -3.53805  -2.43565  -2.43525  -2.43442
 Alpha  occ. eigenvalues --   -2.43292  -2.43284  -1.73790  -0.97078  -0.94974
 Alpha  occ. eigenvalues --   -0.94094  -0.90332  -0.81740  -0.81219  -0.79318
 Alpha  occ. eigenvalues --   -0.64232  -0.47310  -0.44429  -0.44073  -0.40903
 Alpha  occ. eigenvalues --   -0.33231  -0.31655  -0.30874  -0.30277  -0.30079
 Alpha  occ. eigenvalues --   -0.29463  -0.28985  -0.28672  -0.24884  -0.23075
 Alpha  occ. eigenvalues --   -0.22349
 Alpha virt. eigenvalues --   -0.14033  -0.13485  -0.12698  -0.12328  -0.11454
 Alpha virt. eigenvalues --   -0.10624  -0.09972  -0.08448  -0.03593  -0.01132
 Alpha virt. eigenvalues --   -0.00797   0.00738   0.01146   0.01300   0.01869
 Alpha virt. eigenvalues --    0.03590   0.05532   0.09387   0.10746   0.11845
 Alpha virt. eigenvalues --    0.13708   0.18672   0.21050   0.22416   0.22743
 Alpha virt. eigenvalues --    0.23693   0.23909   0.24588   0.25756   0.26791
 Alpha virt. eigenvalues --    0.28117   0.28875   0.29368   0.30035   0.30596
 Alpha virt. eigenvalues --    0.32200   0.35630   0.36980   0.38132   0.39769
 Alpha virt. eigenvalues --    0.41170   0.42483   0.43201   0.43533   0.44634
 Alpha virt. eigenvalues --    0.46818   0.48334   0.49914   0.51662   0.53499
 Alpha virt. eigenvalues --    0.54351   0.55562   0.56887   0.57596   0.59892
 Alpha virt. eigenvalues --    0.60767   0.62735   0.66490   0.69136   0.73279
 Alpha virt. eigenvalues --    0.75322   0.78945   0.84362   0.86029   0.89550
 Alpha virt. eigenvalues --    0.94747   0.95885   1.03340   1.06023   1.06232
 Alpha virt. eigenvalues --    1.08826   1.09494   1.10086   1.10561   1.11299
 Alpha virt. eigenvalues --    1.13266   1.14193   1.15113   1.17246   1.20643
 Alpha virt. eigenvalues --    1.24713   1.26126   1.26651   1.29378   1.30632
 Alpha virt. eigenvalues --    1.33635   1.34757   1.35050   1.35944   1.38133
 Alpha virt. eigenvalues --    1.38531   1.39700   1.42262   1.43019   1.44317
 Alpha virt. eigenvalues --    1.46578   1.50386   1.50668   1.51826   1.53141
 Alpha virt. eigenvalues --    1.54062   1.55200   1.56784   1.58168   1.59074
 Alpha virt. eigenvalues --    1.60733   1.61264   1.63675   1.65459   1.67121
 Alpha virt. eigenvalues --    1.68098   1.71153   1.72958   1.74317   1.76958
 Alpha virt. eigenvalues --    1.78822   1.79084   1.81774   1.84027   1.87587
 Alpha virt. eigenvalues --    1.88091   1.90238   1.94072   2.00334   2.12183
 Alpha virt. eigenvalues --    2.14662   2.17421   2.18977   2.19720   2.22244
 Alpha virt. eigenvalues --    2.24618   2.25071   2.26894   2.36742   2.42631
 Alpha virt. eigenvalues --    2.45029   2.48758   2.50738   2.58516   2.60368
 Alpha virt. eigenvalues --    2.61432   2.64721   2.65737   2.70520   2.73106
 Alpha virt. eigenvalues --    2.74007   2.74907   2.90567   2.92024   3.02049
 Alpha virt. eigenvalues --    3.41475   3.47176   3.54595   3.64224   3.64892
 Alpha virt. eigenvalues --    3.67814   3.70285   3.75793   3.78410   3.83584
 Alpha virt. eigenvalues --    3.86390   3.89873   3.94627   3.96738   4.02993
 Alpha virt. eigenvalues --    4.04016   4.06323   4.14595   4.16564   4.20800
 Alpha virt. eigenvalues --    4.99325   4.99527   4.99850   5.00050   5.00584
 Alpha virt. eigenvalues --    5.00884   5.01352   5.01866   5.05554   5.06072
 Alpha virt. eigenvalues --    5.09692   5.10263   5.11172   5.12418   5.14079
 Alpha virt. eigenvalues --    5.15643   5.30343   5.30838   5.32691   5.35971
 Alpha virt. eigenvalues --    5.36888   5.39804   5.42079   5.43005   5.98720
 Alpha virt. eigenvalues --    6.08820   6.09108   6.10587   6.14308   6.15883
 Alpha virt. eigenvalues --    6.16634   6.18756   6.21228   6.23186   6.25288
 Alpha virt. eigenvalues --    6.28072   6.29053   6.39709   6.41833   6.46178
 Alpha virt. eigenvalues --    6.47880   6.61882   6.63620   6.65550   6.75400
 Alpha virt. eigenvalues --    6.93118   6.95916   6.98796   7.07350   7.22706
 Alpha virt. eigenvalues --    7.33614   7.41826   7.47053   8.11458   8.16052
 Alpha virt. eigenvalues --    8.18620   8.54883   8.85181  29.29827  29.37695
 Alpha virt. eigenvalues --   29.44241  43.22377  43.28962  43.36880  43.42490
 Alpha virt. eigenvalues --   54.04692  70.20685  70.25131  70.28971 142.60604
 Alpha virt. eigenvalues --  142.69072 142.76602 202.55968 626.07652
     Molecular Orbital Coefficients:
                           1         2         3         4         5
                           O         O         O         O         O
     Eigenvalues --  -481.09397 -61.78534 -55.69721 -55.69653 -55.69614
   1 1   Pa 1S         -0.00000   0.00000   0.00000  -0.00000  -0.00000
   2        2S         -0.00000   0.00000   0.00002  -0.00000  -0.00000
   3        3S          0.00000  -0.00000  -0.00000   0.00000   0.00000
   4        4S          0.00000  -0.00000  -0.00004   0.00000   0.00000
   5        5S         -0.00000   0.00002   0.00009  -0.00001  -0.00002
   6        6S          0.00001  -0.00008  -0.00009   0.00001   0.00003
   7        7S         -0.00006   0.00034  -0.00023   0.00001  -0.00006
   8        8S          0.00018  -0.00100   0.00063  -0.00010   0.00008
   9        9S         -0.00048   0.00270   0.00038   0.00037   0.00000
  10       10S          0.00007  -0.00039  -0.00007   0.00004  -0.00000
  11       11PX        -0.00000   0.00001  -0.00001  -0.00000   0.00000
  12       11PY         0.00000  -0.00000  -0.00000   0.00000  -0.00000
  13       11PZ        -0.00000   0.00000  -0.00000   0.00000  -0.00000
  14       12PX         0.00002  -0.00006   0.00004   0.00001  -0.00000
  15       12PY        -0.00000   0.00000   0.00000  -0.00000   0.00001
  16       12PZ         0.00000  -0.00001   0.00000  -0.00000   0.00000
  17       13PX        -0.00003   0.00013  -0.00008  -0.00002   0.00001
  18       13PY         0.00000  -0.00000  -0.00000   0.00000  -0.00002
[...]
   XY=              0.9676   XZ=              1.1703   YZ=             -1.0452
 Octapole moment (field-independent basis, Debye-Ang**2):
  XXX=             43.5711  YYY=              4.0815  ZZZ=              4.8285  XYY=             23.3714
  XXY=              8.6595  XXZ=             -0.9174  XZZ=              9.4031  YZZ=             -7.7280
  YYZ=              5.8023  XYZ=             -3.2028
 Hexadecapole moment (field-independent basis, Debye-Ang**3):
 XXXX=          -1031.8931 YYYY=           -301.4426 ZZZZ=           -199.6280 XXXY=             40.2516
 XXXZ=            -14.0958 YYYX=            -14.4659 YYYZ=             21.3213 ZZZX=             21.4608
 ZZZY=            -23.8639 XXYY=           -232.8582 XXZZ=           -223.1454 YYZZ=           -118.6485
 XXYZ=             -9.4932 YYXZ=              2.8175 ZZXY=             -6.3501
 N-N= 7.391473077156D+02 E-N=-9.271165237357D+03  KE= 3.038614197486D+03
 Orbital energies and kinetic energies (alpha):
                                 1                 2
   1         O              -481.093974        595.240156
   2         O               -61.785338        117.224485
   3         O               -55.697213        116.497501
   4         O               -55.696526        116.504831
   5         O               -55.696141        116.504783
   6         O               -18.782050         29.112612
   7         O               -18.781663         29.111881
   8         O               -18.780410         29.112003
   9         O               -18.777112         29.113075
  10         O               -11.122010          4.703963
  11         O                -8.359286         27.785691
  12         O                -7.187924          5.037483
  13         O                -7.184330          5.036582
  14         O                -7.182378          5.035647
  15         O                -6.231214         25.783562
  16         O                -6.229274         25.790460
  17         O                -6.228132         25.791384
  18         O                -3.542855          6.838312
  19         O                -3.542533          6.837866
  20         O                -3.541810          6.837739
  21         O                -3.539985          6.836840
  22         O                -3.538052          6.836461
  23         O                -2.435649         21.393343
  24         O                -2.435252         21.396070
  25         O                -2.434416         21.397688
  26         O                -2.432923         21.404055
  27         O                -2.432837         21.403921
  28         O                -1.737898          6.447244
  29         O                -0.970785          2.306282
  30         O                -0.949739          2.399665
  31         O                -0.940936          2.496095
  32         O                -0.903317          2.949928
  33         O                -0.817403          2.563580
  34         O                -0.812191          2.546226
  35         O                -0.793176          2.601438
  36         O                -0.642322          3.976633
  37         O                -0.473104          2.969594
  38         O                -0.444286          4.143269
  39         O                -0.440733          3.101376
  40         O                -0.409027          2.439749
  41         O                -0.332312          2.130386
  42         O                -0.316546          2.130029
  43         O                -0.308741          2.705185
  44         O                -0.302773          3.289522
  45         O                -0.300792          2.882740
  46         O                -0.294628          2.611157
  47         O                -0.289846          4.319156
  48         O                -0.286720          4.629655
  49         O                -0.248840          3.904006
  50         O                -0.230752          2.600771
  51         O                -0.223488          2.595019
  52         V                -0.140334        121.540172
  53         V                -0.134853          6.037976
  54         V                -0.126982         13.377908
  55         V                -0.123275          5.652769
  56         V                -0.114539         14.139359
  57         V                -0.106244        179.233860
  58         V                -0.099720         62.403984
  59         V                -0.084485          5.656460
  60         V                -0.035931         18.537075
  61         V                -0.011318          1.510826
  62         V                -0.007971          2.726594
  63         V                 0.007378          2.121531
  64         V                 0.011465          1.665764
  65         V                 0.013000          0.968516
  66         V                 0.018690          1.308462
  67         V                 0.035901          1.524117
  68         V                 0.055322          0.974074
  69         V                 0.093872          7.016638
  70         V                 0.107460          0.953109
  71         V                 0.118446          1.082050
  72         V                 0.137082          4.467528
  73         V                 0.186725          1.271450
  74         V                 0.210497          1.144931
  75         V                 0.224156          1.515852
  76         V                 0.227427          1.418803
  77         V                 0.236931          1.233865
  78         V                 0.239095          1.322434
  79         V                 0.245879          1.235803
  80         V                 0.257557          1.298663
  81         V                 0.267912          1.701693
  82         V                 0.281172          1.403667
  83         V                 0.288748          1.399764
  84         V                 0.293685          1.814782
  85         V                 0.300352          1.467446
  86         V                 0.305960          1.799660
  87         V                 0.321996          1.404789
  88         V                 0.356299          1.738092
  89         V                 0.369801          1.505498
  90         V                 0.381320          2.774939
  91         V                 0.397686          1.505929
  92         V                 0.411699          1.911244
  93         V                 0.424825          1.655072
  94         V                 0.432013          1.798811
  95         V                 0.435335          2.006025
  96         V                 0.446336          2.210360
  97         V                 0.468185          1.811937
  98         V                 0.483338          1.839771
  99         V                 0.499145          1.626191
 100         V                 0.516618          1.647785
 101         V                 0.534989          2.242044
 102         V                 0.543509          1.633379
 103         V                 0.555621          1.591005
 104         V                 0.568868          1.606370
 105         V                 0.575959          1.616164
 106         V                 0.598918          2.639987
 107         V                 0.607670          2.399789
 108         V                 0.627347          1.528275
 109         V                 0.664900          2.182345
 110         V                 0.691357          2.140918
 111         V                 0.732794          1.549172
 112         V                 0.753221          1.855141
 113         V                 0.789449          1.686098
 114         V                 0.843622          1.985259
 115         V                 0.860293          2.073636
 116         V                 0.895503          3.463881
 117         V                 0.947467          3.620756
 118         V                 0.958851          2.664555
 119         V                 1.033404          2.546806
 120         V                 1.060228          2.642074
 121         V                 1.062322          2.810101
 122         V                 1.088257          2.768055
 123         V                 1.094937          2.745134
 124         V                 1.100861          3.204039
 125         V                 1.105605          2.820209
 126         V                 1.112987          2.704787
 127         V                 1.132665          2.912393
 128         V                 1.141933          2.404778
 129         V                 1.151133          2.852545
 130         V                 1.172461          2.679539
 131         V                 1.206433          2.771694
 132         V                 1.247134          3.282333
 133         V                 1.261261          3.394223
 134         V                 1.266506          3.405756
 135         V                 1.293782          2.689215
 136         V                 1.306324          3.066526
 137         V                 1.336348          3.299076
 138         V                 1.347575          3.173007
 139         V                 1.350505          3.277904
 140         V                 1.359439          3.977215
 141         V                 1.381331          3.501287
 142         V                 1.385313          3.492455
 143         V                 1.397000          3.074582
 144         V                 1.422624          3.096722
 145         V                 1.430188          3.317989
 146         V                 1.443171          3.021001
 147         V                 1.465782          3.176423
 148         V                 1.503863          2.648799
 149         V                 1.506679          2.848886
 150         V                 1.518256          2.842215
 151         V                 1.531406          2.953834
 152         V                 1.540623          4.024100
 153         V                 1.552000          3.627320
 154         V                 1.567842          3.901977
 155         V                 1.581676          4.451203
 156         V                 1.590737          5.140191
 157         V                 1.607330          4.939717
 158         V                 1.612639          4.863402
 159         V                 1.636748          4.636529
 160         V                 1.654589          3.415691
 161         V                 1.671214          3.389166
 162         V                 1.680982          3.381868
 163         V                 1.711528          3.542628
 164         V                 1.729584          3.471224
 165         V                 1.743171          3.448401
 166         V                 1.769581          3.671412
 167         V                 1.788219          3.261903
 168         V                 1.790837          3.356020
 169         V                 1.817744          4.048261
 170         V                 1.840272          3.667641
 171         V                 1.875874          3.978044
 172         V                 1.880911          4.072972
 173         V                 1.902384          3.678564
 174         V                 1.940719          3.665543
 175         V                 2.003340          4.919474
 176         V                 2.121832          3.663314
 177         V                 2.146623          3.583607
 178         V                 2.174208          3.773701
 179         V                 2.189765          3.812133
 180         V                 2.197195          3.834434
 181         V                 2.222442          3.967981
 182         V                 2.246175          4.939152
 183         V                 2.250711          4.130694
 184         V                 2.268938          3.912168
 185         V                 2.367416          6.337677
 186         V                 2.426313          4.659370
 187         V                 2.450292          4.128577
 188         V                 2.487578          4.399774
 189         V                 2.507381          4.824661
 190         V                 2.585160          6.153810
 191         V                 2.603681          6.789956
 192         V                 2.614319          6.789526
 193         V                 2.647210          6.380639
 194         V                 2.657373          6.204351
 195         V                 2.705202          6.248707
 196         V                 2.731063          6.445658
 197         V                 2.740066          6.673897
 198         V                 2.749073          6.685017
 199         V                 2.905669          6.854520
 200         V                 2.920242          6.821727
 201         V                 3.020486          6.608133
 202         V                 3.414745          8.644315
 203         V                 3.471763          8.369097
 204         V                 3.545953          8.473134
 205         V                 3.642242          6.955592
 206         V                 3.648915          8.394201
 207         V                 3.678138          7.440944
 208         V                 3.702849          7.618682
 209         V                 3.757927          7.537742
 210         V                 3.784098          9.376475
 211         V                 3.835843          9.886723
 212         V                 3.863897          9.587657
 213         V                 3.898731          9.588309
 214         V                 3.946268         12.762104
 215         V                 3.967382         12.685860
 216         V                 4.029932         10.879427
 217         V                 4.040159         11.930675
 218         V                 4.063233         11.926889
 219         V                 4.145951         10.575673
 220         V                 4.165642         10.191520
 221         V                 4.207996          9.837301
 222         V                 4.993248          6.438993
 223         V                 4.995271          6.443818
 224         V                 4.998498          6.448597
 225         V                 5.000496          6.457281
 226         V                 5.005844          6.469095
 227         V                 5.008844          6.466896
 228         V                 5.013522          6.489942
 229         V                 5.018661          6.475916
 230         V                 5.055535          6.683037
 231         V                 5.060725          6.632100
 232         V                 5.096916          6.814456
 233         V                 5.102627          6.698496
 234         V                 5.111715          6.849083
 235         V                 5.124177          6.787216
 236         V                 5.140790          6.819046
 237         V                 5.156433          6.849707
 238         V                 5.303429          6.908193
 239         V                 5.308382          7.081202
 240         V                 5.326907          7.890527
 241         V                 5.359713          7.115548
 242         V                 5.368877          7.013296
 243         V                 5.398036          7.120512
 244         V                 5.420786          7.230253
 245         V                 5.430050          7.223437
 246         V                 5.987203         10.720799
 247         V                 6.088205          9.034473
 248         V                 6.091083          9.145189
 249         V                 6.105868          9.093707
 250         V                 6.143079          9.467764
 251         V                 6.158826          9.134861
 252         V                 6.166341          9.343700
 253         V                 6.187562          9.346834
 254         V                 6.212277          9.349983
 255         V                 6.231858          9.301346
 256         V                 6.252879          9.359778
 257         V                 6.280722          9.321627
 258         V                 6.290527          9.391754
 259         V                 6.397090          9.620492
 260         V                 6.418326          9.632598
 261         V                 6.461778          9.664822
 262         V                 6.478797          9.675535
 263         V                 6.618822         10.117236
 264         V                 6.636198         10.299957
 265         V                 6.655497         10.311772
 266         V                 6.753997         10.124747
 267         V                 6.931179         10.160330
 268         V                 6.959165         10.423158
 269         V                 6.987960         10.007798
 270         V                 7.073499         10.623004
 271         V                 7.227061         13.102587
 272         V                 7.336145         21.957153
 273         V                 7.418265         13.802013
 274         V                 7.470528         30.058545
 275         V                 8.114584         15.943216
 276         V                 8.160519         15.805217
 277         V                 8.186198         15.814132
 278         V                 8.548827         16.146199
 279         V                 8.851807         16.335193
 280         V                29.298269         36.042145
 281         V                29.376948         36.114680
 282         V                29.442409         36.186277
 283         V                43.223770        108.600046
 284         V                43.289622        108.646878
 285         V                43.368804        108.736241
 286         V                43.424901        108.791654
 287         V                54.046918         39.960025
 288         V                70.206850         83.966549
 289         V                70.251309         84.047563
 290         V                70.289713         84.122946
 291         V               142.606041        242.449456
 292         V               142.690719        242.555402
 293         V               142.766025        242.650806
 294         V               202.559677        130.070823
 295         V               626.076523       1034.482704
 Total kinetic energy from orbitals= 3.038614197486D+03
 No NMR shielding tensors so no spin-rotation constants.
 Leave Link  601 at Tue Jul  4 11:14:55 2023, MaxMem=  2147483648 cpu:               3.2 elap:               0.4
 (Enter /home/pcmt/gaussian/g16.C.01/g16/l9999.exe)

 Test job not archived.
 1\1\GINC-U-0-0\SP\RBP86\Gen\Br1H4O4Pa1\ROOT\04-Jul-2023\0\\#p BP86/GEN
  Pseudo=Read GFInput GFPrint IOP(6/7=3) Symm=(Loose) Int=(UltraFine) G
 uess=(Harris) Scf=(NoVarAcc,MaxCycle=100,conver=8)\\pa_oh4_br-bp86-cos
 mors-deftzvp-gp.com SGP in PCM calculation\\0,1\Pa,0,0.4346956987,0.09
 26786279,0.3135230436\O,0,1.1678672553,1.765591283,-0.6982622572\H,0,1
 .2345846546,2.1715421873,-1.572013989\O,0,-1.5239656975,0.8392014094,0
 .1878222486\H,0,-2.0081502028,1.52657024,-0.2853176604\O,0,0.401145134
 3,-1.0305312773,-1.443893366\H,0,0.0113390869,-1.8183103087,-1.8394352
 23\O,0,-0.2571429517,-1.4787228033,1.5111893663\H,0,-1.0994962267,-1.9
 002512159,1.7259376022\Br,0,3.1320574197,-0.6223909616,1.011993597\\Ve
 rsion=ES64L-G16RevC.01\State=1-A\HF=-3319.8063289\RMSD=6.385e-09\Dipol
 e=-2.180546,0.6327943,-0.6937745\Quadrupole=-4.5197559,2.9420382,1.577
 7178,2.0814762,-0.6647121,-0.297862\PG=C01 [X(Br1H4O4Pa1)]\\@


 WHEN A MATHEMATICIAN ENGAGED IN INVESTIGATING
 PHYSICAL ACTIONS AND RESULTS HAS ARRIVED AT HIS
 CONCLUSIONS, MAY THEY NOT BE EXPRESSED IN COMMON
 LANGUAGE AS FULLY, CLEARLY, AND DEFINITELY AS IN
 MATHEMATICAL FORMULAE?
           - LETTER FROM M. FARADAY TO J.C. MAXWELL, 1857.
 Job cpu time:       0 days  0 hours 10 minutes 56.0 seconds.
 Elapsed time:       0 days  0 hours  2 minutes  2.0 seconds.
 File lengths (MBytes):  RWF=     37 Int=      0 D2E=      0 Chk=      6 Scr=      1
 Normal termination of Gaussian 16 at Tue Jul  4 11:14:55 2023.
