 Entering Gaussian System, Link 0=/home/pcmt/gaussian/g16.C.01/g16/g16
 AtFile(1): /home/shaaban/basis.gaussian/Pa-def-TZVP
 AtFile(1): /home/shaaban/basis.gaussian/Pa-ECP60MWB
 Initial command:
 /home/pcmt/gaussian/g16.C.01/g16/l1.exe "/state/partition2/shaaban/972885.phlam-s-sakura/Gau-38702.inp" -scrdir="/state/partition2/shaaban/972885.phlam-s-sakura/"
 Entering Link 1 = /home/pcmt/gaussian/g16.C.01/g16/l1.exe PID=     38703.
  
 Copyright (c) 1988-2019, Gaussian, Inc.  All Rights Reserved.
  
 This is part of the Gaussian(R) 16 program.  It is based on
 the Gaussian(R) 09 system (copyright 2009, Gaussian, Inc.),
 the Gaussian(R) 03 system (copyright 2003, Gaussian, Inc.),
 the Gaussian(R) 98 system (copyright 1998, Gaussian, Inc.),
 the Gaussian(R) 94 system (copyright 1995, Gaussian, Inc.),
 the Gaussian 92(TM) system (copyright 1992, Gaussian, Inc.),
 the Gaussian 90(TM) system (copyright 1990, Gaussian, Inc.),
 the Gaussian 88(TM) system (copyright 1988, Gaussian, Inc.),
 the Gaussian 86(TM) system (copyright 1986, Carnegie Mellon
 University), and the Gaussian 82(TM) system (copyright 1983,
 Carnegie Mellon University). Gaussian is a federally registered
 trademark of Gaussian, Inc.
  
 This software contains proprietary and confidential information,
 including trade secrets, belonging to Gaussian, Inc.
  
 This software is provided under written license and may be
 used, copied, transmitted, or stored only in accord with that
 written license.
  
 The following legend is applicable only to US Government
 contracts under FAR:
  
                    RESTRICTED RIGHTS LEGEND
  
 Use, reproduction and disclosure by the US Government is
 subject to restrictions as set forth in subparagraphs (a)
 and (c) of the Commercial Computer Software - Restricted
 Rights clause in FAR 52.227-19.
  
 Gaussian, Inc.
 340 Quinnipiac St., Bldg. 40, Wallingford CT 06492
  
  
 ---------------------------------------------------------------
 Warning -- This program may not be used in any manner that
 competes with the business of Gaussian, Inc. or will provide
 assistance to any competitor of Gaussian, Inc.  The licensee
 of this program is prohibited from giving any competitor of
 Gaussian, Inc. access to this program.  By using this program,
 the user acknowledges that Gaussian, Inc. is engaged in the
 business of creating and licensing software in the field of
 computational chemistry and represents and warrants to the
 licensee that it is not a competitor of Gaussian, Inc. and that
 it will not use this program in any manner prohibited above.
 ---------------------------------------------------------------
  

 Cite this work as:
 Gaussian 16, Revision C.01,
 M. J. Frisch, G. W. Trucks, H. B. Schlegel, G. E. Scuseria, 
 M. A. Robb, J. R. Cheeseman, G. Scalmani, V. Barone, 
 G. A. Petersson, H. Nakatsuji, X. Li, M. Caricato, A. V. Marenich, 
 J. Bloino, B. G. Janesko, R. Gomperts, B. Mennucci, H. P. Hratchian, 
 J. V. Ortiz, A. F. Izmaylov, J. L. Sonnenberg, D. Williams-Young, 
 F. Ding, F. Lipparini, F. Egidi, J. Goings, B. Peng, A. Petrone, 
 T. Henderson, D. Ranasinghe, V. G. Zakrzewski, J. Gao, N. Rega, 
 G. Zheng, W. Liang, M. Hada, M. Ehara, K. Toyota, R. Fukuda, 
 J. Hasegawa, M. Ishida, T. Nakajima, Y. Honda, O. Kitao, H. Nakai, 
 T. Vreven, K. Throssell, J. A. Montgomery, Jr., J. E. Peralta, 
 F. Ogliaro, M. J. Bearpark, J. J. Heyd, E. N. Brothers, K. N. Kudin, 
 V. N. Staroverov, T. A. Keith, R. Kobayashi, J. Normand, 
 K. Raghavachari, A. P. Rendell, J. C. Burant, S. S. Iyengar, 
 J. Tomasi, M. Cossi, J. M. Millam, M. Klene, C. Adamo, R. Cammi, 
 J. W. Ochterski, R. L. Martin, K. Morokuma, O. Farkas, 
 J. B. Foresman, and D. J. Fox, Gaussian, Inc., Wallingford CT, 2019.
 
 ******************************************
 Gaussian 16:  ES64L-G16RevC.01  3-Jul-2019
                 4-Jul-2023 
 ******************************************
 %mem=16Gb
 %NProc=8
 Will use up to    8 processors via shared memory.
 %chk=pa_oh4_br-bp86-cosmors-deftzvp-klamt.chk
 ----------------------------------------------------------------------
 #p BP86/GEN Pseudo=Read GFInput GFPrint IOP(6/7=3) Symm=(Loose) Int=(U
 ltraFine) Guess=(Harris) SCRF=(COSMORS) Scf=(NoVarAcc,MaxCycle=100,con
 ver=8)
 ----------------------------------------------------------------------
 1/38=1,172=1/1;
 2/12=2,17=4,18=3,40=1/2;
 3/5=7,11=2,16=1,17=8,24=110,25=1,30=1,70=12101,74=404,75=-5/1,2,3;
 4/11=8/1;
 5/5=2,6=8,7=100,38=1/2;
 6/7=3,8=2,9=2,10=2,28=1/1;
 99/5=1,9=1/99;
 Leave Link    1 at Tue Jul  4 11:12:53 2023, MaxMem=  2147483648 cpu:               0.7 elap:               0.1
 (Enter /home/pcmt/gaussian/g16.C.01/g16/l101.exe)
 ---------------------------------------------------------------
 pa_oh4_br-bp86-cosmors-deftzvp-klamt.com SGP in PCM calculation
 ---------------------------------------------------------------
 Symbolic Z-matrix:
 Charge =  0 Multiplicity = 1
 Pa                    0.4347    0.09268   0.31352 
 O                     1.16787   1.76559  -0.69826 
 H                     1.23458   2.17154  -1.57201 
 O                    -1.52397   0.8392    0.18782 
 H                    -2.00815   1.52657  -0.28532 
 O                     0.40115  -1.03053  -1.44389 
 H                     0.01134  -1.81831  -1.83944 
 O                    -0.25714  -1.47872   1.51119 
 H                    -1.0995   -1.90025   1.72594 
 Br                    3.13206  -0.62239   1.01199 
 
 ITRead=  0  0  0  0  0  0  0  0  0  0
 MicOpt= -1 -1 -1 -1 -1 -1 -1 -1 -1 -1
 NAtoms=     10 NQM=       10 NQMF=       0 NMMI=      0 NMMIF=      0
                NMic=       0 NMicF=      0.
                    Isotopes and Nuclear Properties:
 (Nuclear quadrupole moments (NQMom) in fm**2, nuclear magnetic moments (NMagM)
  in nuclear magnetons)

  Atom         1           2           3           4           5           6           7           8           9          10
 IAtWgt=         231          16           1          16           1          16           1          16           1          79
 AtmWgt= 231.0359000  15.9949146   1.0078250  15.9949146   1.0078250  15.9949146   1.0078250  15.9949146   1.0078250  78.9183361
 NucSpn=           3           0           1           0           1           0           1           0           1           3
 AtZEff=  -0.0000000  -0.0000000  -0.0000000  -0.0000000  -0.0000000  -0.0000000  -0.0000000  -0.0000000  -0.0000000  -0.0000000
 NQMom= -172.0000000   0.0000000   0.0000000   0.0000000   0.0000000   0.0000000   0.0000000   0.0000000   0.0000000  31.3000000
 NMagM=    2.0100000   0.0000000   2.7928460   0.0000000   2.7928460   0.0000000   2.7928460   0.0000000   2.7928460   2.1063990
 AtZNuc=  91.0000000   8.0000000   1.0000000   8.0000000   1.0000000   8.0000000   1.0000000   8.0000000   1.0000000  35.0000000
 Leave Link  101 at Tue Jul  4 11:12:53 2023, MaxMem=  2147483648 cpu:               1.3 elap:               0.2
 (Enter /home/pcmt/gaussian/g16.C.01/g16/l202.exe)
                          Input orientation:                          
 ---------------------------------------------------------------------
 Center     Atomic      Atomic             Coordinates (Angstroms)
 Number     Number       Type             X           Y           Z
 ---------------------------------------------------------------------
      1         91           0        0.434696    0.092679    0.313523
      2          8           0        1.167867    1.765591   -0.698262
      3          1           0        1.234585    2.171542   -1.572014
      4          8           0       -1.523966    0.839201    0.187822
      5          1           0       -2.008150    1.526570   -0.285318
      6          8           0        0.401145   -1.030531   -1.443893
      7          1           0        0.011339   -1.818310   -1.839435
      8          8           0       -0.257143   -1.478723    1.511189
      9          1           0       -1.099496   -1.900251    1.725938
     10         35           0        3.132057   -0.622391    1.011994
 ---------------------------------------------------------------------
                    Distance matrix (angstroms):
                    1          2          3          4          5
     1  Pa   0.000000
     2  O    2.088034   0.000000
     3  H    2.918346   0.965758   0.000000
     4  O    2.099869   2.981494   3.532953   0.000000
     5  H    2.895195   3.211657   3.547803   0.964765   0.000000
     6  O    2.085962   2.993682   3.311240   3.140772   3.699428
     7  H    2.909697   3.934995   4.181718   3.678220   4.204979
     8  O    2.093406   4.175872   5.005580   2.954473   3.914748
     9  H    2.884515   4.945309   5.736194   3.170264   4.076016
    10  Br   2.876621   3.533479   4.252477   4.949148   5.720383
                    6          7          8          9         10
     6  O    0.000000
     7  H    0.963845   0.000000
     8  O    3.060512   3.378474   0.000000
     9  H    3.613332   3.735312   0.966107   0.000000
    10  Br   3.695381   4.393148   3.531173   4.477576   0.000000
 Stoichiometry    BrH4O4Pa
 Framework group  C1[X(BrH4O4Pa)]
 Deg. of freedom    24
 Full point group                 C1      NOp   1
 Largest Abelian subgroup         C1      NOp   1
 Largest concise Abelian subgroup C1      NOp   1
                         Standard orientation:                         
 ---------------------------------------------------------------------
 Center     Atomic      Atomic             Coordinates (Angstroms)
 Number     Number       Type             X           Y           Z
 ---------------------------------------------------------------------
      1         91           0        0.488177   -0.003466   -0.091901
      2          8           0        0.464189    2.080639   -0.217669
      3          1           0        0.720835    2.885363    0.250562
      4          8           0        2.536132   -0.036609   -0.554755
      5          1           0        3.276331    0.579705   -0.609836
      6          8           0        0.688800    0.063855    1.983300
      7          1           0        0.961585   -0.464691    2.741736
      8          8           0        0.451345   -2.094975   -0.173040
      9          1           0        1.083399   -2.825292   -0.150543
     10         35           0       -2.388285    0.001059   -0.062047
 ---------------------------------------------------------------------
 Rotational constants (GHZ):           2.1437490           0.7067984           0.6378366
 Leave Link  202 at Tue Jul  4 11:12:53 2023, MaxMem=  2147483648 cpu:               0.1 elap:               0.1
 (Enter /home/pcmt/gaussian/g16.C.01/g16/l301.exe)
 General basis read from cards:  (5D, 7F)
 Centers:       1
 S 3 1.00
     Exponent=  1.2047376000D+04 Coefficients=  3.4500000000D-04
     Exponent=  1.8116841000D+03 Coefficients=  2.7420000000D-03
     Exponent=  3.4770104000D+02 Coefficients=  1.0053000000D-02
 S 1 1.00
     Exponent=  9.8678010000D+01 Coefficients=  1.0000000000D+00
 S 3 1.00
     Exponent=  5.7507376000D+01 Coefficients=  5.1528000000D-02
     Exponent=  3.3502601000D+01 Coefficients= -2.3692400000D-01
     Exponent=  1.9554451000D+01 Coefficients=  7.1904800000D-01
 S 1 1.00
     Exponent=  9.7164210000D+00 Coefficients=  1.0000000000D+00
 S 1 1.00
     Exponent=  2.6920960000D+00 Coefficients=  1.0000000000D+00
 S 1 1.00
     Exponent=  1.4538470000D+00 Coefficients=  1.0000000000D+00
 S 1 1.00
     Exponent=  5.7435200000D-01 Coefficients=  1.0000000000D+00
 S 1 1.00
     Exponent=  2.6346800000D-01 Coefficients=  1.0000000000D+00
 S 1 1.00
     Exponent=  5.6557000000D-02 Coefficients=  1.0000000000D+00
 S 1 1.00
     Exponent=  2.3169000000D-02 Coefficients=  1.0000000000D+00
 P 5 1.00
     Exponent=  2.9033676000D+03 Coefficients=  3.5000000000D-05
     Exponent=  6.4486356000D+02 Coefficients=  2.0500000000D-04
     Exponent=  2.2025896000D+02 Coefficients=  1.2510000000D-03
     Exponent=  8.0276401000D+01 Coefficients=  2.4570000000D-03
     Exponent=  2.4080211000D+01 Coefficients=  1.1190000000D-02
 P 1 1.00
     Exponent=  1.4077580000D+01 Coefficients=  1.0000000000D+00
 P 1 1.00
     Exponent=  8.2658460000D+00 Coefficients=  1.0000000000D+00
 P 1 1.00
     Exponent=  3.5948000000D+00 Coefficients=  1.0000000000D+00
 P 1 1.00
     Exponent=  1.7531110000D+00 Coefficients=  1.0000000000D+00
 P 1 1.00
     Exponent=  6.5776700000D-01 Coefficients=  1.0000000000D+00
 P 1 1.00
     Exponent=  2.8463900000D-01 Coefficients=  1.0000000000D+00
 P 1 1.00
     Exponent=  1.0054300000D-01 Coefficients=  1.0000000000D+00
 P 1 1.00
     Exponent=  3.0190000000D-02 Coefficients=  1.0000000000D+00
 D 6 1.00
     Exponent=  4.4814991000D+02 Coefficients=  2.6000000000D-05
     Exponent=  1.5446145000D+02 Coefficients=  2.2800000000D-04
     Exponent=  6.0925377000D+01 Coefficients=  9.0400000000D-04
     Exponent=  1.7032091000D+01 Coefficients=  2.5647000000D-02
     Exponent=  1.0018877000D+01 Coefficients= -1.0575100000D-01
     Exponent=  3.4091930000D+00 Coefficients=  4.4743200000D-01
 D 1 1.00
     Exponent=  1.6702130000D+00 Coefficients=  1.0000000000D+00
 D 1 1.00
     Exponent=  7.4109500000D-01 Coefficients=  1.0000000000D+00
 D 1 1.00
     Exponent=  2.6139300000D-01 Coefficients=  1.0000000000D+00
 D 1 1.00
     Exponent=  8.2811000000D-02 Coefficients=  1.0000000000D+00
 F 5 1.00
     Exponent=  8.7991327000D+01 Coefficients=  2.2600000000D-04
     Exponent=  2.8340195000D+01 Coefficients=  2.3230000000D-03
     Exponent=  1.2440994000D+01 Coefficients=  4.5850000000D-03
     Exponent=  3.9572960000D+00 Coefficients=  1.5696100000D-01
     Exponent=  1.8759440000D+00 Coefficients=  3.4497700000D-01
 F 1 1.00
     Exponent=  8.2758900000D-01 Coefficients=  1.0000000000D+00
 F 1 1.00
     Exponent=  3.3274800000D-01 Coefficients=  1.0000000000D+00
 F 1 1.00
     Exponent=  1.1468500000D-01 Coefficients=  1.0000000000D+00
 G 1 1.00
     Exponent=  3.5000000000D-01 Coefficients=  1.0000000000D+00
 ****
 Centers:       2      4      6      8
 Def2TZVP
 ****
 Centers:       3      5      7      9
 Def2TZVP
 ****
 Centers:      10
 Def2TZVP
 ****
 ======================================================================================================
                                       Pseudopotential Parameters
 ======================================================================================================
  Center     Atomic      Valence      Angular      Power
  Number     Number     Electrons     Momentum     of R      Exponent        Coefficient   SO-Coeffient
 ======================================================================================================
    1         91           31
                                      H and up 
                                                     2        1.0000000        0.00000000    0.00000000
                                      S - H
                                                     2       15.2691737      475.47573283    0.00000000
                                      P - H
                                                     2        9.9577370      207.66485962    0.00000000
                                      D - H
                                                     2        8.9431413      156.67411988    0.00000000
                                      F - H
                                                     2        7.0104666       67.98223685    0.00000000
                                      G - H
                                                     2       12.2010560      -57.63059989    0.00000000
    2          8
                                   No pseudopotential on this center.
    3          1
                                   No pseudopotential on this center.
    4          8
                                   No pseudopotential on this center.
    5          1
                                   No pseudopotential on this center.
    6          8
                                   No pseudopotential on this center.
    7          1
                                   No pseudopotential on this center.
    8          8
                                   No pseudopotential on this center.
    9          1
                                   No pseudopotential on this center.
   10         35
                                   No pseudopotential on this center.
 ======================================================================================================
 Ernie: Thresh=  0.10000D-02 Tol=  0.10000D-05 Strict=F.
 AO basis set in the form of general basis input (Overlap normalization):
      1 0
 S   3 1.00       0.000000000000
      0.1204737600D+05  0.2857094961D-01
      0.1811684100D+04  0.2270769386D+00
      0.3477010400D+03  0.8325326273D+00
 S   3 1.00       0.000000000000
      0.5750737600D+02  0.9569327984D-01
      0.3350260100D+02 -0.4399944619D+00
      0.1955445100D+02  0.1335352847D+01
 S   1 1.00       0.000000000000
      0.9867801000D+02  0.1000000000D+01
 S   1 1.00       0.000000000000
      0.9716421000D+01  0.1000000000D+01
 S   1 1.00       0.000000000000
      0.2692096000D+01  0.1000000000D+01
 S   1 1.00       0.000000000000
      0.1453847000D+01  0.1000000000D+01
 S   1 1.00       0.000000000000
      0.5743520000D+00  0.1000000000D+01
 S   1 1.00       0.000000000000
      0.2634680000D+00  0.1000000000D+01
 S   1 1.00       0.000000000000
      0.5655700000D-01  0.1000000000D+01
 S   1 1.00       0.000000000000
      0.2316900000D-01  0.1000000000D+01
 P   5 1.00       0.000000000000
      0.2903367600D+04  0.2594222647D-02
      0.6448635600D+03  0.1519473264D-01
      0.2202589600D+03  0.9272492945D-01
      0.8027640100D+02  0.1821144298D+00
      0.2408021100D+02  0.8294100404D+00
 P   1 1.00       0.000000000000
      0.1407758000D+02  0.1000000000D+01
 P   1 1.00       0.000000000000
      0.8265846000D+01  0.1000000000D+01
 P   1 1.00       0.000000000000
      0.3594800000D+01  0.1000000000D+01
 P   1 1.00       0.000000000000
      0.1753111000D+01  0.1000000000D+01
 P   1 1.00       0.000000000000
      0.6577670000D+00  0.1000000000D+01
 P   1 1.00       0.000000000000
      0.2846390000D+00  0.1000000000D+01
 P   1 1.00       0.000000000000
      0.1005430000D+00  0.1000000000D+01
 P   1 1.00       0.000000000000
      0.3019000000D-01  0.1000000000D+01
 D   6 1.00       0.000000000000
      0.4481499100D+03  0.6556927566D-04
      0.1544614500D+03  0.5749921096D-03
      0.6092537700D+02  0.2279793277D-02
      0.1703209100D+02  0.6467904664D-01
      0.1001887700D+02 -0.2666929411D+00
      0.3409193000D+01  0.1128376621D+01
 D   1 1.00       0.000000000000
      0.1670213000D+01  0.1000000000D+01
 D   1 1.00       0.000000000000
      0.7410950000D+00  0.1000000000D+01
 D   1 1.00       0.000000000000
      0.2613930000D+00  0.1000000000D+01
 D   1 1.00       0.000000000000
      0.8281100000D-01  0.1000000000D+01
 F   5 1.00       0.000000000000
      0.8799132700D+02  0.4766318191D-03
      0.2834019500D+02  0.4899184583D-02
      0.1244099400D+02  0.9669720755D-02
      0.3957296000D+01  0.3310292343D+00
      0.1875944000D+01  0.7275531640D+00
 F   1 1.00       0.000000000000
      0.8275890000D+00  0.1000000000D+01
 F   1 1.00       0.000000000000
      0.3327480000D+00  0.1000000000D+01
 F   1 1.00       0.000000000000
      0.1146850000D+00  0.1000000000D+01
 G   1 1.00       0.000000000000
      0.3500000000D+00  0.1000000000D+01
 ****
      2 0
 S   6 1.00       0.000000000000
      0.2703238263D+05  0.5722733521D-03
      0.4052387139D+04  0.4435323349D-02
      0.9223272271D+03  0.2302010771D-01
      0.2612407099D+03  0.9282249067D-01
      0.8535464135D+02  0.2937850001D+00
      0.3103503524D+02  0.6740160450D+00
 S   2 1.00       0.000000000000
      0.1226086073D+02  0.6383993703D+00
      0.4998707601D+01  0.3953458713D+00
 S   1 1.00       0.000000000000
      0.1170310816D+01  0.1000000000D+01
 S   1 1.00       0.000000000000
      0.4647474099D+00  0.1000000000D+01
 S   1 1.00       0.000000000000
      0.1850453636D+00  0.1000000000D+01
 P   4 1.00       0.000000000000
      0.6327495480D+02  0.1201833222D-01
      0.1462704938D+02  0.8300542179D-01
      0.4450122346D+01  0.3199174393D+00
      0.1527579965D+01  0.7071554292D+00
 P   1 1.00       0.000000000000
      0.5293511794D+00  0.1000000000D+01
 P   1 1.00       0.000000000000
      0.1747842127D+00  0.1000000000D+01
 D   1 1.00       0.000000000000
      0.2314000000D+01  0.1000000000D+01
 D   1 1.00       0.000000000000
      0.6450000000D+00  0.1000000000D+01
 F   1 1.00       0.000000000000
      0.1428000000D+01  0.1000000000D+01
 ****
      3 0
 S   3 1.00       0.000000000000
      0.3406134100D+02  0.2543930721D-01
      0.5123574600D+01  0.1900859489D+00
      0.1164662600D+01  0.8524411301D+00
 S   1 1.00       0.000000000000
      0.3272304100D+00  0.1000000000D+01
 S   1 1.00       0.000000000000
      0.1030724100D+00  0.1000000000D+01
 P   1 1.00       0.000000000000
      0.8000000000D+00  0.1000000000D+01
 ****
      4 0
 S   6 1.00       0.000000000000
      0.2703238263D+05  0.5722733521D-03
      0.4052387139D+04  0.4435323349D-02
      0.9223272271D+03  0.2302010771D-01
      0.2612407099D+03  0.9282249067D-01
      0.8535464135D+02  0.2937850001D+00
      0.3103503524D+02  0.6740160450D+00
 S   2 1.00       0.000000000000
      0.1226086073D+02  0.6383993703D+00
      0.4998707601D+01  0.3953458713D+00
 S   1 1.00       0.000000000000
      0.1170310816D+01  0.1000000000D+01
 S   1 1.00       0.000000000000
      0.4647474099D+00  0.1000000000D+01
 S   1 1.00       0.000000000000
      0.1850453636D+00  0.1000000000D+01
 P   4 1.00       0.000000000000
      0.6327495480D+02  0.1201833222D-01
      0.1462704938D+02  0.8300542179D-01
      0.4450122346D+01  0.3199174393D+00
      0.1527579965D+01  0.7071554292D+00
 P   1 1.00       0.000000000000
      0.5293511794D+00  0.1000000000D+01
 P   1 1.00       0.000000000000
      0.1747842127D+00  0.1000000000D+01
 D   1 1.00       0.000000000000
      0.2314000000D+01  0.1000000000D+01
 D   1 1.00       0.000000000000
      0.6450000000D+00  0.1000000000D+01
 F   1 1.00       0.000000000000
      0.1428000000D+01  0.1000000000D+01
 ****
      5 0
 S   3 1.00       0.000000000000
      0.3406134100D+02  0.2543930721D-01
      0.5123574600D+01  0.1900859489D+00
      0.1164662600D+01  0.8524411301D+00
 S   1 1.00       0.000000000000
      0.3272304100D+00  0.1000000000D+01
 S   1 1.00       0.000000000000
      0.1030724100D+00  0.1000000000D+01
 P   1 1.00       0.000000000000
      0.8000000000D+00  0.1000000000D+01
 ****
      6 0
 S   6 1.00       0.000000000000
      0.2703238263D+05  0.5722733521D-03
      0.4052387139D+04  0.4435323349D-02
      0.9223272271D+03  0.2302010771D-01
      0.2612407099D+03  0.9282249067D-01
      0.8535464135D+02  0.2937850001D+00
      0.3103503524D+02  0.6740160450D+00
 S   2 1.00       0.000000000000
      0.1226086073D+02  0.6383993703D+00
      0.4998707601D+01  0.3953458713D+00
 S   1 1.00       0.000000000000
      0.1170310816D+01  0.1000000000D+01
 S   1 1.00       0.000000000000
      0.4647474099D+00  0.1000000000D+01
 S   1 1.00       0.000000000000
      0.1850453636D+00  0.1000000000D+01
 P   4 1.00       0.000000000000
      0.6327495480D+02  0.1201833222D-01
      0.1462704938D+02  0.8300542179D-01
      0.4450122346D+01  0.3199174393D+00
      0.1527579965D+01  0.7071554292D+00
 P   1 1.00       0.000000000000
      0.5293511794D+00  0.1000000000D+01
 P   1 1.00       0.000000000000
      0.1747842127D+00  0.1000000000D+01
 D   1 1.00       0.000000000000
      0.2314000000D+01  0.1000000000D+01
 D   1 1.00       0.000000000000
      0.6450000000D+00  0.1000000000D+01
 F   1 1.00       0.000000000000
      0.1428000000D+01  0.1000000000D+01
 ****
      7 0
 S   3 1.00       0.000000000000
      0.3406134100D+02  0.2543930721D-01
      0.5123574600D+01  0.1900859489D+00
      0.1164662600D+01  0.8524411301D+00
 S   1 1.00       0.000000000000
      0.3272304100D+00  0.1000000000D+01
 S   1 1.00       0.000000000000
      0.1030724100D+00  0.1000000000D+01
 P   1 1.00       0.000000000000
      0.8000000000D+00  0.1000000000D+01
 ****
      8 0
 S   6 1.00       0.000000000000
      0.2703238263D+05  0.5722733521D-03
      0.4052387139D+04  0.4435323349D-02
      0.9223272271D+03  0.2302010771D-01
      0.2612407099D+03  0.9282249067D-01
      0.8535464135D+02  0.2937850001D+00
      0.3103503524D+02  0.6740160450D+00
 S   2 1.00       0.000000000000
      0.1226086073D+02  0.6383993703D+00
      0.4998707601D+01  0.3953458713D+00
 S   1 1.00       0.000000000000
      0.1170310816D+01  0.1000000000D+01
 S   1 1.00       0.000000000000
      0.4647474099D+00  0.1000000000D+01
 S   1 1.00       0.000000000000
      0.1850453636D+00  0.1000000000D+01
 P   4 1.00       0.000000000000
      0.6327495480D+02  0.1201833222D-01
      0.1462704938D+02  0.8300542179D-01
      0.4450122346D+01  0.3199174393D+00
      0.1527579965D+01  0.7071554292D+00
 P   1 1.00       0.000000000000
      0.5293511794D+00  0.1000000000D+01
 P   1 1.00       0.000000000000
      0.1747842127D+00  0.1000000000D+01
 D   1 1.00       0.000000000000
      0.2314000000D+01  0.1000000000D+01
 D   1 1.00       0.000000000000
      0.6450000000D+00  0.1000000000D+01
 F   1 1.00       0.000000000000
      0.1428000000D+01  0.1000000000D+01
 ****
      9 0
 S   3 1.00       0.000000000000
      0.3406134100D+02  0.2543930721D-01
      0.5123574600D+01  0.1900859489D+00
      0.1164662600D+01  0.8524411301D+00
 S   1 1.00       0.000000000000
      0.3272304100D+00  0.1000000000D+01
 S   1 1.00       0.000000000000
      0.1030724100D+00  0.1000000000D+01
 P   1 1.00       0.000000000000
      0.8000000000D+00  0.1000000000D+01
 ****
     10 0
 S   8 1.00       0.000000000000
      0.5650732526D+06  0.2313996799D-03
      0.8470172318D+05  0.1794480895D-02
      0.1927627190D+05  0.9336632833D-02
      0.5456428458D+04  0.3802214115D-01
      0.1776950350D+04  0.1243860819D+00
      0.6391939828D+03  0.2976826547D+00
      0.2487882396D+03  0.4351247869D+00
      0.9867830549D+02  0.2384543263D+00
 S   4 1.00       0.000000000000
      0.6060782457D+03 -0.2580299811D-01
      0.1884559848D+03 -0.1214377016D+00
      0.3149714451D+02  0.5492715414D+00
      0.1373600832D+02  0.5403867432D+00
 S   2 1.00       0.000000000000
      0.2120321277D+02 -0.4189765707D+00
      0.3761642018D+01  0.1196292202D+01
 S   1 1.00       0.000000000000
      0.1773593396D+01  0.1000000000D+01
 S   1 1.00       0.000000000000
      0.4519741366D+00  0.1000000000D+01
 S   1 1.00       0.000000000000
      0.1661337710D+00  0.1000000000D+01
 P   6 1.00       0.000000000000
      0.3019695572D+04  0.2697896720D-02
      0.7153548113D+03  0.2206117705D-01
      0.2299832875D+03  0.1046886297D+00
      0.8616784462D+02  0.3030971016D+00
      0.3466787080D+02  0.4819318191D+00
      0.1411387031D+02  0.2637288336D+00
 P   4 1.00       0.000000000000
      0.5708565308D+02 -0.1928818758D-01
      0.8819384584D+01  0.2886445949D+00
      0.3934030287D+01  0.5105806350D+00
      0.1799883038D+01  0.2962687446D+00
 P   1 1.00       0.000000000000
      0.6689941051D+00  0.1000000000D+01
 P   1 1.00       0.000000000000
      0.2713623823D+00  0.1000000000D+01
 P   1 1.00       0.000000000000
      0.1008379024D+00  0.1000000000D+01
 D   5 1.00       0.000000000000
      0.1688537026D+03  0.9842827717D-02
      0.4997794992D+02  0.6812837709D-01
      0.1827491334D+02  0.2357380148D+00
      0.7245569463D+01  0.4427795439D+00
      0.2856231503D+01  0.4633455553D+00
 D   1 1.00       0.000000000000
      0.1045962114D+01  0.1000000000D+01
 D   1 1.00       0.000000000000
      0.5686565500D+00  0.1000000000D+01
 D   1 1.00       0.000000000000
      0.2203149000D+00  0.1000000000D+01
 F   1 1.00       0.000000000000
      0.5708331200D+00  0.1000000000D+01
 ****

 AO basis set (Overlap normalization):
 Atom Pa1      Shell     1 S   3     bf    1 -     1          0.922520666334         -0.006550644360         -0.173667117351
      0.1204737600D+05  0.2857094961D-01
      0.1811684100D+04  0.2270769386D+00
      0.3477010400D+03  0.8325326273D+00
 Atom Pa1      Shell     2 S   3     bf    2 -     2          0.922520666334         -0.006550644360         -0.173667117351
      0.5750737600D+02  0.9569327984D-01
      0.3350260100D+02 -0.4399944619D+00
      0.1955445100D+02  0.1335352847D+01
 Atom Pa1      Shell     3 S   1     bf    3 -     3          0.922520666334         -0.006550644360         -0.173667117351
      0.9867801000D+02  0.1000000000D+01
 Atom Pa1      Shell     4 S   1     bf    4 -     4          0.922520666334         -0.006550644360         -0.173667117351
      0.9716421000D+01  0.1000000000D+01
 Atom Pa1      Shell     5 S   1     bf    5 -     5          0.922520666334         -0.006550644360         -0.173667117351
      0.2692096000D+01  0.1000000000D+01
 Atom Pa1      Shell     6 S   1     bf    6 -     6          0.922520666334         -0.006550644360         -0.173667117351
      0.1453847000D+01  0.1000000000D+01
 Atom Pa1      Shell     7 S   1     bf    7 -     7          0.922520666334         -0.006550644360         -0.173667117351
      0.5743520000D+00  0.1000000000D+01
 Atom Pa1      Shell     8 S   1     bf    8 -     8          0.922520666334         -0.006550644360         -0.173667117351
      0.2634680000D+00  0.1000000000D+01
 Atom Pa1      Shell     9 S   1     bf    9 -     9          0.922520666334         -0.006550644360         -0.173667117351
      0.5655700000D-01  0.1000000000D+01
 Atom Pa1      Shell    10 S   1     bf   10 -    10          0.922520666334         -0.006550644360         -0.173667117351
      0.2316900000D-01  0.1000000000D+01
 Atom Pa1      Shell    11 P   5     bf   11 -    13          0.922520666334         -0.006550644360         -0.173667117351
      0.2903367600D+04  0.2594222647D-02
      0.6448635600D+03  0.1519473264D-01
      0.2202589600D+03  0.9272492945D-01
      0.8027640100D+02  0.1821144298D+00
      0.2408021100D+02  0.8294100404D+00
 Atom Pa1      Shell    12 P   1     bf   14 -    16          0.922520666334         -0.006550644360         -0.173667117351
      0.1407758000D+02  0.1000000000D+01
 Atom Pa1      Shell    13 P   1     bf   17 -    19          0.922520666334         -0.006550644360         -0.173667117351
      0.8265846000D+01  0.1000000000D+01
 Atom Pa1      Shell    14 P   1     bf   20 -    22          0.922520666334         -0.006550644360         -0.173667117351
      0.3594800000D+01  0.1000000000D+01
 Atom Pa1      Shell    15 P   1     bf   23 -    25          0.922520666334         -0.006550644360         -0.173667117351
      0.1753111000D+01  0.1000000000D+01
 Atom Pa1      Shell    16 P   1     bf   26 -    28          0.922520666334         -0.006550644360         -0.173667117351
      0.6577670000D+00  0.1000000000D+01
 Atom Pa1      Shell    17 P   1     bf   29 -    31          0.922520666334         -0.006550644360         -0.173667117351
      0.2846390000D+00  0.1000000000D+01
 Atom Pa1      Shell    18 P   1     bf   32 -    34          0.922520666334         -0.006550644360         -0.173667117351
      0.1005430000D+00  0.1000000000D+01
 Atom Pa1      Shell    19 P   1     bf   35 -    37          0.922520666334         -0.006550644360         -0.173667117351
      0.3019000000D-01  0.1000000000D+01
 Atom Pa1      Shell    20 D   6     bf   38 -    42          0.922520666334         -0.006550644360         -0.173667117351
      0.4481499100D+03  0.6556927566D-04
      0.1544614500D+03  0.5749921096D-03
      0.6092537700D+02  0.2279793277D-02
      0.1703209100D+02  0.6467904664D-01
      0.1001887700D+02 -0.2666929411D+00
      0.3409193000D+01  0.1128376621D+01
 Atom Pa1      Shell    21 D   1     bf   43 -    47          0.922520666334         -0.006550644360         -0.173667117351
      0.1670213000D+01  0.1000000000D+01
 Atom Pa1      Shell    22 D   1     bf   48 -    52          0.922520666334         -0.006550644360         -0.173667117351
      0.7410950000D+00  0.1000000000D+01
 Atom Pa1      Shell    23 D   1     bf   53 -    57          0.922520666334         -0.006550644360         -0.173667117351
      0.2613930000D+00  0.1000000000D+01
 Atom Pa1      Shell    24 D   1     bf   58 -    62          0.922520666334         -0.006550644360         -0.173667117351
      0.8281100000D-01  0.1000000000D+01
 Atom Pa1      Shell    25 F   5     bf   63 -    69          0.922520666334         -0.006550644360         -0.173667117351
      0.8799132700D+02  0.4766318191D-03
      0.2834019500D+02  0.4899184583D-02
      0.1244099400D+02  0.9669720755D-02
      0.3957296000D+01  0.3310292343D+00
      0.1875944000D+01  0.7275531640D+00
 Atom Pa1      Shell    26 F   1     bf   70 -    76          0.922520666334         -0.006550644360         -0.173667117351
      0.8275890000D+00  0.1000000000D+01
 Atom Pa1      Shell    27 F   1     bf   77 -    83          0.922520666334         -0.006550644360         -0.173667117351
      0.3327480000D+00  0.1000000000D+01
 Atom Pa1      Shell    28 F   1     bf   84 -    90          0.922520666334         -0.006550644360         -0.173667117351
      0.1146850000D+00  0.1000000000D+01
 Atom Pa1      Shell    29 G   1     bf   91 -    99          0.922520666334         -0.006550644360         -0.173667117351
      0.3500000000D+00  0.1000000000D+01
 Atom O2       Shell    30 S   6     bf  100 -   100          0.877190350920          3.931836988272         -0.411335659795
      0.2703238263D+05  0.5722733521D-03
      0.4052387139D+04  0.4435323349D-02
      0.9223272271D+03  0.2302010771D-01
      0.2612407099D+03  0.9282249067D-01
      0.8535464135D+02  0.2937850001D+00
      0.3103503524D+02  0.6740160450D+00
 Atom O2       Shell    31 S   2     bf  101 -   101          0.877190350920          3.931836988272         -0.411335659795
      0.1226086073D+02  0.6383993703D+00
      0.4998707601D+01  0.3953458713D+00
 Atom O2       Shell    32 S   1     bf  102 -   102          0.877190350920          3.931836988272         -0.411335659795
      0.1170310816D+01  0.1000000000D+01
 Atom O2       Shell    33 S   1     bf  103 -   103          0.877190350920          3.931836988272         -0.411335659795
      0.4647474099D+00  0.1000000000D+01
 Atom O2       Shell    34 S   1     bf  104 -   104          0.877190350920          3.931836988272         -0.411335659795
      0.1850453636D+00  0.1000000000D+01
 Atom O2       Shell    35 P   4     bf  105 -   107          0.877190350920          3.931836988272         -0.411335659795
      0.6327495480D+02  0.1201833222D-01
      0.1462704938D+02  0.8300542179D-01
      0.4450122346D+01  0.3199174393D+00
      0.1527579965D+01  0.7071554292D+00
 Atom O2       Shell    36 P   1     bf  108 -   110          0.877190350920          3.931836988272         -0.411335659795
      0.5293511794D+00  0.1000000000D+01
 Atom O2       Shell    37 P   1     bf  111 -   113          0.877190350920          3.931836988272         -0.411335659795
      0.1747842127D+00  0.1000000000D+01
 Atom O2       Shell    38 D   1     bf  114 -   118          0.877190350920          3.931836988272         -0.411335659795
      0.2314000000D+01  0.1000000000D+01
 Atom O2       Shell    39 D   1     bf  119 -   123          0.877190350920          3.931836988272         -0.411335659795
      0.6450000000D+00  0.1000000000D+01
 Atom O2       Shell    40 F   1     bf  124 -   130          0.877190350920          3.931836988272         -0.411335659795
      0.1428000000D+01  0.1000000000D+01
 Atom H3       Shell    41 S   3     bf  131 -   131          1.362181098010          5.452545726520          0.473493900060
      0.3406134100D+02  0.2543930721D-01
      0.5123574600D+01  0.1900859489D+00
      0.1164662600D+01  0.8524411301D+00
 Atom H3       Shell    42 S   1     bf  132 -   132          1.362181098010          5.452545726520          0.473493900060
      0.3272304100D+00  0.1000000000D+01
 Atom H3       Shell    43 S   1     bf  133 -   133          1.362181098010          5.452545726520          0.473493900060
      0.1030724100D+00  0.1000000000D+01
 Atom H3       Shell    44 P   1     bf  134 -   136          1.362181098010          5.452545726520          0.473493900060
      0.8000000000D+00  0.1000000000D+01
 Atom O4       Shell    45 S   6     bf  137 -   137          4.792594366100         -0.069180441347         -1.048335013477
      0.2703238263D+05  0.5722733521D-03
      0.4052387139D+04  0.4435323349D-02
      0.9223272271D+03  0.2302010771D-01
      0.2612407099D+03  0.9282249067D-01
      0.8535464135D+02  0.2937850001D+00
      0.3103503524D+02  0.6740160450D+00
 Atom O4       Shell    46 S   2     bf  138 -   138          4.792594366100         -0.069180441347         -1.048335013477
      0.1226086073D+02  0.6383993703D+00
      0.4998707601D+01  0.3953458713D+00
 Atom O4       Shell    47 S   1     bf  139 -   139          4.792594366100         -0.069180441347         -1.048335013477
      0.1170310816D+01  0.1000000000D+01
 Atom O4       Shell    48 S   1     bf  140 -   140          4.792594366100         -0.069180441347         -1.048335013477
      0.4647474099D+00  0.1000000000D+01
 Atom O4       Shell    49 S   1     bf  141 -   141          4.792594366100         -0.069180441347         -1.048335013477
      0.1850453636D+00  0.1000000000D+01
 Atom O4       Shell    50 P   4     bf  142 -   144          4.792594366100         -0.069180441347         -1.048335013477
      0.6327495480D+02  0.1201833222D-01
      0.1462704938D+02  0.8300542179D-01
      0.4450122346D+01  0.3199174393D+00
      0.1527579965D+01  0.7071554292D+00
 Atom O4       Shell    51 P   1     bf  145 -   147          4.792594366100         -0.069180441347         -1.048335013477
      0.5293511794D+00  0.1000000000D+01
 Atom O4       Shell    52 P   1     bf  148 -   150          4.792594366100         -0.069180441347         -1.048335013477
      0.1747842127D+00  0.1000000000D+01
 Atom O4       Shell    53 D   1     bf  151 -   155          4.792594366100         -0.069180441347         -1.048335013477
      0.2314000000D+01  0.1000000000D+01
 Atom O4       Shell    54 D   1     bf  156 -   160          4.792594366100         -0.069180441347         -1.048335013477
      0.6450000000D+00  0.1000000000D+01
 Atom O4       Shell    55 F   1     bf  161 -   167          4.792594366100         -0.069180441347         -1.048335013477
      0.1428000000D+01  0.1000000000D+01
 Atom H5       Shell    56 S   3     bf  168 -   168          6.191369220429          1.095483256686         -1.152422642482
      0.3406134100D+02  0.2543930721D-01
      0.5123574600D+01  0.1900859489D+00
      0.1164662600D+01  0.8524411301D+00
 Atom H5       Shell    57 S   1     bf  169 -   169          6.191369220429          1.095483256686         -1.152422642482
      0.3272304100D+00  0.1000000000D+01
 Atom H5       Shell    58 S   1     bf  170 -   170          6.191369220429          1.095483256686         -1.152422642482
      0.1030724100D+00  0.1000000000D+01
 Atom H5       Shell    59 P   1     bf  171 -   173          6.191369220429          1.095483256686         -1.152422642482
      0.8000000000D+00  0.1000000000D+01
 Atom O6       Shell    60 S   6     bf  174 -   174          1.301643987943          0.120669054448          3.747893242465
      0.2703238263D+05  0.5722733521D-03
      0.4052387139D+04  0.4435323349D-02
      0.9223272271D+03  0.2302010771D-01
      0.2612407099D+03  0.9282249067D-01
      0.8535464135D+02  0.2937850001D+00
      0.3103503524D+02  0.6740160450D+00
 Atom O6       Shell    61 S   2     bf  175 -   175          1.301643987943          0.120669054448          3.747893242465
      0.1226086073D+02  0.6383993703D+00
      0.4998707601D+01  0.3953458713D+00
 Atom O6       Shell    62 S   1     bf  176 -   176          1.301643987943          0.120669054448          3.747893242465
      0.1170310816D+01  0.1000000000D+01
 Atom O6       Shell    63 S   1     bf  177 -   177          1.301643987943          0.120669054448          3.747893242465
      0.4647474099D+00  0.1000000000D+01
 Atom O6       Shell    64 S   1     bf  178 -   178          1.301643987943          0.120669054448          3.747893242465
      0.1850453636D+00  0.1000000000D+01
 Atom O6       Shell    65 P   4     bf  179 -   181          1.301643987943          0.120669054448          3.747893242465
      0.6327495480D+02  0.1201833222D-01
      0.1462704938D+02  0.8300542179D-01
      0.4450122346D+01  0.3199174393D+00
      0.1527579965D+01  0.7071554292D+00
 Atom O6       Shell    66 P   1     bf  182 -   184          1.301643987943          0.120669054448          3.747893242465
      0.5293511794D+00  0.1000000000D+01
 Atom O6       Shell    67 P   1     bf  185 -   187          1.301643987943          0.120669054448          3.747893242465
      0.1747842127D+00  0.1000000000D+01
 Atom O6       Shell    68 D   1     bf  188 -   192          1.301643987943          0.120669054448          3.747893242465
      0.2314000000D+01  0.1000000000D+01
 Atom O6       Shell    69 D   1     bf  193 -   197          1.301643987943          0.120669054448          3.747893242465
      0.6450000000D+00  0.1000000000D+01
 Atom O6       Shell    70 F   1     bf  198 -   204          1.301643987943          0.120669054448          3.747893242465
      0.1428000000D+01  0.1000000000D+01
 Atom H7       Shell    71 S   3     bf  205 -   205          1.817132768798         -0.878138448591          5.181129676183
      0.3406134100D+02  0.2543930721D-01
      0.5123574600D+01  0.1900859489D+00
      0.1164662600D+01  0.8524411301D+00
 Atom H7       Shell    72 S   1     bf  206 -   206          1.817132768798         -0.878138448591          5.181129676183
      0.3272304100D+00  0.1000000000D+01
 Atom H7       Shell    73 S   1     bf  207 -   207          1.817132768798         -0.878138448591          5.181129676183
      0.1030724100D+00  0.1000000000D+01
 Atom H7       Shell    74 P   1     bf  208 -   210          1.817132768798         -0.878138448591          5.181129676183
      0.8000000000D+00  0.1000000000D+01
 Atom O8       Shell    75 S   6     bf  211 -   211          0.852918694750         -3.958928833410         -0.326997766021
      0.2703238263D+05  0.5722733521D-03
      0.4052387139D+04  0.4435323349D-02
      0.9223272271D+03  0.2302010771D-01
      0.2612407099D+03  0.9282249067D-01
      0.8535464135D+02  0.2937850001D+00
      0.3103503524D+02  0.6740160450D+00
 Atom O8       Shell    76 S   2     bf  212 -   212          0.852918694750         -3.958928833410         -0.326997766021
      0.1226086073D+02  0.6383993703D+00
      0.4998707601D+01  0.3953458713D+00
 Atom O8       Shell    77 S   1     bf  213 -   213          0.852918694750         -3.958928833410         -0.326997766021
      0.1170310816D+01  0.1000000000D+01
 Atom O8       Shell    78 S   1     bf  214 -   214          0.852918694750         -3.958928833410         -0.326997766021
      0.4647474099D+00  0.1000000000D+01
 Atom O8       Shell    79 S   1     bf  215 -   215          0.852918694750         -3.958928833410         -0.326997766021
      0.1850453636D+00  0.1000000000D+01
 Atom O8       Shell    80 P   4     bf  216 -   218          0.852918694750         -3.958928833410         -0.326997766021
      0.6327495480D+02  0.1201833222D-01
      0.1462704938D+02  0.8300542179D-01
      0.4450122346D+01  0.3199174393D+00
      0.1527579965D+01  0.7071554292D+00
 Atom O8       Shell    81 P   1     bf  219 -   221          0.852918694750         -3.958928833410         -0.326997766021
      0.5293511794D+00  0.1000000000D+01
 Atom O8       Shell    82 P   1     bf  222 -   224          0.852918694750         -3.958928833410         -0.326997766021
      0.1747842127D+00  0.1000000000D+01
 Atom O8       Shell    83 D   1     bf  225 -   229          0.852918694750         -3.958928833410         -0.326997766021
      0.2314000000D+01  0.1000000000D+01
 Atom O8       Shell    84 D   1     bf  230 -   234          0.852918694750         -3.958928833410         -0.326997766021
      0.6450000000D+00  0.1000000000D+01
 Atom O8       Shell    85 F   1     bf  235 -   241          0.852918694750         -3.958928833410         -0.326997766021
      0.1428000000D+01  0.1000000000D+01
 Atom H9       Shell    86 S   3     bf  242 -   242          2.047328252943         -5.339028405786         -0.284484774512
      0.3406134100D+02  0.2543930721D-01
      0.5123574600D+01  0.1900859489D+00
      0.1164662600D+01  0.8524411301D+00
 Atom H9       Shell    87 S   1     bf  243 -   243          2.047328252943         -5.339028405786         -0.284484774512
      0.3272304100D+00  0.1000000000D+01
 Atom H9       Shell    88 S   1     bf  244 -   244          2.047328252943         -5.339028405786         -0.284484774512
      0.1030724100D+00  0.1000000000D+01
 Atom H9       Shell    89 P   1     bf  245 -   247          2.047328252943         -5.339028405786         -0.284484774512
      0.8000000000D+00  0.1000000000D+01
 Atom Br10     Shell    90 S   8     bf  248 -   248         -4.513204890692          0.002002067549         -0.117251625876
      0.5650732526D+06  0.2313996799D-03
      0.8470172318D+05  0.1794480895D-02
      0.1927627190D+05  0.9336632833D-02
      0.5456428458D+04  0.3802214115D-01
      0.1776950350D+04  0.1243860819D+00
      0.6391939828D+03  0.2976826547D+00
      0.2487882396D+03  0.4351247869D+00
      0.9867830549D+02  0.2384543263D+00
 Atom Br10     Shell    91 S   4     bf  249 -   249         -4.513204890692          0.002002067549         -0.117251625876
      0.6060782457D+03 -0.2580299811D-01
      0.1884559848D+03 -0.1214377016D+00
      0.3149714451D+02  0.5492715414D+00
      0.1373600832D+02  0.5403867432D+00
 Atom Br10     Shell    92 S   2     bf  250 -   250         -4.513204890692          0.002002067549         -0.117251625876
      0.2120321277D+02 -0.4189765707D+00
      0.3761642018D+01  0.1196292202D+01
 Atom Br10     Shell    93 S   1     bf  251 -   251         -4.513204890692          0.002002067549         -0.117251625876
      0.1773593396D+01  0.1000000000D+01
 Atom Br10     Shell    94 S   1     bf  252 -   252         -4.513204890692          0.002002067549         -0.117251625876
      0.4519741366D+00  0.1000000000D+01
 Atom Br10     Shell    95 S   1     bf  253 -   253         -4.513204890692          0.002002067549         -0.117251625876
      0.1661337710D+00  0.1000000000D+01
 Atom Br10     Shell    96 P   6     bf  254 -   256         -4.513204890692          0.002002067549         -0.117251625876
      0.3019695572D+04  0.2697896720D-02
      0.7153548113D+03  0.2206117705D-01
      0.2299832875D+03  0.1046886297D+00
      0.8616784462D+02  0.3030971016D+00
      0.3466787080D+02  0.4819318191D+00
      0.1411387031D+02  0.2637288336D+00
 Atom Br10     Shell    97 P   4     bf  257 -   259         -4.513204890692          0.002002067549         -0.117251625876
      0.5708565308D+02 -0.1928818758D-01
      0.8819384584D+01  0.2886445949D+00
      0.3934030287D+01  0.5105806350D+00
      0.1799883038D+01  0.2962687446D+00
 Atom Br10     Shell    98 P   1     bf  260 -   262         -4.513204890692          0.002002067549         -0.117251625876
      0.6689941051D+00  0.1000000000D+01
 Atom Br10     Shell    99 P   1     bf  263 -   265         -4.513204890692          0.002002067549         -0.117251625876
      0.2713623823D+00  0.1000000000D+01
 Atom Br10     Shell   100 P   1     bf  266 -   268         -4.513204890692          0.002002067549         -0.117251625876
      0.1008379024D+00  0.1000000000D+01
 Atom Br10     Shell   101 D   5     bf  269 -   273         -4.513204890692          0.002002067549         -0.117251625876
      0.1688537026D+03  0.9842827717D-02
      0.4997794992D+02  0.6812837709D-01
      0.1827491334D+02  0.2357380148D+00
      0.7245569463D+01  0.4427795439D+00
      0.2856231503D+01  0.4633455553D+00
 Atom Br10     Shell   102 D   1     bf  274 -   278         -4.513204890692          0.002002067549         -0.117251625876
      0.1045962114D+01  0.1000000000D+01
 Atom Br10     Shell   103 D   1     bf  279 -   283         -4.513204890692          0.002002067549         -0.117251625876
      0.5686565500D+00  0.1000000000D+01
 Atom Br10     Shell   104 D   1     bf  284 -   288         -4.513204890692          0.002002067549         -0.117251625876
      0.2203149000D+00  0.1000000000D+01
 Atom Br10     Shell   105 F   1     bf  289 -   295         -4.513204890692          0.002002067549         -0.117251625876
      0.5708331200D+00  0.1000000000D+01
 Effective core potential in the form of general ECP input:
      1 0
 Pa1-ECP   5 60
 H component
  1
  2        1.0000000        0.00000000    0.00000000
 S-H projection
  1
  2       15.2691737      475.47573283    0.00000000
 P-H projection
  1
  2        9.9577370      207.66485962    0.00000000
 D-H projection
  1
  2        8.9431413      156.67411988    0.00000000
 F-H projection
  1
  2        7.0104666       67.98223685    0.00000000
 G-H projection
  1
  2       12.2010560      -57.63059989    0.00000000
 
 There are   345 symmetry adapted cartesian basis functions of A   symmetry.
 There are   295 symmetry adapted basis functions of A   symmetry.
   295 basis functions,   558 primitive gaussians,   345 cartesian basis functions
    51 alpha electrons       51 beta electrons
       nuclear repulsion energy       739.1473077156 Hartrees.
 IExCor=  404 DFT=T Ex=B Corr=P86 ExCW=0 ScaHFX=  0.000000
 ScaDFX=  1.000000  1.000000  1.000000  1.000000 ScalE2=  1.000000  1.000000
 IRadAn=      5 IRanWt=     -1 IRanGd=            0 ICorTp=0 IEmpDi=  4
 NAtoms=   10 NActive=   10 NUniq=   10 SFac= 1.00D+00 NAtFMM=   60 NAOKFM=F Big=F
 Integral buffers will be    131072 words long.
 Raffenetti 2 integral format.
 Two-electron integral symmetry is turned on.
 Warning! Using old PCM defaults because the COSMOthermo output has been requested.
 These settings can be overridden by following keywords.
 ------------------------------------------------------------------------------
 Polarizable Continuum Model (PCM)
 =================================
 Model                : C-PCM.
 Atomic radii         : Klamt.
 XCosmo               : -1.000 (infinite dielectric limit)
 Polarization charges : Electronic and nuclear charges.
 Charge compensation  : Type 3 (Electronic density weighted correction).
 Solution method      : On-the-fly selection.
 Cavity type          : VdW (van der Waals Surface) (Alpha=1.000).
 Cavity algorithm     : GePol (No added spheres)
                        Default sphere list used, NSphG=   10.
                        Tesserae with average area of 0.200 Ang**2.
                        Smoothing algorithm: None.
                        Polarization charges: point-like.
                        Self-potential: constant (ISelfS= 1).
                        Self-field    : global E.n sum rule (ISelfD= 3).
 Solvent              : Water, Eps=  78.355300 Eps(inf)=   1.777849
 ------------------------------------------------------------------------------
 Spheres list:
 ISph  on   Nord     Re0    Alpha      Xe            Ye            Ze
    1  Pa      1    2.0000  1.170      0.488177     -0.003466     -0.091901
    2   O      2    1.7200  1.000      0.464189      2.080639     -0.217669
    3   H      3    1.3000  1.000      0.720835      2.885363      0.250562
    4   O      4    1.7200  1.000      2.536132     -0.036609     -0.554755
    5   H      5    1.3000  1.000      3.276331      0.579705     -0.609836
    6   O      6    1.7200  1.000      0.688800      0.063855      1.983300
    7   H      7    1.3000  1.000      0.961585     -0.464691      2.741736
    8   O      8    1.7200  1.000      0.451345     -2.094975     -0.173040
    9   H      9    1.3000  1.000      1.083399     -2.825292     -0.150543
   10  Br     10    2.1600  1.000     -2.388285      0.001059     -0.062047
 ------------------------------------------------------------------------------
 GePol: Number of generator spheres                  =      10
 GePol: Total number of spheres                      =      10
 GePol: Number of exposed spheres                    =      10 (100.00%)
 GePol: Number of tesserae                           =    1071
 GePol: Average area of tesserae                     =       0.16 Ang**2
 GePol: Minimum area of tessera                      =   0.10D-02 Ang**2
 GePol: Maximum area of tessera                      =    0.35817 Ang**2
 GePol: Number of small tesserae                     =      12
 GePol: Fraction of small tesserae (<1% of avg)      =       1.12%
 GePol: Total count of vertices                      =    3523
 GePol: Maximum number of vertices in a tessera      =       5
 GePol: Cavity surface area                          =    168.623 Ang**2
 GePol: Cavity volume                                =    142.094 Ang**3
 DisRep: Neglecting contributions from atom    1 of solute.
 Leave Link  301 at Tue Jul  4 11:12:54 2023, MaxMem=  2147483648 cpu:               1.3 elap:               0.2
 (Enter /home/pcmt/gaussian/g16.C.01/g16/l302.exe)
 NPDir=0 NMtPBC=     1 NCelOv=     1 NCel=       1 NClECP=     1 NCelD=      1
         NCelK=      1 NCelE2=     1 NClLst=     1 CellRange=     0.0.
 One-electron integrals computed using PRISM.
 One-electron integral symmetry used in STVInt
   1 Symmetry operations used in ECPInt.
 ECPInt:  NShTT=    5565 NPrTT=   18162 LenC2=    5288 LenP2D=   12847.
 LDataN:  DoStor=T MaxTD1= 9 Len=  602
 NBasis=   295 RedAO= T EigKep=  5.91D-04  NBF=   295
 NBsUse=   295 1.00D-06 EigRej= -1.00D+00 NBFU=   295
 Precomputing XC quadrature grid using
 IXCGrd= 4 IRadAn=           5 IRanWt=          -1 IRanGd=           0 AccXCQ= 0.00D+00.
 Defaulting to unpruned grid for atomic number  91.
 Generated NRdTot=       0 NPtTot=           0 NUsed=           0 NTot=          32
 NSgBfM=   336   336   336   336   336 MxSgAt=    10 MxSgA2=    10.
 Leave Link  302 at Tue Jul  4 11:12:55 2023, MaxMem=  2147483648 cpu:               6.7 elap:               0.9
 (Enter /home/pcmt/gaussian/g16.C.01/g16/l303.exe)
 DipDrv:  MaxL=1.
 Leave Link  303 at Tue Jul  4 11:12:55 2023, MaxMem=  2147483648 cpu:               0.5 elap:               0.1
 (Enter /home/pcmt/gaussian/g16.C.01/g16/l401.exe)
 ExpMin= 2.32D-02 ExpMax= 5.65D+05 ExpMxC= 1.20D+04 IAcc=3 IRadAn=         5 AccDes= 0.00D+00
 Harris functional with IExCor=  404 and IRadAn=       5 diagonalized for initial guess.
 HarFok:  IExCor=  404 AccDes= 0.00D+00 IRadAn=         5 IDoV= 1 UseB2=F ITyADJ=14
 ICtDFT=  3500011 ScaDFX=  1.000000  1.000000  1.000000  1.000000
 Defaulting to unpruned grid for atomic number  91.
 FoFCou: FMM=F IPFlag=           0 FMFlag=      100000 FMFlg1=           0
         NFxFlg=           0 DoJE=T BraDBF=F KetDBF=T FulRan=T
         wScrn=  0.000000 ICntrl=       500 IOpCl=  0 I1Cent=   200000004 NGrid=           0
         NMat0=    1 NMatS0=      1 NMatT0=    0 NMatD0=    1 NMtDS0=    0 NMtDT0=    0
 Petite list used in FoFCou.
 Harris En= -3321.31020566688    
 JPrj=0 DoOrth=F DoCkMO=F.
 Leave Link  401 at Tue Jul  4 11:12:57 2023, MaxMem=  2147483648 cpu:              14.8 elap:               1.9
 (Enter /home/pcmt/gaussian/g16.C.01/g16/l502.exe)
 Keep J ints in memory in canonical form, NReq=973832063.
 FoFCou: FMM=F IPFlag=           0 FMFlag=           0 FMFlg1=           0
         NFxFlg=           0 DoJE=F BraDBF=F KetDBF=F FulRan=T
         wScrn=  0.000000 ICntrl=       600 IOpCl=  0 I1Cent=           0 NGrid=           0
         NMat0=    1 NMatS0=  43660 NMatT0=    0 NMatD0=    1 NMtDS0=    0 NMtDT0=    0
 Symmetry not used in FoFCou.
 Two-electron integral symmetry not used.
 Closed shell SCF:
 Using DIIS extrapolation, IDIIS=  1040.
 NGot=  2147483648 LenX=  1194120012 LenY=  1194000546
 Requested convergence on RMS density matrix=1.00D-08 within 100 cycles.
 Requested convergence on MAX density matrix=1.00D-06.
 Requested convergence on             energy=1.00D-06.
 No special actions if energy rises.

 Cycle   1  Pass 1  IDiag  1:
 Defaulting to unpruned grid for atomic number  91.
 Defaulting to unpruned grid for atomic number  91.
 Defaulting to unpruned grid for atomic number  91.
 Defaulting to unpruned grid for atomic number  91.
 Defaulting to unpruned grid for atomic number  91.
 Defaulting to unpruned grid for atomic number  91.
 Defaulting to unpruned grid for atomic number  91.
 Defaulting to unpruned grid for atomic number  91.
 Inv3:  Mode=1 IEnd=     3441123.
 Iteration    1 A*A^-1 deviation from unit magnitude is 8.22D-15 for   1058.
 Iteration    1 A*A^-1 deviation from orthogonality  is 5.40D-15 for   1058    612.
 Iteration    1 A^-1*A deviation from unit magnitude is 6.44D-15 for   1058.
 Iteration    1 A^-1*A deviation from orthogonality  is 8.54D-15 for   1058    612.
 E= -3318.83793474619    
 DIIS: error= 4.34D-02 at cycle   1 NSaved=   1.
 NSaved= 1 IEnMin= 1 EnMin= -3318.83793474619     IErMin= 1 ErrMin= 4.34D-02
 ErrMax= 4.34D-02  0.00D+00 EMaxC= 1.00D-01 BMatC= 1.53D+00 BMatP= 1.53D+00
 IDIUse=3 WtCom= 5.66D-01 WtEn= 4.34D-01
 Coeff-Com:  0.100D+01
 Coeff-En:   0.100D+01
 Coeff:      0.100D+01
 Gap=     0.157 Goal=   None    Shift=    0.000
 GapD=    0.157 DampG=1.000 DampE=0.250 DampFc=0.2500 IDamp=-1.
 Damping current iteration by 2.50D-01
 RMSDP=1.39D-02 MaxDP=1.43D+00              OVMax= 9.88D-01

 Cycle   2  Pass 1  IDiag  1:
 E= -3316.68182329570     Delta-E=        2.156111450490 Rises=F Damp=T
 DIIS: error= 4.88D-02 at cycle   2 NSaved=   2.
 NSaved= 2 IEnMin= 1 EnMin= -3318.83793474619     IErMin= 1 ErrMin= 4.34D-02
 ErrMax= 4.88D-02  0.00D+00 EMaxC= 1.00D-01 BMatC= 1.41D+00 BMatP= 1.53D+00
 IDIUse=3 WtCom= 5.12D-01 WtEn= 4.88D-01
 Coeff-Com:  0.487D+00 0.513D+00
 Coeff-En:   0.738D+00 0.262D+00
 Coeff:      0.610D+00 0.390D+00
 Gap=     0.009 Goal=   None    Shift=    0.000
 RMSDP=3.44D-03 MaxDP=1.17D-01 DE= 2.16D+00 OVMax= 9.54D-01

 Cycle   3  Pass 1  IDiag  1:
 E= -3319.38306614346     Delta-E=       -2.701242847758 Rises=F Damp=F
 DIIS: error= 3.00D-02 at cycle   3 NSaved=   3.
 NSaved= 3 IEnMin= 3 EnMin= -3319.38306614346     IErMin= 3 ErrMin= 3.00D-02
 ErrMax= 3.00D-02  0.00D+00 EMaxC= 1.00D-01 BMatC= 6.13D-01 BMatP= 1.41D+00
 IDIUse=3 WtCom= 7.00D-01 WtEn= 3.00D-01
 EnCoef did     2 forward-backward iterations
 Coeff-Com:  0.295D+00 0.307D+00 0.399D+00
 Coeff-En:   0.275D+00 0.448D-01 0.681D+00
 Coeff:      0.289D+00 0.228D+00 0.483D+00
 Gap=     0.256 Goal=   None    Shift=    0.000
 RMSDP=2.85D-03 MaxDP=1.38D-01 DE=-2.70D+00 OVMax= 1.67D-01

 Cycle   4  Pass 1  IDiag  1:
 E= -3319.74196231582     Delta-E=       -0.358896172364 Rises=F Damp=F
 DIIS: error= 1.54D-02 at cycle   4 NSaved=   4.
 NSaved= 4 IEnMin= 4 EnMin= -3319.74196231582     IErMin= 4 ErrMin= 1.54D-02
 ErrMax= 1.54D-02  0.00D+00 EMaxC= 1.00D-01 BMatC= 1.28D-01 BMatP= 6.13D-01
 IDIUse=3 WtCom= 8.46D-01 WtEn= 1.54D-01
 Coeff-Com: -0.853D-02 0.113D+00 0.269D+00 0.627D+00
 Coeff-En:   0.000D+00 0.000D+00 0.161D+00 0.839D+00
 Coeff:     -0.721D-02 0.953D-01 0.252D+00 0.660D+00
 Gap=     0.140 Goal=   None    Shift=    0.000
 RMSDP=9.14D-04 MaxDP=3.55D-02 DE=-3.59D-01 OVMax= 8.73D-02

 Cycle   5  Pass 1  IDiag  1:
 E= -3319.82911594315     Delta-E=       -0.087153627323 Rises=F Damp=F
 DIIS: error= 3.04D-03 at cycle   5 NSaved=   5.
 NSaved= 5 IEnMin= 5 EnMin= -3319.82911594315     IErMin= 5 ErrMin= 3.04D-03
 ErrMax= 3.04D-03  0.00D+00 EMaxC= 1.00D-01 BMatC= 9.03D-03 BMatP= 1.28D-01
 IDIUse=3 WtCom= 9.70D-01 WtEn= 3.04D-02
 Coeff-Com: -0.322D-01 0.292D-01 0.158D-01 0.250D+00 0.737D+00
 Coeff-En:   0.000D+00 0.000D+00 0.000D+00 0.143D-01 0.986D+00
 Coeff:     -0.312D-01 0.283D-01 0.154D-01 0.243D+00 0.745D+00
 Gap=     0.116 Goal=   None    Shift=    0.000
 RMSDP=4.45D-04 MaxDP=3.14D-02 DE=-8.72D-02 OVMax= 4.47D-02

 Cycle   6  Pass 1  IDiag  1:
 E= -3319.83628269429     Delta-E=       -0.007166751141 Rises=F Damp=F
 DIIS: error= 2.10D-03 at cycle   6 NSaved=   6.
 NSaved= 6 IEnMin= 6 EnMin= -3319.83628269429     IErMin= 6 ErrMin= 2.10D-03
 ErrMax= 2.10D-03  0.00D+00 EMaxC= 1.00D-01 BMatC= 3.27D-03 BMatP= 9.03D-03
 IDIUse=3 WtCom= 9.79D-01 WtEn= 2.10D-02
 Coeff-Com: -0.275D-01 0.610D-02-0.292D-01 0.570D-01 0.462D+00 0.531D+00
 Coeff-En:   0.000D+00 0.000D+00 0.000D+00 0.000D+00 0.362D-01 0.964D+00
 Coeff:     -0.269D-01 0.597D-02-0.286D-01 0.558D-01 0.453D+00 0.541D+00
 Gap=     0.108 Goal=   None    Shift=    0.000
 RMSDP=2.57D-04 MaxDP=1.43D-02 DE=-7.17D-03 OVMax= 2.22D-02

 Cycle   7  Pass 1  IDiag  1:
 E= -3319.83985379139     Delta-E=       -0.003571097106 Rises=F Damp=F
 DIIS: error= 1.79D-03 at cycle   7 NSaved=   7.
 NSaved= 7 IEnMin= 7 EnMin= -3319.83985379139     IErMin= 7 ErrMin= 1.79D-03
 ErrMax= 1.79D-03  0.00D+00 EMaxC= 1.00D-01 BMatC= 1.42D-03 BMatP= 3.27D-03
 IDIUse=3 WtCom= 9.82D-01 WtEn= 1.79D-02
 Coeff-Com: -0.104D-02-0.247D-02-0.174D-01-0.125D-01 0.201D+00 0.298D+00
 Coeff-Com:  0.534D+00
 Coeff-En:   0.000D+00 0.000D+00 0.000D+00 0.000D+00 0.000D+00 0.000D+00
 Coeff-En:   0.100D+01
 Coeff:     -0.102D-02-0.243D-02-0.170D-01-0.123D-01 0.197D+00 0.293D+00
 Coeff:      0.543D+00
 Gap=     0.107 Goal=   None    Shift=    0.000
 RMSDP=1.53D-04 MaxDP=9.76D-03 DE=-3.57D-03 OVMax= 1.60D-02

 Cycle   8  Pass 1  IDiag  1:
 E= -3319.84011619481     Delta-E=       -0.000262403417 Rises=F Damp=F
 DIIS: error= 2.03D-03 at cycle   8 NSaved=   8.
 NSaved= 8 IEnMin= 8 EnMin= -3319.84011619481     IErMin= 7 ErrMin= 1.79D-03
 ErrMax= 2.03D-03  0.00D+00 EMaxC= 1.00D-01 BMatC= 2.65D-03 BMatP= 1.42D-03
 IDIUse=3 WtCom= 9.82D-01 WtEn= 1.79D-02
 Coeff-Com:  0.854D-02-0.352D-02-0.462D-02 0.621D-03 0.173D+00 0.163D+00
 Coeff-Com:  0.292D+00 0.372D+00
 Coeff-En:   0.000D+00 0.000D+00 0.000D+00 0.000D+00 0.000D+00 0.000D+00
 Coeff-En:   0.324D+00 0.676D+00
 Coeff:      0.839D-02-0.346D-02-0.453D-02 0.610D-03 0.170D+00 0.160D+00
 Coeff:      0.292D+00 0.377D+00
 Gap=     0.107 Goal=   None    Shift=    0.000
 RMSDP=5.21D-05 MaxDP=5.09D-03 DE=-2.62D-04 OVMax= 4.38D-03

 Cycle   9  Pass 1  IDiag  1:
 E= -3319.84045643953     Delta-E=       -0.000340244719 Rises=F Damp=F
 DIIS: error= 1.48D-03 at cycle   9 NSaved=   9.
 NSaved= 9 IEnMin= 9 EnMin= -3319.84045643953     IErMin= 9 ErrMin= 1.48D-03
 ErrMax= 1.48D-03  0.00D+00 EMaxC= 1.00D-01 BMatC= 1.50D-03 BMatP= 1.42D-03
 IDIUse=3 WtCom= 9.85D-01 WtEn= 1.48D-02
 Coeff-Com: -0.584D-02-0.199D-02 0.292D-01 0.145D+00 0.243D+00 0.362D-02
 Coeff-Com: -0.139D+01-0.405D+00 0.238D+01
 Coeff-En:   0.000D+00 0.000D+00 0.000D+00 0.000D+00 0.000D+00 0.000D+00
 Coeff-En:   0.000D+00 0.000D+00 0.100D+01
 Coeff:     -0.575D-02-0.196D-02 0.288D-01 0.143D+00 0.239D+00 0.357D-02
 Coeff:     -0.137D+01-0.399D+00 0.236D+01
 Gap=     0.115 Goal=   None    Shift=    0.000
 RMSDP=1.80D-04 MaxDP=1.70D-02 DE=-3.40D-04 OVMax= 1.48D-02

 Cycle  10  Pass 1  IDiag  1:
 E= -3319.84022515374     Delta-E=        0.000231285792 Rises=F Damp=F
 DIIS: error= 1.11D-03 at cycle  10 NSaved=  10.
 NSaved=10 IEnMin= 9 EnMin= -3319.84045643953     IErMin=10 ErrMin= 1.11D-03
 ErrMax= 1.11D-03  0.00D+00 EMaxC= 1.00D-01 BMatC= 6.99D-04 BMatP= 1.42D-03
 IDIUse=3 WtCom= 9.89D-01 WtEn= 1.11D-02
 Coeff-Com: -0.321D-02-0.247D-02 0.212D-01 0.983D-01 0.126D+00-0.338D-01
 Coeff-Com: -0.105D+01-0.262D+00 0.182D+01 0.286D+00
 Coeff-En:   0.000D+00 0.000D+00 0.000D+00 0.000D+00 0.000D+00 0.000D+00
 Coeff-En:   0.000D+00 0.000D+00 0.572D+00 0.428D+00
 Coeff:     -0.317D-02-0.245D-02 0.210D-01 0.972D-01 0.125D+00-0.334D-01
 Coeff:     -0.103D+01-0.259D+00 0.180D+01 0.288D+00
 Gap=     0.115 Goal=   None    Shift=    0.000
 RMSDP=1.03D-04 MaxDP=6.46D-03 DE= 2.31D-04 OVMax= 1.06D-02

 Cycle  11  Pass 1  IDiag  1:
 E= -3319.84112812221     Delta-E=       -0.000902968471 Rises=F Damp=F
 DIIS: error= 7.07D-04 at cycle  11 NSaved=  11.
 NSaved=11 IEnMin=11 EnMin= -3319.84112812221     IErMin=11 ErrMin= 7.07D-04
 ErrMax= 7.07D-04  0.00D+00 EMaxC= 1.00D-01 BMatC= 1.74D-04 BMatP= 6.99D-04
 IDIUse=3 WtCom= 9.93D-01 WtEn= 7.07D-03
 EnCoef did    17 forward-backward iterations
 Coeff-Com: -0.131D-02-0.897D-03 0.140D-01 0.500D-01 0.543D-02-0.675D-01
 Coeff-Com: -0.792D+00-0.139D+00 0.972D+00-0.515D+00 0.148D+01
 Coeff-En:   0.000D+00 0.000D+00 0.000D+00 0.000D+00 0.000D+00 0.000D+00
 Coeff-En:   0.000D+00 0.875D-01 0.825D-01 0.000D+00 0.830D+00
 Coeff:     -0.130D-02-0.890D-03 0.139D-01 0.496D-01 0.539D-02-0.670D-01
 Coeff:     -0.787D+00-0.138D+00 0.966D+00-0.512D+00 0.147D+01
 Gap=     0.114 Goal=   None    Shift=    0.000
 RMSDP=1.42D-04 MaxDP=9.17D-03 DE=-9.03D-04 OVMax= 1.67D-02

 Cycle  12  Pass 1  IDiag  1:
 E= -3319.84142607863     Delta-E=       -0.000297956417 Rises=F Damp=F
 DIIS: error= 4.44D-04 at cycle  12 NSaved=  12.
 NSaved=12 IEnMin=12 EnMin= -3319.84142607863     IErMin=12 ErrMin= 4.44D-04
 ErrMax= 4.44D-04  0.00D+00 EMaxC= 1.00D-01 BMatC= 1.11D-04 BMatP= 1.74D-04
 IDIUse=3 WtCom= 9.96D-01 WtEn= 4.44D-03
 Coeff-Com: -0.108D-02-0.306D-03 0.739D-02 0.284D-01 0.253D-02-0.261D-01
 Coeff-Com: -0.472D+00-0.941D-01 0.547D+00-0.321D+00 0.102D+01 0.312D+00
 Coeff-En:   0.000D+00 0.000D+00 0.000D+00 0.000D+00 0.000D+00 0.000D+00
 Coeff-En:   0.000D+00 0.000D+00 0.000D+00 0.000D+00 0.183D+00 0.817D+00
 Coeff:     -0.107D-02-0.305D-03 0.736D-02 0.282D-01 0.252D-02-0.260D-01
 Coeff:     -0.470D+00-0.937D-01 0.544D+00-0.320D+00 0.101D+01 0.314D+00
 Gap=     0.109 Goal=   None    Shift=    0.000
 RMSDP=3.25D-05 MaxDP=1.78D-03 DE=-2.98D-04 OVMax= 3.76D-03

 Cycle  13  Pass 1  IDiag  1:
 E= -3319.84153125001     Delta-E=       -0.000105171385 Rises=F Damp=F
 DIIS: error= 1.32D-04 at cycle  13 NSaved=  13.
 NSaved=13 IEnMin=13 EnMin= -3319.84153125001     IErMin=13 ErrMin= 1.32D-04
 ErrMax= 1.32D-04  0.00D+00 EMaxC= 1.00D-01 BMatC= 1.07D-05 BMatP= 1.11D-04
 IDIUse=3 WtCom= 9.99D-01 WtEn= 1.32D-03
 Coeff-Com: -0.381D-03-0.101D-03 0.132D-02 0.708D-02 0.186D-02 0.499D-02
 Coeff-Com: -0.102D+00-0.218D-01 0.110D+00-0.696D-01 0.358D+00 0.179D+00
 Coeff-Com:  0.532D+00
 Coeff-En:   0.000D+00 0.000D+00 0.000D+00 0.000D+00 0.000D+00 0.000D+00
 Coeff-En:   0.000D+00 0.000D+00 0.000D+00 0.000D+00 0.000D+00 0.000D+00
 Coeff-En:   0.100D+01
 Coeff:     -0.381D-03-0.101D-03 0.132D-02 0.707D-02 0.186D-02 0.499D-02
 Coeff:     -0.102D+00-0.217D-01 0.110D+00-0.695D-01 0.357D+00 0.179D+00
 Coeff:      0.532D+00
 Gap=     0.111 Goal=   None    Shift=    0.000
 RMSDP=1.78D-05 MaxDP=1.13D-03 DE=-1.05D-04 OVMax= 2.21D-03

 Cycle  14  Pass 1  IDiag  1:
 E= -3319.84154196673     Delta-E=       -0.000010716725 Rises=F Damp=F
 DIIS: error= 4.36D-05 at cycle  14 NSaved=  14.
 NSaved=14 IEnMin=14 EnMin= -3319.84154196673     IErMin=14 ErrMin= 4.36D-05
 ErrMax= 4.36D-05  0.00D+00 EMaxC= 1.00D-01 BMatC= 7.75D-07 BMatP= 1.07D-05
 IDIUse=1 WtCom= 1.00D+00 WtEn= 0.00D+00
 Coeff-Com: -0.241D-04-0.416D-04 0.209D-04 0.441D-03-0.168D-02 0.307D-02
 Coeff-Com: -0.998D-03 0.344D-02-0.231D-01-0.417D-01 0.140D+00 0.811D-01
 Coeff-Com:  0.289D+00 0.550D+00
 Coeff:     -0.241D-04-0.416D-04 0.209D-04 0.441D-03-0.168D-02 0.307D-02
 Coeff:     -0.998D-03 0.344D-02-0.231D-01-0.417D-01 0.140D+00 0.811D-01
 Coeff:      0.289D+00 0.550D+00
 Gap=     0.110 Goal=   None    Shift=    0.000
 RMSDP=6.39D-06 MaxDP=3.79D-04 DE=-1.07D-05 OVMax= 7.29D-04

 Cycle  15  Pass 1  IDiag  1:
 E= -3319.84154307511     Delta-E=       -0.000001108379 Rises=F Damp=F
 DIIS: error= 1.52D-05 at cycle  15 NSaved=  15.
 NSaved=15 IEnMin=15 EnMin= -3319.84154307511     IErMin=15 ErrMin= 1.52D-05
 ErrMax= 1.52D-05  0.00D+00 EMaxC= 1.00D-01 BMatC= 1.50D-07 BMatP= 7.75D-07
 IDIUse=1 WtCom= 1.00D+00 WtEn= 0.00D+00
 Coeff-Com:  0.688D-05-0.839D-05-0.566D-04-0.132D-03-0.263D-03 0.925D-03
 Coeff-Com:  0.371D-02 0.299D-03-0.125D-01-0.434D-02 0.217D-01 0.113D-01
 Coeff-Com:  0.551D-01 0.194D+00 0.730D+00
 Coeff:      0.688D-05-0.839D-05-0.566D-04-0.132D-03-0.263D-03 0.925D-03
 Coeff:      0.371D-02 0.299D-03-0.125D-01-0.434D-02 0.217D-01 0.113D-01
 Coeff:      0.551D-01 0.194D+00 0.730D+00
 Gap=     0.110 Goal=   None    Shift=    0.000
 RMSDP=1.20D-06 MaxDP=9.28D-05 DE=-1.11D-06 OVMax= 1.23D-04

 Cycle  16  Pass 1  IDiag  1:
 E= -3319.84154312316     Delta-E=       -0.000000048043 Rises=F Damp=F
 DIIS: error= 2.40D-06 at cycle  16 NSaved=  16.
 NSaved=16 IEnMin=16 EnMin= -3319.84154312316     IErMin=16 ErrMin= 2.40D-06
 ErrMax= 2.40D-06  0.00D+00 EMaxC= 1.00D-01 BMatC= 4.80D-09 BMatP= 1.50D-07
 IDIUse=1 WtCom= 1.00D+00 WtEn= 0.00D+00
 Coeff-Com:  0.381D-05-0.368D-05-0.245D-04-0.721D-04-0.110D-03 0.312D-03
 Coeff-Com:  0.175D-02-0.213D-03-0.620D-02-0.111D-02 0.690D-02 0.279D-02
 Coeff-Com:  0.180D-01 0.842D-01 0.403D+00 0.491D+00
 Coeff:      0.381D-05-0.368D-05-0.245D-04-0.721D-04-0.110D-03 0.312D-03
 Coeff:      0.175D-02-0.213D-03-0.620D-02-0.111D-02 0.690D-02 0.279D-02
 Coeff:      0.180D-01 0.842D-01 0.403D+00 0.491D+00
 Gap=     0.110 Goal=   None    Shift=    0.000
 RMSDP=1.74D-07 MaxDP=9.64D-06 DE=-4.80D-08 OVMax= 1.80D-05

 Cycle  17  Pass 1  IDiag  1:
 E= -3319.84154311130     Delta-E=        0.000000011857 Rises=F Damp=F
 DIIS: error= 1.02D-06 at cycle  17 NSaved=  17.
 NSaved=17 IEnMin=16 EnMin= -3319.84154312316     IErMin=17 ErrMin= 1.02D-06
 ErrMax= 1.02D-06  0.00D+00 EMaxC= 1.00D-01 BMatC= 1.22D-09 BMatP= 4.80D-09
 IDIUse=1 WtCom= 1.00D+00 WtEn= 0.00D+00
 Coeff-Com:  0.110D-05-0.154D-05-0.602D-05-0.216D-04-0.451D-04 0.637D-04
 Coeff-Com:  0.565D-03-0.297D-03-0.257D-02-0.218D-03 0.181D-02 0.212D-03
 Coeff-Com:  0.425D-02 0.301D-01 0.172D+00 0.380D+00 0.414D+00
 Coeff:      0.110D-05-0.154D-05-0.602D-05-0.216D-04-0.451D-04 0.637D-04
 Coeff:      0.565D-03-0.297D-03-0.257D-02-0.218D-03 0.181D-02 0.212D-03
 Coeff:      0.425D-02 0.301D-01 0.172D+00 0.380D+00 0.414D+00
 Gap=     0.110 Goal=   None    Shift=    0.000
 RMSDP=7.52D-08 MaxDP=4.39D-06 DE= 1.19D-08 OVMax= 7.47D-06

 Cycle  18  Pass 1  IDiag  1:
 E= -3319.84154310651     Delta-E=        0.000000004788 Rises=F Damp=F
 DIIS: error= 4.58D-07 at cycle  18 NSaved=  18.
 NSaved=18 IEnMin=16 EnMin= -3319.84154312316     IErMin=18 ErrMin= 4.58D-07
 ErrMax= 4.58D-07  0.00D+00 EMaxC= 1.00D-01 BMatC= 1.70D-10 BMatP= 1.22D-09
 IDIUse=1 WtCom= 1.00D+00 WtEn= 0.00D+00
 Coeff-Com:  0.902D-07-0.372D-06-0.827D-06-0.307D-05-0.430D-05 0.828D-05
 Coeff-Com:  0.166D-03-0.193D-03-0.825D-03 0.186D-03-0.858D-04-0.415D-03
 Coeff-Com:  0.313D-04 0.769D-02 0.540D-01 0.164D+00 0.242D+00 0.533D+00
 Coeff:      0.902D-07-0.372D-06-0.827D-06-0.307D-05-0.430D-05 0.828D-05
 Coeff:      0.166D-03-0.193D-03-0.825D-03 0.186D-03-0.858D-04-0.415D-03
 Coeff:      0.313D-04 0.769D-02 0.540D-01 0.164D+00 0.242D+00 0.533D+00
 Gap=     0.110 Goal=   None    Shift=    0.000
 RMSDP=3.71D-08 MaxDP=3.08D-06 DE= 4.79D-09 OVMax= 3.45D-06

 Cycle  19  Pass 1  IDiag  1:
 E= -3319.84154310577     Delta-E=        0.000000000738 Rises=F Damp=F
 DIIS: error= 7.27D-08 at cycle  19 NSaved=  19.
 NSaved=19 IEnMin=16 EnMin= -3319.84154312316     IErMin=19 ErrMin= 7.27D-08
 ErrMax= 7.27D-08  0.00D+00 EMaxC= 1.00D-01 BMatC= 3.76D-12 BMatP= 1.70D-10
 IDIUse=1 WtCom= 1.00D+00 WtEn= 0.00D+00
 Coeff-Com: -0.870D-08-0.499D-07 0.404D-06 0.782D-06-0.203D-05-0.777D-06
 Coeff-Com:  0.366D-04-0.392D-04-0.146D-03 0.970D-05-0.662D-04-0.931D-04
 Coeff-Com: -0.668D-04 0.356D-03 0.833D-03 0.271D-01 0.582D-01 0.239D+00
 Coeff-Com:  0.675D+00
 Coeff:     -0.870D-08-0.499D-07 0.404D-06 0.782D-06-0.203D-05-0.777D-06
 Coeff:      0.366D-04-0.392D-04-0.146D-03 0.970D-05-0.662D-04-0.931D-04
 Coeff:     -0.668D-04 0.356D-03 0.833D-03 0.271D-01 0.582D-01 0.239D+00
 Coeff:      0.675D+00
 Gap=     0.110 Goal=   None    Shift=    0.000
 RMSDP=9.04D-09 MaxDP=5.39D-07 DE= 7.38D-10 OVMax= 1.04D-06

 Error on nuclear    polarization charges =  0.01575
 Error on electronic polarization charges = -0.04922
 SCF Done:  E(RB-P86) =  -3319.84154311     A.U. after   19 cycles
            NFock= 19  Conv=0.90D-08     -V/T= 2.0927
 KE= 3.038138413153D+03 PE=-9.270922830633D+03 EE= 2.173795566658D+03
 --------------------------------------------------------------------
 Variational C-PCM results
 =========================
 <psi(f)|   H    |psi(f)>                     (a.u.) =   -3319.799392
 <psi(f)|H+V(f)/2|psi(f)>                     (a.u.) =   -3319.841543
 Total free energy in solution:
 - with all non electrostatic terms           (a.u.) =   -3319.824547
 --------------------------------------------------------------------
 (Polarized solute)-Solvent               (kcal/mol) =     -26.45
 --------------------------------------------------------------------
 Cavitation energy                        (kcal/mol) =      21.57
 Dispersion energy                        (kcal/mol) =     -12.21
 Repulsion energy                         (kcal/mol) =       1.30
 Total non electrostatic                  (kcal/mol) =      10.66
 --------------------------------------------------------------------
 Partition over spheres:
 Sphere  on Atom  Surface  Charge   GEl     GCav    GDR
    1     Pa1      17.14  -0.310   -6.18    0.97   -0.20
    2      O2      16.91   0.117   -0.69    2.41   -0.88
    3      H3       9.20  -0.138   -2.58    1.30   -0.92
    4      O4      17.17   0.133    0.04    2.49   -1.06
    5      H5       9.19  -0.133   -3.03    1.30   -0.87
    6      O6      17.07   0.130   -1.12    2.50   -0.90
    7      H7       9.18  -0.135   -2.43    1.30   -0.93
    8      O8      16.94   0.121   -1.32    2.42   -0.96
    9      H9       9.20  -0.136   -2.63    1.30   -0.87
   10     Br10     46.62   0.351   -6.52    5.60   -3.30
 --------------------------------------------------------------------
 - cavitation energy not included in the total energy.
 - dispersion energy not included in the total energy.
 - repulsion  energy not included in the total energy.
 After PCM corrections, the energy is  -3319.84154311     a.u.
 --------------------------------------------------------------------
 Writing COSMO formatted file "pa_oh4_br-bp86-cosmors-deftzvp-klamt.cosmo"
 Recomputed dielectric energy= -0.042341 old= -0.042151 diff=-1.91D-04
 Leave Link  502 at Tue Jul  4 11:14:59 2023, MaxMem=  2147483648 cpu:             673.8 elap:             122.8
 (Enter /home/pcmt/gaussian/g16.C.01/g16/l601.exe)
 Copying SCF densities to generalized density rwf, IOpCl= 0 IROHF=0.

 **********************************************************************

            Population analysis using the SCF Density.

 **********************************************************************

 Orbital symmetries:
       Occupied  (A) (A) (A) (A) (A) (A) (A) (A) (A) (A) (A) (A)
                 (A) (A) (A) (A) (A) (A) (A) (A) (A) (A) (A) (A)
                 (A) (A) (A) (A) (A) (A) (A) (A) (A) (A) (A) (A)
                 (A) (A) (A) (A) (A) (A) (A) (A) (A) (A) (A) (A)
                 (A) (A) (A)
       Virtual   (A) (A) (A) (A) (A) (A) (A) (A) (A) (A) (A) (A)
                 (A) (A) (A) (A) (A) (A) (A) (A) (A) (A) (A) (A)
                 (A) (A) (A) (A) (A) (A) (A) (A) (A) (A) (A) (A)
                 (A) (A) (A) (A) (A) (A) (A) (A) (A) (A) (A) (A)
                 (A) (A) (A) (A) (A) (A) (A) (A) (A) (A) (A) (A)
                 (A) (A) (A) (A) (A) (A) (A) (A) (A) (A) (A) (A)
                 (A) (A) (A) (A) (A) (A) (A) (A) (A) (A) (A) (A)
                 (A) (A) (A) (A) (A) (A) (A) (A) (A) (A) (A) (A)
                 (A) (A) (A) (A) (A) (A) (A) (A) (A) (A) (A) (A)
                 (A) (A) (A) (A) (A) (A) (A) (A) (A) (A) (A) (A)
                 (A) (A) (A) (A) (A) (A) (A) (A) (A) (A) (A) (A)
                 (A) (A) (A) (A) (A) (A) (A) (A) (A) (A) (A) (A)
                 (A) (A) (A) (A) (A) (A) (A) (A) (A) (A) (A) (A)
                 (A) (A) (A) (A) (A) (A) (A) (A) (A) (A) (A) (A)
                 (A) (A) (A) (A) (A) (A) (A) (A) (A) (A) (A) (A)
                 (A) (A) (A) (A) (A) (A) (A) (A) (A) (A) (A) (A)
                 (A) (A) (A) (A) (A) (A) (A) (A) (A) (A) (A) (A)
                 (A) (A) (A) (A) (A) (A) (A) (A) (A) (A) (A) (A)
                 (A) (A) (A) (A) (A) (A) (A) (A) (A) (A) (A) (A)
                 (A) (A) (A) (A) (A) (A) (A) (A) (A) (A) (A) (A)
                 (A) (A) (A) (A)
 The electronic state is 1-A.
 Alpha  occ. eigenvalues -- -481.11084 -61.80258 -55.71428 -55.71368 -55.71347
 Alpha  occ. eigenvalues --  -18.77395 -18.77339 -18.77131 -18.76867 -11.12078
 Alpha  occ. eigenvalues --   -8.37679  -7.18640  -7.18341  -7.18054  -6.24842
 Alpha  occ. eigenvalues --   -6.24669  -6.24605  -3.54133  -3.54083  -3.53983
 Alpha  occ. eigenvalues --   -3.53829  -3.53626  -2.45293  -2.45251  -2.45205
 Alpha  occ. eigenvalues --   -2.45071  -2.45068  -1.73468  -0.96453  -0.94188
 Alpha  occ. eigenvalues --   -0.93264  -0.89510  -0.81077  -0.80485  -0.78611
 Alpha  occ. eigenvalues --   -0.66208  -0.46340  -0.43279  -0.43018  -0.40055
 Alpha  occ. eigenvalues --   -0.32637  -0.31006  -0.30277  -0.29668  -0.29626
 Alpha  occ. eigenvalues --   -0.28993  -0.28530  -0.28089  -0.26268  -0.25096
 Alpha  occ. eigenvalues --   -0.24544
 Alpha virt. eigenvalues --   -0.13515  -0.13161  -0.12361  -0.11963  -0.11176
 Alpha virt. eigenvalues --   -0.10429  -0.09742  -0.07962  -0.02070  -0.00002
 Alpha virt. eigenvalues --    0.00135   0.01867   0.02293   0.02808   0.02900
 Alpha virt. eigenvalues --    0.04756   0.06588   0.10840   0.12176   0.13441
 Alpha virt. eigenvalues --    0.14334   0.18187   0.20171   0.21587   0.21866
 Alpha virt. eigenvalues --    0.22556   0.22913   0.24393   0.26072   0.26625
 Alpha virt. eigenvalues --    0.26946   0.29127   0.29914   0.30693   0.31145
 Alpha virt. eigenvalues --    0.32611   0.35765   0.36331   0.38770   0.39701
 Alpha virt. eigenvalues --    0.40651   0.42655   0.44476   0.45053   0.46424
 Alpha virt. eigenvalues --    0.48322   0.49674   0.51169   0.52582   0.53585
 Alpha virt. eigenvalues --    0.54822   0.55787   0.57104   0.58004   0.60513
 Alpha virt. eigenvalues --    0.61341   0.63515   0.67243   0.69652   0.73848
 Alpha virt. eigenvalues --    0.76296   0.79522   0.84873   0.86683   0.89158
 Alpha virt. eigenvalues --    0.94901   0.96220   1.03735   1.06469   1.06858
 Alpha virt. eigenvalues --    1.09166   1.09646   1.10510   1.11196   1.11787
 Alpha virt. eigenvalues --    1.13881   1.14860   1.15739   1.17951   1.21035
 Alpha virt. eigenvalues --    1.25207   1.26840   1.27334   1.29613   1.30670
 Alpha virt. eigenvalues --    1.32493   1.33736   1.34741   1.35036   1.37401
 Alpha virt. eigenvalues --    1.38152   1.39583   1.42525   1.42782   1.44283
 Alpha virt. eigenvalues --    1.46941   1.48477   1.49456   1.50705   1.53092
 Alpha virt. eigenvalues --    1.54431   1.55284   1.56205   1.56890   1.58275
 Alpha virt. eigenvalues --    1.59901   1.61122   1.63547   1.66348   1.67563
 Alpha virt. eigenvalues --    1.68773   1.71803   1.73408   1.75023   1.77961
 Alpha virt. eigenvalues --    1.79718   1.80011   1.81541   1.84866   1.88104
 Alpha virt. eigenvalues --    1.88903   1.91211   1.94912   2.00971   2.13519
 Alpha virt. eigenvalues --    2.15860   2.18777   2.20312   2.20869   2.23255
 Alpha virt. eigenvalues --    2.25591   2.26174   2.28161   2.36712   2.44118
 Alpha virt. eigenvalues --    2.46978   2.50553   2.52148   2.59599   2.61353
 Alpha virt. eigenvalues --    2.62311   2.66029   2.66821   2.71719   2.74106
 Alpha virt. eigenvalues --    2.74860   2.75725   2.90939   2.92804   3.02499
 Alpha virt. eigenvalues --    3.42122   3.47777   3.55362   3.65438   3.65719
 Alpha virt. eigenvalues --    3.69029   3.71345   3.76825   3.78855   3.83938
 Alpha virt. eigenvalues --    3.86644   3.90197   3.92531   3.94718   4.02169
 Alpha virt. eigenvalues --    4.02642   4.05124   4.14199   4.16637   4.21105
[...]
   XY=              1.1452   XZ=              1.4603   YZ=             -1.2554
 Traceless Quadrupole moment (field-independent basis, Debye-Ang):
   XX=             -9.1960   YY=              5.8445   ZZ=              3.3514
   XY=              1.1452   XZ=              1.4603   YZ=             -1.2554
 Octapole moment (field-independent basis, Debye-Ang**2):
  XXX=             66.6404  YYY=              4.7590  ZZZ=              5.1841  XYY=             28.4729
  XXY=              9.8738  XXZ=             -1.9288  XZZ=             12.5514  YZZ=             -8.5579
  YYZ=              5.9448  XYZ=             -3.6231
 Hexadecapole moment (field-independent basis, Debye-Ang**3):
 XXXX=          -1073.8390 YYYY=           -286.8467 ZZZZ=           -192.7928 XXXY=             44.5591
 XXXZ=            -15.4728 YYYX=            -15.4763 YYYZ=             22.8384 ZZZX=             24.6186
 ZZZY=            -26.3581 XXYY=           -232.8758 XXZZ=           -224.8100 YYZZ=           -118.1729
 XXYZ=            -10.6295 YYXZ=              2.9474 ZZXY=             -6.8800
 N-N= 7.391473077156D+02 E-N=-9.270922818742D+03  KE= 3.038138413153D+03
 Orbital energies and kinetic energies (alpha):
                                 1                 2
   1         O              -481.110838        595.240096
   2         O               -61.802575        117.224339
   3         O               -55.714284        116.497439
   4         O               -55.713681        116.504696
   5         O               -55.713467        116.504571
   6         O               -18.773947         29.111915
   7         O               -18.773392         29.112025
   8         O               -18.771315         29.113054
   9         O               -18.768668         29.112731
  10         O               -11.120779          4.704331
  11         O                -8.376792         27.785257
  12         O                -7.186398          5.037917
  13         O                -7.183410          5.037084
  14         O                -7.180544          5.036016
  15         O                -6.248420         25.783261
  16         O                -6.246686         25.790045
  17         O                -6.246053         25.790451
  18         O                -3.541329          6.839673
  19         O                -3.540830          6.839256
  20         O                -3.539834          6.838799
  21         O                -3.538293          6.837891
  22         O                -3.536260          6.837354
  23         O                -2.452931         21.392171
  24         O                -2.452512         21.395139
  25         O                -2.452050         21.395954
  26         O                -2.450709         21.402082
  27         O                -2.450677         21.401906
  28         O                -1.734683          6.474396
  29         O                -0.964530          2.302148
  30         O                -0.941877          2.390085
  31         O                -0.932639          2.477683
  32         O                -0.895105          2.965173
  33         O                -0.810774          2.619037
  34         O                -0.804854          2.568152
  35         O                -0.786113          2.626796
  36         O                -0.662079          3.953906
  37         O                -0.463397          3.066985
  38         O                -0.432787          4.427999
  39         O                -0.430182          3.004483
  40         O                -0.400548          2.434813
  41         O                -0.326372          2.113935
  42         O                -0.310058          2.108734
  43         O                -0.302770          2.759075
  44         O                -0.296677          4.378503
  45         O                -0.296258          2.582557
  46         O                -0.289927          2.591930
  47         O                -0.285297          5.139048
  48         O                -0.280893          3.562319
  49         O                -0.262684          2.759812
  50         O                -0.250961          2.587924
  51         O                -0.245444          2.608262
  52         V                -0.135151        157.230232
  53         V                -0.131612          6.801209
  54         V                -0.123606         16.537677
  55         V                -0.119626         11.642303
  56         V                -0.111755         32.287980
  57         V                -0.104292        107.587242
  58         V                -0.097418         76.860735
  59         V                -0.079617          5.412944
  60         V                -0.020700         13.283704
  61         V                -0.000016          2.007992
  62         V                 0.001349          1.747280
  63         V                 0.018667          2.239143
  64         V                 0.022927          0.806130
  65         V                 0.028079          0.984097
  66         V                 0.029001          0.908723
  67         V                 0.047563          2.244197
  68         V                 0.065879          1.417250
  69         V                 0.108396          8.468635
  70         V                 0.121757          1.077758
  71         V                 0.134415          2.021918
  72         V                 0.143344          1.966457
  73         V                 0.181869          1.194309
  74         V                 0.201706          1.215853
  75         V                 0.215872          1.357720
  76         V                 0.218665          1.520508
  77         V                 0.225559          1.481412
  78         V                 0.229129          1.338477
  79         V                 0.243934          1.473642
  80         V                 0.260724          1.258387
  81         V                 0.266247          1.544912
  82         V                 0.269459          1.463753
  83         V                 0.291265          1.438691
  84         V                 0.299138          1.835387
  85         V                 0.306928          1.413149
  86         V                 0.311449          1.689549
  87         V                 0.326114          1.428394
  88         V                 0.357651          1.482707
  89         V                 0.363309          1.796806
  90         V                 0.387700          2.899561
  91         V                 0.397007          1.538075
  92         V                 0.406510          1.875130
  93         V                 0.426547          1.515959
  94         V                 0.444765          1.766427
  95         V                 0.450530          1.854212
  96         V                 0.464238          1.976296
  97         V                 0.483222          1.753922
  98         V                 0.496743          1.811516
  99         V                 0.511687          1.658515
 100         V                 0.525823          1.656418
 101         V                 0.535847          2.107538
 102         V                 0.548221          1.634066
 103         V                 0.557874          1.670040
 104         V                 0.571040          1.624816
 105         V                 0.580043          1.607723
 106         V                 0.605129          3.101969
 107         V                 0.613412          2.011247
 108         V                 0.635146          1.465978
 109         V                 0.672428          2.270781
 110         V                 0.696516          2.061411
 111         V                 0.738483          1.558795
 112         V                 0.762965          1.815389
 113         V                 0.795219          1.690695
 114         V                 0.848730          1.952287
 115         V                 0.866830          2.211866
 116         V                 0.891578          3.368445
 117         V                 0.949006          3.643844
 118         V                 0.962196          2.635548
 119         V                 1.037345          2.579543
 120         V                 1.064694          2.632480
 121         V                 1.068579          2.766520
 122         V                 1.091658          2.994308
 123         V                 1.096456          2.430348
 124         V                 1.105099          3.334394
 125         V                 1.111961          2.788973
 126         V                 1.117872          2.684151
 127         V                 1.138810          2.907688
 128         V                 1.148598          2.444285
 129         V                 1.157388          2.804798
 130         V                 1.179509          2.732289
 131         V                 1.210353          2.710504
 132         V                 1.252070          3.250553
 133         V                 1.268398          3.522692
 134         V                 1.273338          3.423871
 135         V                 1.296132          3.083561
 136         V                 1.306699          3.109643
 137         V                 1.324930          3.593019
 138         V                 1.337356          3.961579
 139         V                 1.347408          2.989819
 140         V                 1.350358          3.178189
 141         V                 1.374012          3.681114
 142         V                 1.381522          3.748671
 143         V                 1.395834          3.060835
 144         V                 1.425246          3.109982
 145         V                 1.427817          2.911274
 146         V                 1.442828          2.817946
 147         V                 1.469408          3.082884
 148         V                 1.484774          2.695063
 149         V                 1.494560          2.754408
 150         V                 1.507053          2.888325
 151         V                 1.530917          2.957167
 152         V                 1.544306          4.318972
 153         V                 1.552845          3.415653
 154         V                 1.562052          4.973201
 155         V                 1.568902          5.590288
 156         V                 1.582753          4.858720
 157         V                 1.599006          4.681770
 158         V                 1.611220          3.761584
 159         V                 1.635471          3.903992
 160         V                 1.663480          3.380310
 161         V                 1.675627          3.418364
 162         V                 1.687726          3.378384
 163         V                 1.718026          3.525770
 164         V                 1.734076          3.503769
 165         V                 1.750234          3.403811
 166         V                 1.779606          3.618111
 167         V                 1.797184          3.284254
 168         V                 1.800112          3.437020
 169         V                 1.815411          3.959049
 170         V                 1.848665          3.694919
 171         V                 1.881043          4.157316
 172         V                 1.889028          3.909904
 173         V                 1.912107          3.650936
 174         V                 1.949118          3.709156
 175         V                 2.009713          4.837964
 176         V                 2.135195          3.698644
 177         V                 2.158601          3.561386
 178         V                 2.187772          3.790027
 179         V                 2.203117          3.814247
 180         V                 2.208691          3.851652
 181         V                 2.232553          3.958070
 182         V                 2.255911          5.157846
 183         V                 2.261744          3.807643
 184         V                 2.281612          3.887876
 185         V                 2.367118          6.298154
 186         V                 2.441180          4.714177
 187         V                 2.469776          4.161021
 188         V                 2.505531          4.466771
 189         V                 2.521478          5.020417
 190         V                 2.595991          5.964239
 191         V                 2.613534          6.785943
 192         V                 2.623112          6.831450
 193         V                 2.660289          6.331213
 194         V                 2.668215          6.167272
 195         V                 2.717188          6.349915
 196         V                 2.741061          6.454609
 197         V                 2.748602          6.540008
 198         V                 2.757249          6.631903
 199         V                 2.909388          6.870946
 200         V                 2.928040          6.792319
 201         V                 3.024995          6.607793
 202         V                 3.421224          8.646766
 203         V                 3.477771          8.384011
 204         V                 3.553616          8.511423
 205         V                 3.654384          7.298623
 206         V                 3.657186          8.341615
 207         V                 3.690295          7.491516
 208         V                 3.713452          7.576257
 209         V                 3.768246          7.456589
 210         V                 3.788553          9.303087
 211         V                 3.839380          9.909521
 212         V                 3.866436          9.706532
 213         V                 3.901968          9.513098
 214         V                 3.925311         12.742994
 215         V                 3.947182         12.621075
 216         V                 4.021687         11.688126
 217         V                 4.026417         11.923483
 218         V                 4.051240         11.399984
 219         V                 4.141995         10.485395
 220         V                 4.166367          9.990182
 221         V                 4.211052          9.614500
 222         V                 5.001477          6.441541
 223         V                 5.001687          6.437611
 224         V                 5.004138          6.450274
 225         V                 5.007293          6.455926
 226         V                 5.012393          6.468606
 227         V                 5.015618          6.474650
 228         V                 5.019861          6.484894
 229         V                 5.023624          6.472787
 230         V                 5.062535          6.680465
 231         V                 5.067404          6.633437
 232         V                 5.103567          6.822530
 233         V                 5.109017          6.698196
 234         V                 5.119535          6.847067
 235         V                 5.131721          6.792344
 236         V                 5.148886          6.816541
 237         V                 5.164002          6.852700
 238         V                 5.314936          6.921018
 239         V                 5.316252          7.066032
 240         V                 5.334409          7.901306
 241         V                 5.368449          7.110484
 242         V                 5.377109          7.013284
 243         V                 5.406041          7.120821
 244         V                 5.427736          7.223449
 245         V                 5.441472          7.226234
 246         V                 5.994126         10.748693
 247         V                 6.098310          9.104671
 248         V                 6.100212          9.108427
 249         V                 6.114205          9.091184
 250         V                 6.150677          9.457047
 251         V                 6.169255          9.133648
 252         V                 6.172621          9.344774
 253         V                 6.196299          9.341121
 254         V                 6.220196          9.350106
 255         V                 6.240054          9.294313
 256         V                 6.260087          9.355445
 257         V                 6.290463          9.302119
 258         V                 6.297652          9.395946
 259         V                 6.406926          9.622136
 260         V                 6.425509          9.631487
 261         V                 6.468831          9.664460
 262         V                 6.486630          9.675346
 263         V                 6.625521         10.132965
 264         V                 6.642310         10.286709
 265         V                 6.666732         10.335059
 266         V                 6.761511         10.123088
 267         V                 6.941707         10.188477
 268         V                 6.967742         10.406144
 269         V                 6.996136         10.010784
 270         V                 7.080377         10.610529
 271         V                 7.230875         13.089697
 272         V                 7.332051         23.973644
 273         V                 7.421664         13.795954
 274         V                 7.460770         28.021791
 275         V                 8.117099         15.933997
 276         V                 8.163764         15.803291
 277         V                 8.188692         15.811958
 278         V                 8.551834         16.142548
 279         V                 8.854624         16.333355
 280         V                29.299110         36.041993
 281         V                29.377161         36.114595
 282         V                29.443361         36.186144
 283         V                43.230701        108.599842
 284         V                43.301158        108.646512
 285         V                43.376378        108.736840
 286         V                43.432121        108.791794
 287         V                54.047246         39.960039
 288         V                70.206582         83.966350
 289         V                70.250721         84.047455
 290         V                70.289861         84.122668
 291         V               142.605157        242.449833
 292         V               142.689545        242.555602
 293         V               142.765296        242.651267
 294         V               202.559619        130.070393
 295         V               626.074921       1034.484833
 Total kinetic energy from orbitals= 3.038138413153D+03
 No NMR shielding tensors so no spin-rotation constants.
 Leave Link  601 at Tue Jul  4 11:15:00 2023, MaxMem=  2147483648 cpu:               3.1 elap:               0.4
 (Enter /home/pcmt/gaussian/g16.C.01/g16/l9999.exe)

 Test job not archived.
 1\1\GINC-U-0-0\SP\RBP86\Gen\Br1H4O4Pa1\ROOT\04-Jul-2023\0\\#p BP86/GEN
  Pseudo=Read GFInput GFPrint IOP(6/7=3) Symm=(Loose) Int=(UltraFine) G
 uess=(Harris) SCRF=(COSMORS) Scf=(NoVarAcc,MaxCycle=100,conver=8)\\pa_
 oh4_br-bp86-cosmors-deftzvp-klamt.com SGP in PCM calculation\\0,1\Pa,0
 ,0.4346956987,0.0926786279,0.3135230436\O,0,1.1678672553,1.765591283,-
 0.6982622572\H,0,1.2345846546,2.1715421873,-1.572013989\O,0,-1.5239656
 975,0.8392014094,0.1878222486\H,0,-2.0081502028,1.52657024,-0.28531766
 04\O,0,0.4011451343,-1.0305312773,-1.443893366\H,0,0.0113390869,-1.818
 3103087,-1.839435223\O,0,-0.2571429517,-1.4787228033,1.5111893663\H,0,
 -1.0994962267,-1.9002512159,1.7259376022\Br,0,3.1320574197,-0.62239096
 16,1.011993597\\Version=ES64L-G16RevC.01\State=1-A\HF=-3319.8415431\RM
 SD=9.036e-09\Dipole=-3.1395039,0.9976569,-0.8436295\Quadrupole=-6.1892
 006,3.891558,2.2976426,2.8395298,-1.0987703,-0.2386505\PG=C01 [X(Br1H4
 O4Pa1)]\\@


 Other things may change us, but we start and end with family.
 -- Anthony Brandt
 Job cpu time:       0 days  0 hours 11 minutes 43.0 seconds.
 Elapsed time:       0 days  0 hours  2 minutes  6.8 seconds.
 File lengths (MBytes):  RWF=     47 Int=      0 D2E=      0 Chk=      7 Scr=      1
 Normal termination of Gaussian 16 at Tue Jul  4 11:15:00 2023.
