 Entering Gaussian System, Link 0=/home/pcmt/gaussian/g16.C.01/g16/g16
 AtFile(1): /home/shaaban/basis.gaussian/Pa-def-TZVP
 AtFile(1): /home/shaaban/basis.gaussian/Pa-ECP60MWB
 AtFile(1): /home/shaaban/basis.gaussian/I-ECP28oldMDF
 Initial command:
 /home/pcmt/gaussian/g16.C.01/g16/l1.exe "/state/partition2/shaaban/972146.phlam-s-sakura/Gau-31169.inp" -scrdir="/state/partition2/shaaban/972146.phlam-s-sakura/"
 Entering Link 1 = /home/pcmt/gaussian/g16.C.01/g16/l1.exe PID=     31170.
  
 Copyright (c) 1988-2019, Gaussian, Inc.  All Rights Reserved.
  
 This is part of the Gaussian(R) 16 program.  It is based on
 the Gaussian(R) 09 system (copyright 2009, Gaussian, Inc.),
 the Gaussian(R) 03 system (copyright 2003, Gaussian, Inc.),
 the Gaussian(R) 98 system (copyright 1998, Gaussian, Inc.),
 the Gaussian(R) 94 system (copyright 1995, Gaussian, Inc.),
 the Gaussian 92(TM) system (copyright 1992, Gaussian, Inc.),
 the Gaussian 90(TM) system (copyright 1990, Gaussian, Inc.),
 the Gaussian 88(TM) system (copyright 1988, Gaussian, Inc.),
 the Gaussian 86(TM) system (copyright 1986, Carnegie Mellon
 University), and the Gaussian 82(TM) system (copyright 1983,
 Carnegie Mellon University). Gaussian is a federally registered
 trademark of Gaussian, Inc.
  
 This software contains proprietary and confidential information,
 including trade secrets, belonging to Gaussian, Inc.
  
 This software is provided under written license and may be
 used, copied, transmitted, or stored only in accord with that
 written license.
  
 The following legend is applicable only to US Government
 contracts under FAR:
  
                    RESTRICTED RIGHTS LEGEND
  
 Use, reproduction and disclosure by the US Government is
 subject to restrictions as set forth in subparagraphs (a)
 and (c) of the Commercial Computer Software - Restricted
 Rights clause in FAR 52.227-19.
  
 Gaussian, Inc.
 340 Quinnipiac St., Bldg. 40, Wallingford CT 06492
  
  
 ---------------------------------------------------------------
 Warning -- This program may not be used in any manner that
 competes with the business of Gaussian, Inc. or will provide
 assistance to any competitor of Gaussian, Inc.  The licensee
 of this program is prohibited from giving any competitor of
 Gaussian, Inc. access to this program.  By using this program,
 the user acknowledges that Gaussian, Inc. is engaged in the
 business of creating and licensing software in the field of
 computational chemistry and represents and warrants to the
 licensee that it is not a competitor of Gaussian, Inc. and that
 it will not use this program in any manner prohibited above.
 ---------------------------------------------------------------
  

 Cite this work as:
 Gaussian 16, Revision C.01,
 M. J. Frisch, G. W. Trucks, H. B. Schlegel, G. E. Scuseria, 
 M. A. Robb, J. R. Cheeseman, G. Scalmani, V. Barone, 
 G. A. Petersson, H. Nakatsuji, X. Li, M. Caricato, A. V. Marenich, 
 J. Bloino, B. G. Janesko, R. Gomperts, B. Mennucci, H. P. Hratchian, 
 J. V. Ortiz, A. F. Izmaylov, J. L. Sonnenberg, D. Williams-Young, 
 F. Ding, F. Lipparini, F. Egidi, J. Goings, B. Peng, A. Petrone, 
 T. Henderson, D. Ranasinghe, V. G. Zakrzewski, J. Gao, N. Rega, 
 G. Zheng, W. Liang, M. Hada, M. Ehara, K. Toyota, R. Fukuda, 
 J. Hasegawa, M. Ishida, T. Nakajima, Y. Honda, O. Kitao, H. Nakai, 
 T. Vreven, K. Throssell, J. A. Montgomery, Jr., J. E. Peralta, 
 F. Ogliaro, M. J. Bearpark, J. J. Heyd, E. N. Brothers, K. N. Kudin, 
 V. N. Staroverov, T. A. Keith, R. Kobayashi, J. Normand, 
 K. Raghavachari, A. P. Rendell, J. C. Burant, S. S. Iyengar, 
 J. Tomasi, M. Cossi, J. M. Millam, M. Klene, C. Adamo, R. Cammi, 
 J. W. Ochterski, R. L. Martin, K. Morokuma, O. Farkas, 
 J. B. Foresman, and D. J. Fox, Gaussian, Inc., Wallingford CT, 2019.
 
 ******************************************
 Gaussian 16:  ES64L-G16RevC.01  3-Jul-2019
                27-Jun-2023 
 ******************************************
 %mem=16Gb
 %NProc=8
 Will use up to    8 processors via shared memory.
 %chk=pao_oh2_I_h2o-bp86-cosmors-deftzvp-gp.chk
 ----------------------------------------------------------------------
 #p BP86/GEN Pseudo=Read GFInput GFPrint IOP(6/7=3) Symm=(Loose) Int=(U
 ltraFine) Guess=(Harris) Scf=(NoVarAcc,MaxCycle=100,conver=8)
 ----------------------------------------------------------------------
 1/38=1,172=1/1;
 2/12=2,17=4,18=3,40=1/2;
 3/5=7,11=2,16=1,17=8,24=110,25=1,30=1,74=404,75=-5/1,2,3;
 4/11=8/1;
 5/5=2,6=8,7=100,38=1/2;
 6/7=3,8=2,9=2,10=2,28=1/1;
 99/5=1,9=1/99;
 Leave Link    1 at Tue Jun 27 18:50:54 2023, MaxMem=  2147483648 cpu:               0.7 elap:               0.1
 (Enter /home/pcmt/gaussian/g16.C.01/g16/l101.exe)
 ----------------------------------------------------------------
 pao_oh2_I_h2o-bp86-cosmors-deftzvp-gp.com SGP in PCM calculation
 ----------------------------------------------------------------
 Symbolic Z-matrix:
 Charge =  0 Multiplicity = 1
 Pa                   -0.35915  -0.03151   0.70071 
 O                     1.04509   1.45769   0.10751 
 O                    -1.70817   0.79208  -0.66851 
 I                    -1.58131   1.56912   3.10987 
 H                    -1.69015   1.57815  -1.23204 
 O                     0.16144  -1.60616  -1.15194 
 H                    -0.1897   -1.56757  -2.05133 
 H                     0.81822  -2.31424  -1.12643 
 H                     1.96699   1.55006   0.37628 
 O                     0.81573  -1.01788   1.73915 
 
 ITRead=  0  0  0  0  0  0  0  0  0  0
 MicOpt= -1 -1 -1 -1 -1 -1 -1 -1 -1 -1
 NAtoms=     10 NQM=       10 NQMF=       0 NMMI=      0 NMMIF=      0
                NMic=       0 NMicF=      0.
                    Isotopes and Nuclear Properties:
 (Nuclear quadrupole moments (NQMom) in fm**2, nuclear magnetic moments (NMagM)
  in nuclear magnetons)

  Atom         1           2           3           4           5           6           7           8           9          10
 IAtWgt=         231          16          16         127           1          16           1           1           1          16
 AtmWgt= 231.0359000  15.9949146  15.9949146 126.9004000   1.0078250  15.9949146   1.0078250   1.0078250   1.0078250  15.9949146
 NucSpn=           3           0           0           5           1           0           1           1           1           0
 AtZEff=  -0.0000000  -0.0000000  -0.0000000  -0.0000000  -0.0000000  -0.0000000  -0.0000000  -0.0000000  -0.0000000  -0.0000000
 NQMom= -172.0000000   0.0000000   0.0000000 -71.0000000   0.0000000   0.0000000   0.0000000   0.0000000   0.0000000   0.0000000
 NMagM=    2.0100000   0.0000000   0.0000000   2.8132800   2.7928460   0.0000000   2.7928460   2.7928460   2.7928460   0.0000000
 AtZNuc=  91.0000000   8.0000000   8.0000000  53.0000000   1.0000000   8.0000000   1.0000000   1.0000000   1.0000000   8.0000000
 Leave Link  101 at Tue Jun 27 18:50:54 2023, MaxMem=  2147483648 cpu:               1.1 elap:               0.2
 (Enter /home/pcmt/gaussian/g16.C.01/g16/l202.exe)
                          Input orientation:                          
 ---------------------------------------------------------------------
 Center     Atomic      Atomic             Coordinates (Angstroms)
 Number     Number       Type             X           Y           Z
 ---------------------------------------------------------------------
      1         91           0       -0.359150   -0.031506    0.700712
      2          8           0        1.045089    1.457685    0.107513
      3          8           0       -1.708166    0.792084   -0.668505
      4         53           0       -1.581307    1.569118    3.109865
      5          1           0       -1.690153    1.578152   -1.232040
      6          8           0        0.161443   -1.606161   -1.151943
      7          1           0       -0.189696   -1.567572   -2.051331
      8          1           0        0.818217   -2.314239   -1.126432
      9          1           0        1.966985    1.550055    0.376278
     10          8           0        0.815730   -1.017877    1.739151
 ---------------------------------------------------------------------
                    Distance matrix (angstroms):
                    1          2          3          4          5
     1  Pa   0.000000
     2  O    2.131070   0.000000
     3  O    2.091148   2.936944   0.000000
     4  I    3.140014   3.990551   3.859528   0.000000
     5  H    2.845716   3.048027   0.967368   4.343279   0.000000
     6  O    2.486540   3.428442   3.079079   5.593083   3.684383
     7  H    3.156256   3.916310   3.128247   6.197850   3.580250
     8  H    3.152065   3.975111   4.030080   6.227712   4.631823
     9  H    2.831518   0.964706   3.895231   4.479201   3.995264
    10  O    1.852465   2.973761   3.929735   3.783807   4.674056
                    6          7          8          9         10
     6  O    0.000000
     7  H    0.966275   0.000000
     8  H    0.966115   1.558473   0.000000
     9  H    3.944254   4.501572   4.302392   0.000000
    10  O    3.022018   3.959899   3.145175   3.126834   0.000000
 Stoichiometry    H4IO4Pa
 Framework group  C1[X(H4IO4Pa)]
 Deg. of freedom    24
 Full point group                 C1      NOp   1
 Largest Abelian subgroup         C1      NOp   1
 Largest concise Abelian subgroup C1      NOp   1
                         Standard orientation:                         
 ---------------------------------------------------------------------
 Center     Atomic      Atomic             Coordinates (Angstroms)
 Number     Number       Type             X           Y           Z
 ---------------------------------------------------------------------
      1         91           0        0.756993   -0.054239   -0.072952
      2          8           0        1.007546    0.199592    2.028061
      3          8           0        0.901319    2.022373   -0.272337
      4         53           0       -2.382464    0.004686   -0.068207
      5          1           0        0.954643    2.751154    0.361568
      6          8           0        3.184072   -0.015841   -0.612116
      7          1           0        3.732481    0.771532   -0.726044
      8          1           0        3.766669   -0.785114   -0.658777
      9          1           0        1.101333   -0.481401    2.704900
     10          8           0        0.885694   -1.902228   -0.072121
 ---------------------------------------------------------------------
 Rotational constants (GHZ):           2.3304179           0.4322371           0.4143747
 Leave Link  202 at Tue Jun 27 18:50:54 2023, MaxMem=  2147483648 cpu:               0.1 elap:               0.0
 (Enter /home/pcmt/gaussian/g16.C.01/g16/l301.exe)
 General basis read from cards:  (5D, 7F)
 Centers:       1
 S 3 1.00
     Exponent=  1.2047376000D+04 Coefficients=  3.4500000000D-04
     Exponent=  1.8116841000D+03 Coefficients=  2.7420000000D-03
     Exponent=  3.4770104000D+02 Coefficients=  1.0053000000D-02
 S 1 1.00
     Exponent=  9.8678010000D+01 Coefficients=  1.0000000000D+00
 S 3 1.00
     Exponent=  5.7507376000D+01 Coefficients=  5.1528000000D-02
     Exponent=  3.3502601000D+01 Coefficients= -2.3692400000D-01
     Exponent=  1.9554451000D+01 Coefficients=  7.1904800000D-01
 S 1 1.00
     Exponent=  9.7164210000D+00 Coefficients=  1.0000000000D+00
 S 1 1.00
     Exponent=  2.6920960000D+00 Coefficients=  1.0000000000D+00
 S 1 1.00
     Exponent=  1.4538470000D+00 Coefficients=  1.0000000000D+00
 S 1 1.00
     Exponent=  5.7435200000D-01 Coefficients=  1.0000000000D+00
 S 1 1.00
     Exponent=  2.6346800000D-01 Coefficients=  1.0000000000D+00
 S 1 1.00
     Exponent=  5.6557000000D-02 Coefficients=  1.0000000000D+00
 S 1 1.00
     Exponent=  2.3169000000D-02 Coefficients=  1.0000000000D+00
 P 5 1.00
     Exponent=  2.9033676000D+03 Coefficients=  3.5000000000D-05
     Exponent=  6.4486356000D+02 Coefficients=  2.0500000000D-04
     Exponent=  2.2025896000D+02 Coefficients=  1.2510000000D-03
     Exponent=  8.0276401000D+01 Coefficients=  2.4570000000D-03
     Exponent=  2.4080211000D+01 Coefficients=  1.1190000000D-02
 P 1 1.00
     Exponent=  1.4077580000D+01 Coefficients=  1.0000000000D+00
 P 1 1.00
     Exponent=  8.2658460000D+00 Coefficients=  1.0000000000D+00
 P 1 1.00
     Exponent=  3.5948000000D+00 Coefficients=  1.0000000000D+00
 P 1 1.00
     Exponent=  1.7531110000D+00 Coefficients=  1.0000000000D+00
 P 1 1.00
     Exponent=  6.5776700000D-01 Coefficients=  1.0000000000D+00
 P 1 1.00
     Exponent=  2.8463900000D-01 Coefficients=  1.0000000000D+00
 P 1 1.00
     Exponent=  1.0054300000D-01 Coefficients=  1.0000000000D+00
 P 1 1.00
     Exponent=  3.0190000000D-02 Coefficients=  1.0000000000D+00
 D 6 1.00
     Exponent=  4.4814991000D+02 Coefficients=  2.6000000000D-05
     Exponent=  1.5446145000D+02 Coefficients=  2.2800000000D-04
     Exponent=  6.0925377000D+01 Coefficients=  9.0400000000D-04
     Exponent=  1.7032091000D+01 Coefficients=  2.5647000000D-02
     Exponent=  1.0018877000D+01 Coefficients= -1.0575100000D-01
     Exponent=  3.4091930000D+00 Coefficients=  4.4743200000D-01
 D 1 1.00
     Exponent=  1.6702130000D+00 Coefficients=  1.0000000000D+00
 D 1 1.00
     Exponent=  7.4109500000D-01 Coefficients=  1.0000000000D+00
 D 1 1.00
     Exponent=  2.6139300000D-01 Coefficients=  1.0000000000D+00
 D 1 1.00
     Exponent=  8.2811000000D-02 Coefficients=  1.0000000000D+00
 F 5 1.00
     Exponent=  8.7991327000D+01 Coefficients=  2.2600000000D-04
     Exponent=  2.8340195000D+01 Coefficients=  2.3230000000D-03
     Exponent=  1.2440994000D+01 Coefficients=  4.5850000000D-03
     Exponent=  3.9572960000D+00 Coefficients=  1.5696100000D-01
     Exponent=  1.8759440000D+00 Coefficients=  3.4497700000D-01
 F 1 1.00
     Exponent=  8.2758900000D-01 Coefficients=  1.0000000000D+00
 F 1 1.00
     Exponent=  3.3274800000D-01 Coefficients=  1.0000000000D+00
 F 1 1.00
     Exponent=  1.1468500000D-01 Coefficients=  1.0000000000D+00
 G 1 1.00
     Exponent=  3.5000000000D-01 Coefficients=  1.0000000000D+00
 ****
 Centers:       2      3      6     10
 Def2TZVP
 ****
 Centers:       5      7      8      9
 Def2TZVP
 ****
 Centers:       4
 Def2TZVP
 ****
 ======================================================================================================
                                       Pseudopotential Parameters
 ======================================================================================================
  Center     Atomic      Valence      Angular      Power
  Number     Number     Electrons     Momentum     of R      Exponent        Coefficient   SO-Coeffient
 ======================================================================================================
    1         91           31
                                      H and up 
                                                     2        1.0000000        0.00000000    0.00000000
                                      S - H
                                                     2       15.2691737      475.47573283    0.00000000
                                      P - H
                                                     2        9.9577370      207.66485962    0.00000000
                                      D - H
                                                     2        8.9431413      156.67411988    0.00000000
                                      F - H
                                                     2        7.0104666       67.98223685    0.00000000
                                      G - H
                                                     2       12.2010560      -57.63059989    0.00000000
    2          8
                                   No pseudopotential on this center.
    3          8
                                   No pseudopotential on this center.
    4         53           25
                                      G and up 
                                                     2        1.0000000        0.00000000    0.00000000
                                      S - G
                                                     2       40.0158350       49.99429300    0.00000000
                                                     2       17.4297470      281.02531700    0.00000000
                                                     2        9.0054840       61.57332600    0.00000000
                                      P - G
                                                     2       15.3554660       67.44284100    0.00000000
                                                     2       14.9718330      134.88113700    0.00000000
                                                     2        8.9601640       14.67505100    0.00000000
                                                     2        8.2590960       29.37566600    0.00000000
                                      D - G
                                                     2       15.0689080       35.43952900    0.00000000
                                                     2       14.5553220       53.17605700    0.00000000
                                                     2        6.7186470        9.06719500    0.00000000
                                                     2        6.4563930       13.20693700    0.00000000
                                                     2        1.1917790        0.08933500    0.00000000
                                                     2        1.2911570        0.05238000    0.00000000
                                      F - G
                                                     2       19.4586090      -21.84204000    0.00000000
                                                     2       19.3492600      -28.46819100    0.00000000
                                                     2        4.8237670       -0.24371300    0.00000000
                                                     2        4.8843150       -0.32080400    0.00000000
    5          1
                                   No pseudopotential on this center.
    6          8
                                   No pseudopotential on this center.
    7          1
                                   No pseudopotential on this center.
    8          1
                                   No pseudopotential on this center.
    9          1
                                   No pseudopotential on this center.
   10          8
                                   No pseudopotential on this center.
 ======================================================================================================
 Ernie: Thresh=  0.10000D-02 Tol=  0.10000D-05 Strict=F.
 AO basis set in the form of general basis input (Overlap normalization):
      1 0
 S   3 1.00       0.000000000000
      0.1204737600D+05  0.2857094961D-01
      0.1811684100D+04  0.2270769386D+00
      0.3477010400D+03  0.8325326273D+00
 S   3 1.00       0.000000000000
      0.5750737600D+02  0.9569327984D-01
      0.3350260100D+02 -0.4399944619D+00
      0.1955445100D+02  0.1335352847D+01
 S   1 1.00       0.000000000000
      0.9867801000D+02  0.1000000000D+01
 S   1 1.00       0.000000000000
      0.9716421000D+01  0.1000000000D+01
 S   1 1.00       0.000000000000
      0.2692096000D+01  0.1000000000D+01
 S   1 1.00       0.000000000000
      0.1453847000D+01  0.1000000000D+01
 S   1 1.00       0.000000000000
      0.5743520000D+00  0.1000000000D+01
 S   1 1.00       0.000000000000
      0.2634680000D+00  0.1000000000D+01
 S   1 1.00       0.000000000000
      0.5655700000D-01  0.1000000000D+01
 S   1 1.00       0.000000000000
      0.2316900000D-01  0.1000000000D+01
 P   5 1.00       0.000000000000
      0.2903367600D+04  0.2594222647D-02
      0.6448635600D+03  0.1519473264D-01
      0.2202589600D+03  0.9272492945D-01
      0.8027640100D+02  0.1821144298D+00
      0.2408021100D+02  0.8294100404D+00
 P   1 1.00       0.000000000000
      0.1407758000D+02  0.1000000000D+01
 P   1 1.00       0.000000000000
      0.8265846000D+01  0.1000000000D+01
 P   1 1.00       0.000000000000
      0.3594800000D+01  0.1000000000D+01
 P   1 1.00       0.000000000000
      0.1753111000D+01  0.1000000000D+01
 P   1 1.00       0.000000000000
      0.6577670000D+00  0.1000000000D+01
 P   1 1.00       0.000000000000
      0.2846390000D+00  0.1000000000D+01
 P   1 1.00       0.000000000000
      0.1005430000D+00  0.1000000000D+01
 P   1 1.00       0.000000000000
      0.3019000000D-01  0.1000000000D+01
 D   6 1.00       0.000000000000
      0.4481499100D+03  0.6556927566D-04
      0.1544614500D+03  0.5749921096D-03
      0.6092537700D+02  0.2279793277D-02
      0.1703209100D+02  0.6467904664D-01
      0.1001887700D+02 -0.2666929411D+00
      0.3409193000D+01  0.1128376621D+01
 D   1 1.00       0.000000000000
      0.1670213000D+01  0.1000000000D+01
 D   1 1.00       0.000000000000
      0.7410950000D+00  0.1000000000D+01
 D   1 1.00       0.000000000000
      0.2613930000D+00  0.1000000000D+01
 D   1 1.00       0.000000000000
      0.8281100000D-01  0.1000000000D+01
 F   5 1.00       0.000000000000
      0.8799132700D+02  0.4766318191D-03
      0.2834019500D+02  0.4899184583D-02
      0.1244099400D+02  0.9669720755D-02
      0.3957296000D+01  0.3310292343D+00
      0.1875944000D+01  0.7275531640D+00
 F   1 1.00       0.000000000000
      0.8275890000D+00  0.1000000000D+01
 F   1 1.00       0.000000000000
      0.3327480000D+00  0.1000000000D+01
 F   1 1.00       0.000000000000
      0.1146850000D+00  0.1000000000D+01
 G   1 1.00       0.000000000000
      0.3500000000D+00  0.1000000000D+01
 ****
      2 0
 S   6 1.00       0.000000000000
      0.2703238263D+05  0.5722733521D-03
      0.4052387139D+04  0.4435323349D-02
      0.9223272271D+03  0.2302010771D-01
      0.2612407099D+03  0.9282249067D-01
      0.8535464135D+02  0.2937850001D+00
      0.3103503524D+02  0.6740160450D+00
 S   2 1.00       0.000000000000
      0.1226086073D+02  0.6383993703D+00
      0.4998707601D+01  0.3953458713D+00
 S   1 1.00       0.000000000000
      0.1170310816D+01  0.1000000000D+01
 S   1 1.00       0.000000000000
      0.4647474099D+00  0.1000000000D+01
 S   1 1.00       0.000000000000
      0.1850453636D+00  0.1000000000D+01
 P   4 1.00       0.000000000000
      0.6327495480D+02  0.1201833222D-01
      0.1462704938D+02  0.8300542179D-01
      0.4450122346D+01  0.3199174393D+00
      0.1527579965D+01  0.7071554292D+00
 P   1 1.00       0.000000000000
      0.5293511794D+00  0.1000000000D+01
 P   1 1.00       0.000000000000
      0.1747842127D+00  0.1000000000D+01
 D   1 1.00       0.000000000000
      0.2314000000D+01  0.1000000000D+01
 D   1 1.00       0.000000000000
      0.6450000000D+00  0.1000000000D+01
 F   1 1.00       0.000000000000
      0.1428000000D+01  0.1000000000D+01
 ****
      3 0
 S   6 1.00       0.000000000000
      0.2703238263D+05  0.5722733521D-03
      0.4052387139D+04  0.4435323349D-02
      0.9223272271D+03  0.2302010771D-01
      0.2612407099D+03  0.9282249067D-01
      0.8535464135D+02  0.2937850001D+00
      0.3103503524D+02  0.6740160450D+00
 S   2 1.00       0.000000000000
      0.1226086073D+02  0.6383993703D+00
      0.4998707601D+01  0.3953458713D+00
 S   1 1.00       0.000000000000
      0.1170310816D+01  0.1000000000D+01
 S   1 1.00       0.000000000000
      0.4647474099D+00  0.1000000000D+01
 S   1 1.00       0.000000000000
      0.1850453636D+00  0.1000000000D+01
 P   4 1.00       0.000000000000
      0.6327495480D+02  0.1201833222D-01
      0.1462704938D+02  0.8300542179D-01
      0.4450122346D+01  0.3199174393D+00
      0.1527579965D+01  0.7071554292D+00
 P   1 1.00       0.000000000000
      0.5293511794D+00  0.1000000000D+01
 P   1 1.00       0.000000000000
      0.1747842127D+00  0.1000000000D+01
 D   1 1.00       0.000000000000
      0.2314000000D+01  0.1000000000D+01
 D   1 1.00       0.000000000000
      0.6450000000D+00  0.1000000000D+01
 F   1 1.00       0.000000000000
      0.1428000000D+01  0.1000000000D+01
 ****
      4 0
 S   5 1.00       0.000000000000
      0.5899579153D+04  0.2610056321D-03
      0.8985423877D+03  0.1669739989D-02
      0.2003723791D+03  0.4622329849D-02
      0.3141805384D+02 -0.4253426840D-01
      0.1564598784D+02  0.1036831842D+01
 S   2 1.00       0.000000000000
      0.1181574186D+02  0.6510798928D+00
      0.6461445829D+01  0.3642365936D+00
 S   1 1.00       0.000000000000
      0.2383806758D+01  0.1000000000D+01
 S   1 1.00       0.000000000000
      0.1171208966D+01  0.1000000000D+01
 S   1 1.00       0.000000000000
      0.3211587576D+00  0.1000000000D+01
 S   1 1.00       0.000000000000
      0.1238791936D+00  0.1000000000D+01
 P   4 1.00       0.000000000000
      0.1298431690D+02 -0.3868165906D-01
      0.3619950301D+01  0.3065970959D+00
      0.2023227309D+01  0.5169312450D+00
      0.1036749056D+01  0.2505722415D+00
 P   3 1.00       0.000000000000
      0.1973003055D+03  0.3192774173D-02
      0.2006141135D+02  0.2856760153D+00
      0.9763146048D+01 -0.1232820499D+01
 P   1 1.00       0.000000000000
      0.4593781600D+00  0.1000000000D+01
 P   1 1.00       0.000000000000
      0.1911653293D+00  0.1000000000D+01
 P   1 1.00       0.000000000000
      0.7487881302D-01  0.1000000000D+01
 D   6 1.00       0.000000000000
      0.1191267175D+03  0.8836386893D-03
      0.3340424013D+02  0.7315261132D-02
      0.1780591820D+02 -0.1102799620D-01
      0.4899051035D+01  0.2425357632D+00
      0.2451675311D+01  0.4726529041D+00
      0.1182069343D+01  0.3934356931D+00
 D   1 1.00       0.000000000000
      0.5292311007D+00  0.1000000000D+01
 D   1 1.00       0.000000000000
      0.1700000000D+00  0.1000000000D+01
 F   1 1.00       0.000000000000
      0.4414180800D+00  0.1000000000D+01
 F   1 1.00       0.000000000000
      0.2180000000D+01  0.1000000000D+01
 ****
      5 0
 S   3 1.00       0.000000000000
      0.3406134100D+02  0.2543930721D-01
      0.5123574600D+01  0.1900859489D+00
      0.1164662600D+01  0.8524411301D+00
 S   1 1.00       0.000000000000
      0.3272304100D+00  0.1000000000D+01
 S   1 1.00       0.000000000000
      0.1030724100D+00  0.1000000000D+01
 P   1 1.00       0.000000000000
      0.8000000000D+00  0.1000000000D+01
 ****
      6 0
 S   6 1.00       0.000000000000
      0.2703238263D+05  0.5722733521D-03
      0.4052387139D+04  0.4435323349D-02
      0.9223272271D+03  0.2302010771D-01
      0.2612407099D+03  0.9282249067D-01
      0.8535464135D+02  0.2937850001D+00
      0.3103503524D+02  0.6740160450D+00
 S   2 1.00       0.000000000000
      0.1226086073D+02  0.6383993703D+00
      0.4998707601D+01  0.3953458713D+00
 S   1 1.00       0.000000000000
      0.1170310816D+01  0.1000000000D+01
 S   1 1.00       0.000000000000
      0.4647474099D+00  0.1000000000D+01
 S   1 1.00       0.000000000000
      0.1850453636D+00  0.1000000000D+01
 P   4 1.00       0.000000000000
      0.6327495480D+02  0.1201833222D-01
      0.1462704938D+02  0.8300542179D-01
      0.4450122346D+01  0.3199174393D+00
      0.1527579965D+01  0.7071554292D+00
 P   1 1.00       0.000000000000
      0.5293511794D+00  0.1000000000D+01
 P   1 1.00       0.000000000000
      0.1747842127D+00  0.1000000000D+01
 D   1 1.00       0.000000000000
      0.2314000000D+01  0.1000000000D+01
 D   1 1.00       0.000000000000
      0.6450000000D+00  0.1000000000D+01
 F   1 1.00       0.000000000000
      0.1428000000D+01  0.1000000000D+01
 ****
      7 0
 S   3 1.00       0.000000000000
      0.3406134100D+02  0.2543930721D-01
      0.5123574600D+01  0.1900859489D+00
      0.1164662600D+01  0.8524411301D+00
 S   1 1.00       0.000000000000
      0.3272304100D+00  0.1000000000D+01
 S   1 1.00       0.000000000000
      0.1030724100D+00  0.1000000000D+01
 P   1 1.00       0.000000000000
      0.8000000000D+00  0.1000000000D+01
 ****
      8 0
 S   3 1.00       0.000000000000
      0.3406134100D+02  0.2543930721D-01
      0.5123574600D+01  0.1900859489D+00
      0.1164662600D+01  0.8524411301D+00
 S   1 1.00       0.000000000000
      0.3272304100D+00  0.1000000000D+01
 S   1 1.00       0.000000000000
      0.1030724100D+00  0.1000000000D+01
 P   1 1.00       0.000000000000
      0.8000000000D+00  0.1000000000D+01
 ****
      9 0
 S   3 1.00       0.000000000000
      0.3406134100D+02  0.2543930721D-01
      0.5123574600D+01  0.1900859489D+00
      0.1164662600D+01  0.8524411301D+00
 S   1 1.00       0.000000000000
      0.3272304100D+00  0.1000000000D+01
 S   1 1.00       0.000000000000
      0.1030724100D+00  0.1000000000D+01
 P   1 1.00       0.000000000000
      0.8000000000D+00  0.1000000000D+01
 ****
     10 0
 S   6 1.00       0.000000000000
      0.2703238263D+05  0.5722733521D-03
      0.4052387139D+04  0.4435323349D-02
      0.9223272271D+03  0.2302010771D-01
      0.2612407099D+03  0.9282249067D-01
      0.8535464135D+02  0.2937850001D+00
      0.3103503524D+02  0.6740160450D+00
 S   2 1.00       0.000000000000
      0.1226086073D+02  0.6383993703D+00
      0.4998707601D+01  0.3953458713D+00
 S   1 1.00       0.000000000000
      0.1170310816D+01  0.1000000000D+01
 S   1 1.00       0.000000000000
      0.4647474099D+00  0.1000000000D+01
 S   1 1.00       0.000000000000
      0.1850453636D+00  0.1000000000D+01
 P   4 1.00       0.000000000000
      0.6327495480D+02  0.1201833222D-01
      0.1462704938D+02  0.8300542179D-01
      0.4450122346D+01  0.3199174393D+00
      0.1527579965D+01  0.7071554292D+00
 P   1 1.00       0.000000000000
      0.5293511794D+00  0.1000000000D+01
 P   1 1.00       0.000000000000
      0.1747842127D+00  0.1000000000D+01
 D   1 1.00       0.000000000000
      0.2314000000D+01  0.1000000000D+01
 D   1 1.00       0.000000000000
      0.6450000000D+00  0.1000000000D+01
 F   1 1.00       0.000000000000
      0.1428000000D+01  0.1000000000D+01
 ****

 AO basis set (Overlap normalization):
 Atom Pa1      Shell     1 S   3     bf    1 -     1          1.430510350622         -0.102495975434         -0.137858418674
      0.1204737600D+05  0.2857094961D-01
      0.1811684100D+04  0.2270769386D+00
      0.3477010400D+03  0.8325326273D+00
 Atom Pa1      Shell     2 S   3     bf    2 -     2          1.430510350622         -0.102495975434         -0.137858418674
      0.5750737600D+02  0.9569327984D-01
      0.3350260100D+02 -0.4399944619D+00
      0.1955445100D+02  0.1335352847D+01
 Atom Pa1      Shell     3 S   1     bf    3 -     3          1.430510350622         -0.102495975434         -0.137858418674
      0.9867801000D+02  0.1000000000D+01
 Atom Pa1      Shell     4 S   1     bf    4 -     4          1.430510350622         -0.102495975434         -0.137858418674
      0.9716421000D+01  0.1000000000D+01
 Atom Pa1      Shell     5 S   1     bf    5 -     5          1.430510350622         -0.102495975434         -0.137858418674
      0.2692096000D+01  0.1000000000D+01
 Atom Pa1      Shell     6 S   1     bf    6 -     6          1.430510350622         -0.102495975434         -0.137858418674
      0.1453847000D+01  0.1000000000D+01
 Atom Pa1      Shell     7 S   1     bf    7 -     7          1.430510350622         -0.102495975434         -0.137858418674
      0.5743520000D+00  0.1000000000D+01
 Atom Pa1      Shell     8 S   1     bf    8 -     8          1.430510350622         -0.102495975434         -0.137858418674
      0.2634680000D+00  0.1000000000D+01
 Atom Pa1      Shell     9 S   1     bf    9 -     9          1.430510350622         -0.102495975434         -0.137858418674
      0.5655700000D-01  0.1000000000D+01
 Atom Pa1      Shell    10 S   1     bf   10 -    10          1.430510350622         -0.102495975434         -0.137858418674
      0.2316900000D-01  0.1000000000D+01
 Atom Pa1      Shell    11 P   5     bf   11 -    13          1.430510350622         -0.102495975434         -0.137858418674
      0.2903367600D+04  0.2594222647D-02
      0.6448635600D+03  0.1519473264D-01
      0.2202589600D+03  0.9272492945D-01
      0.8027640100D+02  0.1821144298D+00
      0.2408021100D+02  0.8294100404D+00
 Atom Pa1      Shell    12 P   1     bf   14 -    16          1.430510350622         -0.102495975434         -0.137858418674
      0.1407758000D+02  0.1000000000D+01
 Atom Pa1      Shell    13 P   1     bf   17 -    19          1.430510350622         -0.102495975434         -0.137858418674
      0.8265846000D+01  0.1000000000D+01
 Atom Pa1      Shell    14 P   1     bf   20 -    22          1.430510350622         -0.102495975434         -0.137858418674
      0.3594800000D+01  0.1000000000D+01
 Atom Pa1      Shell    15 P   1     bf   23 -    25          1.430510350622         -0.102495975434         -0.137858418674
      0.1753111000D+01  0.1000000000D+01
 Atom Pa1      Shell    16 P   1     bf   26 -    28          1.430510350622         -0.102495975434         -0.137858418674
      0.6577670000D+00  0.1000000000D+01
 Atom Pa1      Shell    17 P   1     bf   29 -    31          1.430510350622         -0.102495975434         -0.137858418674
      0.2846390000D+00  0.1000000000D+01
 Atom Pa1      Shell    18 P   1     bf   32 -    34          1.430510350622         -0.102495975434         -0.137858418674
      0.1005430000D+00  0.1000000000D+01
 Atom Pa1      Shell    19 P   1     bf   35 -    37          1.430510350622         -0.102495975434         -0.137858418674
      0.3019000000D-01  0.1000000000D+01
 Atom Pa1      Shell    20 D   6     bf   38 -    42          1.430510350622         -0.102495975434         -0.137858418674
      0.4481499100D+03  0.6556927566D-04
      0.1544614500D+03  0.5749921096D-03
      0.6092537700D+02  0.2279793277D-02
      0.1703209100D+02  0.6467904664D-01
      0.1001887700D+02 -0.2666929411D+00
      0.3409193000D+01  0.1128376621D+01
 Atom Pa1      Shell    21 D   1     bf   43 -    47          1.430510350622         -0.102495975434         -0.137858418674
      0.1670213000D+01  0.1000000000D+01
 Atom Pa1      Shell    22 D   1     bf   48 -    52          1.430510350622         -0.102495975434         -0.137858418674
      0.7410950000D+00  0.1000000000D+01
 Atom Pa1      Shell    23 D   1     bf   53 -    57          1.430510350622         -0.102495975434         -0.137858418674
      0.2613930000D+00  0.1000000000D+01
 Atom Pa1      Shell    24 D   1     bf   58 -    62          1.430510350622         -0.102495975434         -0.137858418674
      0.8281100000D-01  0.1000000000D+01
 Atom Pa1      Shell    25 F   5     bf   63 -    69          1.430510350622         -0.102495975434         -0.137858418674
      0.8799132700D+02  0.4766318191D-03
      0.2834019500D+02  0.4899184583D-02
      0.1244099400D+02  0.9669720755D-02
      0.3957296000D+01  0.3310292343D+00
      0.1875944000D+01  0.7275531640D+00
 Atom Pa1      Shell    26 F   1     bf   70 -    76          1.430510350622         -0.102495975434         -0.137858418674
      0.8275890000D+00  0.1000000000D+01
 Atom Pa1      Shell    27 F   1     bf   77 -    83          1.430510350622         -0.102495975434         -0.137858418674
      0.3327480000D+00  0.1000000000D+01
 Atom Pa1      Shell    28 F   1     bf   84 -    90          1.430510350622         -0.102495975434         -0.137858418674
      0.1146850000D+00  0.1000000000D+01
 Atom Pa1      Shell    29 G   1     bf   91 -    99          1.430510350622         -0.102495975434         -0.137858418674
      0.3500000000D+00  0.1000000000D+01
 Atom O2       Shell    30 S   6     bf  100 -   100          1.903985897812          0.377174349274          3.832479930373
      0.2703238263D+05  0.5722733521D-03
      0.4052387139D+04  0.4435323349D-02
      0.9223272271D+03  0.2302010771D-01
      0.2612407099D+03  0.9282249067D-01
      0.8535464135D+02  0.2937850001D+00
      0.3103503524D+02  0.6740160450D+00
 Atom O2       Shell    31 S   2     bf  101 -   101          1.903985897812          0.377174349274          3.832479930373
      0.1226086073D+02  0.6383993703D+00
      0.4998707601D+01  0.3953458713D+00
 Atom O2       Shell    32 S   1     bf  102 -   102          1.903985897812          0.377174349274          3.832479930373
      0.1170310816D+01  0.1000000000D+01
 Atom O2       Shell    33 S   1     bf  103 -   103          1.903985897812          0.377174349274          3.832479930373
      0.4647474099D+00  0.1000000000D+01
 Atom O2       Shell    34 S   1     bf  104 -   104          1.903985897812          0.377174349274          3.832479930373
      0.1850453636D+00  0.1000000000D+01
 Atom O2       Shell    35 P   4     bf  105 -   107          1.903985897812          0.377174349274          3.832479930373
      0.6327495480D+02  0.1201833222D-01
      0.1462704938D+02  0.8300542179D-01
      0.4450122346D+01  0.3199174393D+00
      0.1527579965D+01  0.7071554292D+00
 Atom O2       Shell    36 P   1     bf  108 -   110          1.903985897812          0.377174349274          3.832479930373
      0.5293511794D+00  0.1000000000D+01
 Atom O2       Shell    37 P   1     bf  111 -   113          1.903985897812          0.377174349274          3.832479930373
      0.1747842127D+00  0.1000000000D+01
 Atom O2       Shell    38 D   1     bf  114 -   118          1.903985897812          0.377174349274          3.832479930373
      0.2314000000D+01  0.1000000000D+01
 Atom O2       Shell    39 D   1     bf  119 -   123          1.903985897812          0.377174349274          3.832479930373
      0.6450000000D+00  0.1000000000D+01
 Atom O2       Shell    40 F   1     bf  124 -   130          1.903985897812          0.377174349274          3.832479930373
      0.1428000000D+01  0.1000000000D+01
 Atom O3       Shell    41 S   6     bf  131 -   131          1.703246032260          3.821730467552         -0.514641701315
      0.2703238263D+05  0.5722733521D-03
      0.4052387139D+04  0.4435323349D-02
      0.9223272271D+03  0.2302010771D-01
      0.2612407099D+03  0.9282249067D-01
      0.8535464135D+02  0.2937850001D+00
      0.3103503524D+02  0.6740160450D+00
 Atom O3       Shell    42 S   2     bf  132 -   132          1.703246032260          3.821730467552         -0.514641701315
      0.1226086073D+02  0.6383993703D+00
      0.4998707601D+01  0.3953458713D+00
 Atom O3       Shell    43 S   1     bf  133 -   133          1.703246032260          3.821730467552         -0.514641701315
      0.1170310816D+01  0.1000000000D+01
 Atom O3       Shell    44 S   1     bf  134 -   134          1.703246032260          3.821730467552         -0.514641701315
      0.4647474099D+00  0.1000000000D+01
 Atom O3       Shell    45 S   1     bf  135 -   135          1.703246032260          3.821730467552         -0.514641701315
      0.1850453636D+00  0.1000000000D+01
 Atom O3       Shell    46 P   4     bf  136 -   138          1.703246032260          3.821730467552         -0.514641701315
      0.6327495480D+02  0.1201833222D-01
      0.1462704938D+02  0.8300542179D-01
      0.4450122346D+01  0.3199174393D+00
      0.1527579965D+01  0.7071554292D+00
 Atom O3       Shell    47 P   1     bf  139 -   141          1.703246032260          3.821730467552         -0.514641701315
      0.5293511794D+00  0.1000000000D+01
 Atom O3       Shell    48 P   1     bf  142 -   144          1.703246032260          3.821730467552         -0.514641701315
      0.1747842127D+00  0.1000000000D+01
 Atom O3       Shell    49 D   1     bf  145 -   149          1.703246032260          3.821730467552         -0.514641701315
      0.2314000000D+01  0.1000000000D+01
 Atom O3       Shell    50 D   1     bf  150 -   154          1.703246032260          3.821730467552         -0.514641701315
      0.6450000000D+00  0.1000000000D+01
 Atom O3       Shell    51 F   1     bf  155 -   161          1.703246032260          3.821730467552         -0.514641701315
      0.1428000000D+01  0.1000000000D+01
 Atom I4       Shell    52 S   5     bf  162 -   162         -4.502204169132          0.008855472656         -0.128892151977
      0.5899579153D+04  0.2610056321D-03
      0.8985423877D+03  0.1669739989D-02
      0.2003723791D+03  0.4622329849D-02
      0.3141805384D+02 -0.4253426840D-01
      0.1564598784D+02  0.1036831842D+01
 Atom I4       Shell    53 S   2     bf  163 -   163         -4.502204169132          0.008855472656         -0.128892151977
      0.1181574186D+02  0.6510798928D+00
      0.6461445829D+01  0.3642365936D+00
 Atom I4       Shell    54 S   1     bf  164 -   164         -4.502204169132          0.008855472656         -0.128892151977
      0.2383806758D+01  0.1000000000D+01
 Atom I4       Shell    55 S   1     bf  165 -   165         -4.502204169132          0.008855472656         -0.128892151977
      0.1171208966D+01  0.1000000000D+01
 Atom I4       Shell    56 S   1     bf  166 -   166         -4.502204169132          0.008855472656         -0.128892151977
      0.3211587576D+00  0.1000000000D+01
 Atom I4       Shell    57 S   1     bf  167 -   167         -4.502204169132          0.008855472656         -0.128892151977
      0.1238791936D+00  0.1000000000D+01
 Atom I4       Shell    58 P   4     bf  168 -   170         -4.502204169132          0.008855472656         -0.128892151977
      0.1298431690D+02 -0.3868165906D-01
      0.3619950301D+01  0.3065970959D+00
      0.2023227309D+01  0.5169312450D+00
      0.1036749056D+01  0.2505722415D+00
 Atom I4       Shell    59 P   3     bf  171 -   173         -4.502204169132          0.008855472656         -0.128892151977
      0.1973003055D+03  0.3192774173D-02
      0.2006141135D+02  0.2856760153D+00
      0.9763146048D+01 -0.1232820499D+01
 Atom I4       Shell    60 P   1     bf  174 -   176         -4.502204169132          0.008855472656         -0.128892151977
      0.4593781600D+00  0.1000000000D+01
 Atom I4       Shell    61 P   1     bf  177 -   179         -4.502204169132          0.008855472656         -0.128892151977
      0.1911653293D+00  0.1000000000D+01
 Atom I4       Shell    62 P   1     bf  180 -   182         -4.502204169132          0.008855472656         -0.128892151977
      0.7487881302D-01  0.1000000000D+01
 Atom I4       Shell    63 D   6     bf  183 -   187         -4.502204169132          0.008855472656         -0.128892151977
      0.1191267175D+03  0.8836386893D-03
      0.3340424013D+02  0.7315261132D-02
      0.1780591820D+02 -0.1102799620D-01
      0.4899051035D+01  0.2425357632D+00
      0.2451675311D+01  0.4726529041D+00
      0.1182069343D+01  0.3934356931D+00
 Atom I4       Shell    64 D   1     bf  188 -   192         -4.502204169132          0.008855472656         -0.128892151977
      0.5292311007D+00  0.1000000000D+01
 Atom I4       Shell    65 D   1     bf  193 -   197         -4.502204169132          0.008855472656         -0.128892151977
      0.1700000000D+00  0.1000000000D+01
 Atom I4       Shell    66 F   1     bf  198 -   204         -4.502204169132          0.008855472656         -0.128892151977
      0.4414180800D+00  0.1000000000D+01
 Atom I4       Shell    67 F   1     bf  205 -   211         -4.502204169132          0.008855472656         -0.128892151977
      0.2180000000D+01  0.1000000000D+01
 Atom H5       Shell    68 S   3     bf  212 -   212          1.804012889260          5.198927521801          0.683263601876
      0.3406134100D+02  0.2543930721D-01
      0.5123574600D+01  0.1900859489D+00
      0.1164662600D+01  0.8524411301D+00
 Atom H5       Shell    69 S   1     bf  213 -   213          1.804012889260          5.198927521801          0.683263601876
      0.3272304100D+00  0.1000000000D+01
 Atom H5       Shell    70 S   1     bf  214 -   214          1.804012889260          5.198927521801          0.683263601876
      0.1030724100D+00  0.1000000000D+01
 Atom H5       Shell    71 P   1     bf  215 -   217          1.804012889260          5.198927521801          0.683263601876
      0.8000000000D+00  0.1000000000D+01
 Atom O6       Shell    72 S   6     bf  218 -   218          6.017024377159         -0.029934535925         -1.156731436818
      0.2703238263D+05  0.5722733521D-03
      0.4052387139D+04  0.4435323349D-02
      0.9223272271D+03  0.2302010771D-01
      0.2612407099D+03  0.9282249067D-01
      0.8535464135D+02  0.2937850001D+00
      0.3103503524D+02  0.6740160450D+00
 Atom O6       Shell    73 S   2     bf  219 -   219          6.017024377159         -0.029934535925         -1.156731436818
      0.1226086073D+02  0.6383993703D+00
      0.4998707601D+01  0.3953458713D+00
 Atom O6       Shell    74 S   1     bf  220 -   220          6.017024377159         -0.029934535925         -1.156731436818
      0.1170310816D+01  0.1000000000D+01
 Atom O6       Shell    75 S   1     bf  221 -   221          6.017024377159         -0.029934535925         -1.156731436818
      0.4647474099D+00  0.1000000000D+01
 Atom O6       Shell    76 S   1     bf  222 -   222          6.017024377159         -0.029934535925         -1.156731436818
      0.1850453636D+00  0.1000000000D+01
 Atom O6       Shell    77 P   4     bf  223 -   225          6.017024377159         -0.029934535925         -1.156731436818
      0.6327495480D+02  0.1201833222D-01
      0.1462704938D+02  0.8300542179D-01
      0.4450122346D+01  0.3199174393D+00
      0.1527579965D+01  0.7071554292D+00
 Atom O6       Shell    78 P   1     bf  226 -   228          6.017024377159         -0.029934535925         -1.156731436818
      0.5293511794D+00  0.1000000000D+01
 Atom O6       Shell    79 P   1     bf  229 -   231          6.017024377159         -0.029934535925         -1.156731436818
      0.1747842127D+00  0.1000000000D+01
 Atom O6       Shell    80 D   1     bf  232 -   236          6.017024377159         -0.029934535925         -1.156731436818
      0.2314000000D+01  0.1000000000D+01
 Atom O6       Shell    81 D   1     bf  237 -   241          6.017024377159         -0.029934535925         -1.156731436818
      0.6450000000D+00  0.1000000000D+01
 Atom O6       Shell    82 F   1     bf  242 -   248          6.017024377159         -0.029934535925         -1.156731436818
      0.1428000000D+01  0.1000000000D+01
 Atom H7       Shell    83 S   3     bf  249 -   249          7.053366602083          1.457983312187         -1.372024518664
      0.3406134100D+02  0.2543930721D-01
      0.5123574600D+01  0.1900859489D+00
      0.1164662600D+01  0.8524411301D+00
 Atom H7       Shell    84 S   1     bf  250 -   250          7.053366602083          1.457983312187         -1.372024518664
      0.3272304100D+00  0.1000000000D+01
 Atom H7       Shell    85 S   1     bf  251 -   251          7.053366602083          1.457983312187         -1.372024518664
      0.1030724100D+00  0.1000000000D+01
 Atom H7       Shell    86 P   1     bf  252 -   254          7.053366602083          1.457983312187         -1.372024518664
      0.8000000000D+00  0.1000000000D+01
 Atom H8       Shell    87 S   3     bf  255 -   255          7.117972565626         -1.483650077194         -1.244908649676
      0.3406134100D+02  0.2543930721D-01
      0.5123574600D+01  0.1900859489D+00
      0.1164662600D+01  0.8524411301D+00
 Atom H8       Shell    88 S   1     bf  256 -   256          7.117972565626         -1.483650077194         -1.244908649676
      0.3272304100D+00  0.1000000000D+01
 Atom H8       Shell    89 S   1     bf  257 -   257          7.117972565626         -1.483650077194         -1.244908649676
      0.1030724100D+00  0.1000000000D+01
 Atom H8       Shell    90 P   1     bf  258 -   260          7.117972565626         -1.483650077194         -1.244908649676
      0.8000000000D+00  0.1000000000D+01
 Atom H9       Shell    91 S   3     bf  261 -   261          2.081218150266         -0.909716225866          5.111519691556
      0.3406134100D+02  0.2543930721D-01
      0.5123574600D+01  0.1900859489D+00
      0.1164662600D+01  0.8524411301D+00
 Atom H9       Shell    92 S   1     bf  262 -   262          2.081218150266         -0.909716225866          5.111519691556
      0.3272304100D+00  0.1000000000D+01
 Atom H9       Shell    93 S   1     bf  263 -   263          2.081218150266         -0.909716225866          5.111519691556
      0.1030724100D+00  0.1000000000D+01
 Atom H9       Shell    94 P   1     bf  264 -   266          2.081218150266         -0.909716225866          5.111519691556
      0.8000000000D+00  0.1000000000D+01
 Atom O10      Shell    95 S   6     bf  267 -   267          1.673719799038         -3.594689133054         -0.136288038611
      0.2703238263D+05  0.5722733521D-03
      0.4052387139D+04  0.4435323349D-02
      0.9223272271D+03  0.2302010771D-01
      0.2612407099D+03  0.9282249067D-01
      0.8535464135D+02  0.2937850001D+00
      0.3103503524D+02  0.6740160450D+00
 Atom O10      Shell    96 S   2     bf  268 -   268          1.673719799038         -3.594689133054         -0.136288038611
      0.1226086073D+02  0.6383993703D+00
      0.4998707601D+01  0.3953458713D+00
 Atom O10      Shell    97 S   1     bf  269 -   269          1.673719799038         -3.594689133054         -0.136288038611
      0.1170310816D+01  0.1000000000D+01
 Atom O10      Shell    98 S   1     bf  270 -   270          1.673719799038         -3.594689133054         -0.136288038611
      0.4647474099D+00  0.1000000000D+01
 Atom O10      Shell    99 S   1     bf  271 -   271          1.673719799038         -3.594689133054         -0.136288038611
      0.1850453636D+00  0.1000000000D+01
 Atom O10      Shell   100 P   4     bf  272 -   274          1.673719799038         -3.594689133054         -0.136288038611
      0.6327495480D+02  0.1201833222D-01
      0.1462704938D+02  0.8300542179D-01
      0.4450122346D+01  0.3199174393D+00
      0.1527579965D+01  0.7071554292D+00
 Atom O10      Shell   101 P   1     bf  275 -   277          1.673719799038         -3.594689133054         -0.136288038611
      0.5293511794D+00  0.1000000000D+01
 Atom O10      Shell   102 P   1     bf  278 -   280          1.673719799038         -3.594689133054         -0.136288038611
      0.1747842127D+00  0.1000000000D+01
 Atom O10      Shell   103 D   1     bf  281 -   285          1.673719799038         -3.594689133054         -0.136288038611
      0.2314000000D+01  0.1000000000D+01
 Atom O10      Shell   104 D   1     bf  286 -   290          1.673719799038         -3.594689133054         -0.136288038611
      0.6450000000D+00  0.1000000000D+01
 Atom O10      Shell   105 F   1     bf  291 -   297          1.673719799038         -3.594689133054         -0.136288038611
      0.1428000000D+01  0.1000000000D+01
 Effective core potential in the form of general ECP input:
      1 0
 Pa1-ECP   5 60
 H component
  1
  2        1.0000000        0.00000000    0.00000000
 S-H projection
  1
  2       15.2691737      475.47573283    0.00000000
 P-H projection
  1
  2        9.9577370      207.66485962    0.00000000
 D-H projection
  1
  2        8.9431413      156.67411988    0.00000000
 F-H projection
  1
  2        7.0104666       67.98223685    0.00000000
 G-H projection
  1
  2       12.2010560      -57.63059989    0.00000000
      4 0
 I4-ECP   4 28
 G component
  1
  2        1.0000000        0.00000000    0.00000000
 S-G projection
  3
  2       40.0158350       49.99429300    0.00000000
  2       17.4297470      281.02531700    0.00000000
  2        9.0054840       61.57332600    0.00000000
 P-G projection
  4
  2       15.3554660       67.44284100    0.00000000
  2       14.9718330      134.88113700    0.00000000
  2        8.9601640       14.67505100    0.00000000
  2        8.2590960       29.37566600    0.00000000
 D-G projection
  6
  2       15.0689080       35.43952900    0.00000000
  2       14.5553220       53.17605700    0.00000000
  2        6.7186470        9.06719500    0.00000000
  2        6.4563930       13.20693700    0.00000000
  2        1.1917790        0.08933500    0.00000000
  2        1.2911570        0.05238000    0.00000000
 F-G projection
  4
  2       19.4586090      -21.84204000    0.00000000
  2       19.3492600      -28.46819100    0.00000000
  2        4.8237670       -0.24371300    0.00000000
  2        4.8843150       -0.32080400    0.00000000
 
 There are   349 symmetry adapted cartesian basis functions of A   symmetry.
 There are   297 symmetry adapted basis functions of A   symmetry.
   297 basis functions,   553 primitive gaussians,   349 cartesian basis functions
    46 alpha electrons       46 beta electrons
       nuclear repulsion energy       607.6732517469 Hartrees.
 IExCor=  404 DFT=T Ex=B Corr=P86 ExCW=0 ScaHFX=  0.000000
 ScaDFX=  1.000000  1.000000  1.000000  1.000000 ScalE2=  1.000000  1.000000
 IRadAn=      5 IRanWt=     -1 IRanGd=            0 ICorTp=0 IEmpDi=  4
 NAtoms=   10 NActive=   10 NUniq=   10 SFac= 1.00D+00 NAtFMM=   60 NAOKFM=F Big=F
 Integral buffers will be    131072 words long.
 Raffenetti 2 integral format.
 Two-electron integral symmetry is turned on.
 Leave Link  301 at Tue Jun 27 18:50:54 2023, MaxMem=  2147483648 cpu:               1.1 elap:               0.2
 (Enter /home/pcmt/gaussian/g16.C.01/g16/l302.exe)
 NPDir=0 NMtPBC=     1 NCelOv=     1 NCel=       1 NClECP=     1 NCelD=      1
         NCelK=      1 NCelE2=     1 NClLst=     1 CellRange=     0.0.
 One-electron integrals computed using PRISM.
 One-electron integral symmetry used in STVInt
   1 Symmetry operations used in ECPInt.
 ECPInt:  NShTT=    5565 NPrTT=   16647 LenC2=    5270 LenP2D=   12002.
 LDataN:  DoStor=T MaxTD1= 9 Len=  602
 NBasis=   297 RedAO= T EigKep=  6.07D-04  NBF=   297
 NBsUse=   297 1.00D-06 EigRej= -1.00D+00 NBFU=   297
 Precomputing XC quadrature grid using
 IXCGrd= 4 IRadAn=           5 IRanWt=          -1 IRanGd=           0 AccXCQ= 0.00D+00.
 Defaulting to unpruned grid for atomic number  91.
 Defaulting to unpruned grid for atomic number  53.
 Generated NRdTot=       0 NPtTot=           0 NUsed=           0 NTot=          32
 NSgBfM=   344   344   344   344   344 MxSgAt=    10 MxSgA2=    10.
 Leave Link  302 at Tue Jun 27 18:50:56 2023, MaxMem=  2147483648 cpu:               7.9 elap:               1.3
 (Enter /home/pcmt/gaussian/g16.C.01/g16/l303.exe)
 DipDrv:  MaxL=1.
 Leave Link  303 at Tue Jun 27 18:50:56 2023, MaxMem=  2147483648 cpu:               0.4 elap:               0.1
 (Enter /home/pcmt/gaussian/g16.C.01/g16/l401.exe)
 ExpMin= 2.32D-02 ExpMax= 2.70D+04 ExpMxC= 1.20D+04 IAcc=3 IRadAn=         5 AccDes= 0.00D+00
 Harris functional with IExCor=  404 and IRadAn=       5 diagonalized for initial guess.
 HarFok:  IExCor=  404 AccDes= 0.00D+00 IRadAn=         5 IDoV= 1 UseB2=F ITyADJ=14
 ICtDFT=  3500011 ScaDFX=  1.000000  1.000000  1.000000  1.000000
 Defaulting to unpruned grid for atomic number  91.
 FoFCou: FMM=F IPFlag=           0 FMFlag=      100000 FMFlg1=           0
         NFxFlg=           0 DoJE=T BraDBF=F KetDBF=T FulRan=T
         wScrn=  0.000000 ICntrl=       500 IOpCl=  0 I1Cent=   200000004 NGrid=           0
         NMat0=    1 NMatS0=      1 NMatT0=    0 NMatD0=    1 NMtDS0=    0 NMtDT0=    0
 Petite list used in FoFCou.
 Harris En= -1044.84347043015    
 JPrj=0 DoOrth=F DoCkMO=F.
 Leave Link  401 at Tue Jun 27 18:50:58 2023, MaxMem=  2147483648 cpu:              15.1 elap:               1.9
 (Enter /home/pcmt/gaussian/g16.C.01/g16/l502.exe)
 Keep J ints in memory in canonical form, NReq=1000625184.
 FoFCou: FMM=F IPFlag=           0 FMFlag=           0 FMFlg1=           0
         NFxFlg=           0 DoJE=F BraDBF=F KetDBF=F FulRan=T
         wScrn=  0.000000 ICntrl=       600 IOpCl=  0 I1Cent=           0 NGrid=           0
         NMat0=    1 NMatS0=  44253 NMatT0=    0 NMatD0=    1 NMtDS0=    0 NMtDT0=    0
 Symmetry not used in FoFCou.
 Two-electron integral symmetry not used.
 Closed shell SCF:
 Using DIIS extrapolation, IDIIS=  1040.
 NGot=  2147483648 LenX=  1168047921 LenY=  1167925679
 Requested convergence on RMS density matrix=1.00D-08 within 100 cycles.
 Requested convergence on MAX density matrix=1.00D-06.
 Requested convergence on             energy=1.00D-06.
 No special actions if energy rises.

 Cycle   1  Pass 1  IDiag  1:
 Defaulting to unpruned grid for atomic number  91.
 Defaulting to unpruned grid for atomic number  91.
 Defaulting to unpruned grid for atomic number  91.
 Defaulting to unpruned grid for atomic number  91.
 Defaulting to unpruned grid for atomic number  91.
 Defaulting to unpruned grid for atomic number  91.
 Defaulting to unpruned grid for atomic number  91.
 Defaulting to unpruned grid for atomic number  91.
 E= -1042.14190825209    
 DIIS: error= 4.99D-02 at cycle   1 NSaved=   1.
 NSaved= 1 IEnMin= 1 EnMin= -1042.14190825209     IErMin= 1 ErrMin= 4.99D-02
 ErrMax= 4.99D-02  0.00D+00 EMaxC= 1.00D-01 BMatC= 1.50D+00 BMatP= 1.50D+00
 IDIUse=3 WtCom= 5.01D-01 WtEn= 4.99D-01
 Coeff-Com:  0.100D+01
 Coeff-En:   0.100D+01
 Coeff:      0.100D+01
 Gap=     0.083 Goal=   None    Shift=    0.000
 GapD=    0.083 DampG=0.500 DampE=0.250 DampFc=0.1250 IDamp=-1.
 Damping current iteration by 1.25D-01
 RMSDP=1.37D-02 MaxDP=1.32D+00              OVMax= 9.97D-01

 Cycle   2  Pass 1  IDiag  1:
 E= -1042.20486178005     Delta-E=       -0.062953527966 Rises=F Damp=T
 DIIS: error= 2.04D-02 at cycle   2 NSaved=   2.
 NSaved= 2 IEnMin= 2 EnMin= -1042.20486178005     IErMin= 2 ErrMin= 2.04D-02
 ErrMax= 2.04D-02  0.00D+00 EMaxC= 1.00D-01 BMatC= 2.26D-01 BMatP= 1.50D+00
 IDIUse=3 WtCom= 7.96D-01 WtEn= 2.04D-01
 Coeff-Com: -0.303D-01 0.103D+01
 Coeff-En:   0.473D+00 0.527D+00
 Coeff:      0.722D-01 0.928D+00
 Gap=     0.018 Goal=   None    Shift=    0.000
 RMSDP=1.31D-02 MaxDP=1.31D+00 DE=-6.30D-02 OVMax= 9.74D-01

 Cycle   3  Pass 1  IDiag  1:
 E= -1040.80115028942     Delta-E=        1.403711490628 Rises=F Damp=F
 DIIS: error= 5.68D-02 at cycle   3 NSaved=   3.
 NSaved= 3 IEnMin= 2 EnMin= -1042.20486178005     IErMin= 2 ErrMin= 2.04D-02
 ErrMax= 5.68D-02  0.00D+00 EMaxC= 1.00D-01 BMatC= 1.93D+00 BMatP= 2.26D-01
 IDIUse=2 WtCom= 0.00D+00 WtEn= 1.00D+00
 EnCoef did     3 forward-backward iterations
 Coeff-En:   0.347D+00 0.477D+00 0.176D+00
 Coeff:      0.347D+00 0.477D+00 0.176D+00
 Gap=    -0.140 Goal=   None    Shift=    0.000
 RMSDP=1.46D-02 MaxDP=1.31D+00 DE= 1.40D+00 OVMax= 9.34D-01

 Cycle   4  Pass 1  IDiag  1:
 E= -1019.54265282917     Delta-E=       21.258497460250 Rises=F Damp=F
 DIIS: error= 4.08D-01 at cycle   4 NSaved=   4.
 NSaved= 4 IEnMin= 2 EnMin= -1042.20486178005     IErMin= 2 ErrMin= 2.04D-02
 ErrMax= 4.08D-01  0.00D+00 EMaxC= 1.00D-01 BMatC= 4.54D+01 BMatP= 2.26D-01
 IDIUse=2 WtCom= 0.00D+00 WtEn= 1.00D+00
 EnCoef did   100 forward-backward iterations
 Coeff-En:   0.685D+00 0.106D-01 0.190D+00 0.114D+00
 Coeff:      0.685D+00 0.106D-01 0.190D+00 0.114D+00
 Gap=     0.027 Goal=   None    Shift=    0.000
 RMSDP=5.34D-03 MaxDP=2.81D-01 DE= 2.13D+01 OVMax= 8.38D-01

 Cycle   5  Pass 1  IDiag  1:
 E= -1042.21521428755     Delta-E=      -22.672561458373 Rises=F Damp=F
 DIIS: error= 6.48D-02 at cycle   5 NSaved=   5.
 NSaved= 5 IEnMin= 5 EnMin= -1042.21521428755     IErMin= 2 ErrMin= 2.04D-02
 ErrMax= 6.48D-02  0.00D+00 EMaxC= 1.00D-01 BMatC= 1.62D+00 BMatP= 2.26D-01
 IDIUse=2 WtCom= 0.00D+00 WtEn= 1.00D+00
 EnCoef did   100 forward-backward iterations
 Coeff-En:   0.486D+00 0.678D-02 0.237D-04 0.000D+00 0.507D+00
 Coeff:      0.486D+00 0.678D-02 0.237D-04 0.000D+00 0.507D+00
 Gap=     0.133 Goal=   None    Shift=    0.000
 RMSDP=2.32D-03 MaxDP=9.09D-02 DE=-2.27D+01 OVMax= 2.64D-01

 Cycle   6  Pass 1  IDiag  1:
 E= -1043.11130174581     Delta-E=       -0.896087458262 Rises=F Damp=F
 DIIS: error= 1.42D-02 at cycle   6 NSaved=   6.
 NSaved= 6 IEnMin= 6 EnMin= -1043.11130174581     IErMin= 6 ErrMin= 1.42D-02
 ErrMax= 1.42D-02  0.00D+00 EMaxC= 1.00D-01 BMatC= 8.88D-02 BMatP= 2.26D-01
 IDIUse=3 WtCom= 8.58D-01 WtEn= 1.42D-01
 Coeff-Com:  0.444D-01 0.250D+00 0.273D-01-0.164D-01 0.206D+00 0.488D+00
 Coeff-En:   0.000D+00 0.000D+00 0.000D+00 0.000D+00 0.122D+00 0.878D+00
 Coeff:      0.381D-01 0.215D+00 0.234D-01-0.141D-01 0.194D+00 0.544D+00
 Gap=     0.121 Goal=   None    Shift=    0.000
 RMSDP=1.22D-03 MaxDP=7.37D-02 DE=-8.96D-01 OVMax= 1.02D-01

 Cycle   7  Pass 1  IDiag  1:
 E= -1043.13404229585     Delta-E=       -0.022740550043 Rises=F Damp=F
 DIIS: error= 1.14D-02 at cycle   7 NSaved=   7.
 NSaved= 7 IEnMin= 7 EnMin= -1043.13404229585     IErMin= 7 ErrMin= 1.14D-02
 ErrMax= 1.14D-02  0.00D+00 EMaxC= 1.00D-01 BMatC= 7.58D-02 BMatP= 8.88D-02
 IDIUse=3 WtCom= 8.86D-01 WtEn= 1.14D-01
 EnCoef did     5 forward-backward iterations
 Coeff-Com: -0.446D-01 0.151D+00 0.202D-02-0.489D-02 0.985D-01 0.404D+00
 Coeff-Com:  0.394D+00
 Coeff-En:   0.000D+00 0.000D+00 0.000D+00 0.000D+00 0.689D-01 0.400D+00
 Coeff-En:   0.531D+00
 Coeff:     -0.395D-01 0.134D+00 0.179D-02-0.433D-02 0.951D-01 0.403D+00
 Coeff:      0.410D+00
 Gap=     0.092 Goal=   None    Shift=    0.000
 RMSDP=5.67D-04 MaxDP=2.26D-02 DE=-2.27D-02 OVMax= 5.48D-02

 Cycle   8  Pass 1  IDiag  1:
 E= -1043.18432941390     Delta-E=       -0.050287118048 Rises=F Damp=F
 DIIS: error= 3.11D-03 at cycle   8 NSaved=   8.
 NSaved= 8 IEnMin= 8 EnMin= -1043.18432941390     IErMin= 8 ErrMin= 3.11D-03
 ErrMax= 3.11D-03  0.00D+00 EMaxC= 1.00D-01 BMatC= 9.61D-03 BMatP= 7.58D-02
 IDIUse=3 WtCom= 9.69D-01 WtEn= 3.11D-02
 Coeff-Com: -0.398D-01 0.713D-01-0.127D-01-0.871D-03 0.521D-01 0.236D+00
 Coeff-Com:  0.286D+00 0.408D+00
 Coeff-En:   0.000D+00 0.000D+00 0.000D+00 0.000D+00 0.000D+00 0.000D+00
 Coeff-En:   0.000D+00 0.100D+01
 Coeff:     -0.386D-01 0.691D-01-0.123D-01-0.843D-03 0.505D-01 0.229D+00
 Coeff:      0.277D+00 0.426D+00
 Gap=     0.081 Goal=   None    Shift=    0.000
 RMSDP=2.58D-04 MaxDP=1.20D-02 DE=-5.03D-02 OVMax= 2.20D-02

 Cycle   9  Pass 1  IDiag  1:
 E= -1043.19071899971     Delta-E=       -0.006389585806 Rises=F Damp=F
 DIIS: error= 1.97D-03 at cycle   9 NSaved=   9.
 NSaved= 9 IEnMin= 9 EnMin= -1043.19071899971     IErMin= 9 ErrMin= 1.97D-03
 ErrMax= 1.97D-03  0.00D+00 EMaxC= 1.00D-01 BMatC= 3.16D-03 BMatP= 9.61D-03
 IDIUse=3 WtCom= 9.80D-01 WtEn= 1.97D-02
 Coeff-Com: -0.194D-01 0.220D-01-0.773D-02 0.129D-02 0.108D-01 0.170D-02
 Coeff-Com:  0.260D-01 0.268D+00 0.697D+00
 Coeff-En:   0.000D+00 0.000D+00 0.000D+00 0.000D+00 0.000D+00 0.000D+00
 Coeff-En:   0.000D+00 0.344D-01 0.966D+00
 Coeff:     -0.190D-01 0.215D-01-0.758D-02 0.126D-02 0.106D-01 0.166D-02
 Coeff:      0.255D-01 0.264D+00 0.703D+00
 Gap=     0.072 Goal=   None    Shift=    0.000
 RMSDP=2.51D-04 MaxDP=1.71D-02 DE=-6.39D-03 OVMax= 2.58D-02

 Cycle  10  Pass 1  IDiag  1:
 E= -1043.19401387391     Delta-E=       -0.003294874207 Rises=F Damp=F
 DIIS: error= 1.05D-03 at cycle  10 NSaved=  10.
 NSaved=10 IEnMin=10 EnMin= -1043.19401387391     IErMin=10 ErrMin= 1.05D-03
 ErrMax= 1.05D-03  0.00D+00 EMaxC= 1.00D-01 BMatC= 1.27D-03 BMatP= 3.16D-03
 IDIUse=3 WtCom= 9.90D-01 WtEn= 1.05D-02
 Coeff-Com:  0.215D-02-0.915D-02-0.314D-02 0.904D-03 0.191D-03-0.753D-01
 Coeff-Com: -0.756D-01 0.938D-01 0.612D+00 0.454D+00
 Coeff-En:   0.000D+00 0.000D+00 0.000D+00 0.000D+00 0.000D+00 0.000D+00
 Coeff-En:   0.000D+00 0.000D+00 0.000D+00 0.100D+01
 Coeff:      0.212D-02-0.906D-02-0.311D-02 0.895D-03 0.189D-03-0.745D-01
 Coeff:     -0.748D-01 0.928D-01 0.605D+00 0.460D+00
 Gap=     0.069 Goal=   None    Shift=    0.000
 RMSDP=2.87D-04 MaxDP=1.63D-02 DE=-3.29D-03 OVMax= 3.49D-02

 Cycle  11  Pass 1  IDiag  1:
 E= -1043.19527994168     Delta-E=       -0.001266067770 Rises=F Damp=F
 DIIS: error= 2.04D-03 at cycle  11 NSaved=  11.
 NSaved=11 IEnMin=11 EnMin= -1043.19527994168     IErMin=10 ErrMin= 1.05D-03
 ErrMax= 2.04D-03  0.00D+00 EMaxC= 1.00D-01 BMatC= 3.62D-03 BMatP= 1.27D-03
 IDIUse=3 WtCom= 9.90D-01 WtEn= 1.05D-02
 Coeff-Com:  0.610D-02-0.828D-02 0.876D-05 0.626D-03-0.125D-02-0.677D-01
 Coeff-Com: -0.578D-01 0.105D+00 0.542D+00 0.257D+00 0.225D+00
 Coeff-En:   0.000D+00 0.000D+00 0.000D+00 0.000D+00 0.000D+00 0.000D+00
 Coeff-En:   0.000D+00 0.000D+00 0.000D+00 0.110D+00 0.890D+00
 Coeff:      0.604D-02-0.819D-02 0.867D-05 0.619D-03-0.124D-02-0.670D-01
 Coeff:     -0.572D-01 0.103D+00 0.536D+00 0.256D+00 0.232D+00
 Gap=     0.068 Goal=   None    Shift=    0.000
 RMSDP=4.43D-05 MaxDP=5.28D-03 DE=-1.27D-03 OVMax= 3.11D-03

 Cycle  12  Pass 1  IDiag  1:
 E= -1043.19534892864     Delta-E=       -0.000068986955 Rises=F Damp=F
 DIIS: error= 1.88D-03 at cycle  12 NSaved=  12.
 NSaved=12 IEnMin=12 EnMin= -1043.19534892864     IErMin=10 ErrMin= 1.05D-03
 ErrMax= 1.88D-03  0.00D+00 EMaxC= 1.00D-01 BMatC= 2.59D-03 BMatP= 1.27D-03
 IDIUse=3 WtCom= 9.90D-01 WtEn= 1.05D-02
 Coeff-Com:  0.265D-03-0.243D-02 0.267D-02 0.243D-03-0.133D-01 0.390D-01
 Coeff-Com:  0.832D-01 0.232D+00 0.179D+00-0.937D+00-0.181D+01 0.323D+01
 Coeff-En:   0.000D+00 0.000D+00 0.000D+00 0.000D+00 0.000D+00 0.000D+00
 Coeff-En:   0.000D+00 0.000D+00 0.000D+00 0.000D+00 0.000D+00 0.100D+01
 Coeff:      0.262D-03-0.240D-02 0.265D-02 0.240D-03-0.132D-01 0.386D-01
 Coeff:      0.824D-01 0.230D+00 0.177D+00-0.927D+00-0.179D+01 0.320D+01
 Gap=     0.078 Goal=   None    Shift=    0.000
 RMSDP=1.97D-04 MaxDP=1.90D-02 DE=-6.90D-05 OVMax= 2.13D-02

 Cycle  13  Pass 1  IDiag  1:
 E= -1043.19571211814     Delta-E=       -0.000363189506 Rises=F Damp=F
 DIIS: error= 7.49D-04 at cycle  13 NSaved=  13.
 NSaved=13 IEnMin=13 EnMin= -1043.19571211814     IErMin=13 ErrMin= 7.49D-04
 ErrMax= 7.49D-04  0.00D+00 EMaxC= 1.00D-01 BMatC= 4.65D-04 BMatP= 1.27D-03
 IDIUse=3 WtCom= 9.93D-01 WtEn= 7.49D-03
 EnCoef did   100 forward-backward iterations
 Coeff-Com:  0.491D-02-0.107D-01 0.152D-02-0.107D-04-0.136D-01 0.388D-01
 Coeff-Com:  0.610D-01 0.108D+00-0.819D-01-0.817D+00-0.137D+01 0.254D+01
 Coeff-Com:  0.542D+00
 Coeff-En:   0.000D+00 0.000D+00 0.000D+00 0.000D+00 0.000D+00 0.000D+00
 Coeff-En:   0.000D+00 0.000D+00 0.000D+00 0.000D+00 0.387D+00 0.874D-02
 Coeff-En:   0.605D+00
 Coeff:      0.488D-02-0.107D-01 0.151D-02-0.107D-04-0.135D-01 0.385D-01
 Coeff:      0.605D-01 0.107D+00-0.813D-01-0.811D+00-0.136D+01 0.252D+01
 Coeff:      0.543D+00
 Gap=     0.075 Goal=   None    Shift=    0.000
 RMSDP=2.54D-04 MaxDP=1.43D-02 DE=-3.63D-04 OVMax= 3.57D-02

 Cycle  14  Pass 1  IDiag  1:
 E= -1043.19627371698     Delta-E=       -0.000561598835 Rises=F Damp=F
 DIIS: error= 1.03D-03 at cycle  14 NSaved=  14.
 NSaved=14 IEnMin=14 EnMin= -1043.19627371698     IErMin=13 ErrMin= 7.49D-04
 ErrMax= 1.03D-03  0.00D+00 EMaxC= 1.00D-01 BMatC= 8.81D-04 BMatP= 4.65D-04
 IDIUse=3 WtCom= 9.93D-01 WtEn= 7.49D-03
 Coeff-Com:  0.107D-02-0.253D-02-0.123D-02 0.899D-04-0.533D-02 0.300D-01
 Coeff-Com:  0.332D-01 0.615D-01 0.168D-01-0.396D+00-0.860D+00 0.125D+01
 Coeff-Com:  0.411D+00 0.460D+00
 Coeff-En:   0.000D+00 0.000D+00 0.000D+00 0.000D+00 0.000D+00 0.000D+00
 Coeff-En:   0.000D+00 0.000D+00 0.000D+00 0.000D+00 0.000D+00 0.000D+00
 Coeff-En:   0.334D+00 0.666D+00
 Coeff:      0.106D-02-0.251D-02-0.122D-02 0.892D-04-0.529D-02 0.298D-01
 Coeff:      0.330D-01 0.610D-01 0.167D-01-0.393D+00-0.854D+00 0.124D+01
 Coeff:      0.410D+00 0.462D+00
 Gap=     0.078 Goal=   None    Shift=    0.000
 RMSDP=1.62D-04 MaxDP=1.04D-02 DE=-5.62D-04 OVMax= 2.16D-02

 Cycle  15  Pass 1  IDiag  1:
 E= -1043.19657315991     Delta-E=       -0.000299442931 Rises=F Damp=F
 DIIS: error= 3.39D-04 at cycle  15 NSaved=  15.
 NSaved=15 IEnMin=15 EnMin= -1043.19657315991     IErMin=15 ErrMin= 3.39D-04
 ErrMax= 3.39D-04  0.00D+00 EMaxC= 1.00D-01 BMatC= 1.10D-04 BMatP= 4.65D-04
 IDIUse=3 WtCom= 9.97D-01 WtEn= 3.39D-03
 Coeff-Com:  0.165D-02-0.287D-02-0.645D-03 0.877D-04-0.350D-02 0.116D-01
 Coeff-Com:  0.957D-02 0.107D-02-0.689D-02-0.127D+00-0.233D+00 0.297D+00
 Coeff-Com:  0.183D+00 0.404D+00 0.467D+00
 Coeff-En:   0.000D+00 0.000D+00 0.000D+00 0.000D+00 0.000D+00 0.000D+00
 Coeff-En:   0.000D+00 0.000D+00 0.000D+00 0.000D+00 0.000D+00 0.000D+00
 Coeff-En:   0.000D+00 0.327D+00 0.673D+00
 Coeff:      0.165D-02-0.286D-02-0.643D-03 0.874D-04-0.349D-02 0.116D-01
 Coeff:      0.954D-02 0.107D-02-0.687D-02-0.127D+00-0.233D+00 0.296D+00
 Coeff:      0.182D+00 0.404D+00 0.468D+00
 Gap=     0.074 Goal=   None    Shift=    0.000
 RMSDP=8.20D-05 MaxDP=4.61D-03 DE=-2.99D-04 OVMax= 1.15D-02

 Cycle  16  Pass 1  IDiag  1:
 E= -1043.19676541026     Delta-E=       -0.000192250350 Rises=F Damp=F
 DIIS: error= 2.64D-04 at cycle  16 NSaved=  16.
 NSaved=16 IEnMin=16 EnMin= -1043.19676541026     IErMin=16 ErrMin= 2.64D-04
 ErrMax= 2.64D-04  0.00D+00 EMaxC= 1.00D-01 BMatC= 3.84D-05 BMatP= 1.10D-04
 IDIUse=3 WtCom= 9.97D-01 WtEn= 2.64D-03
 Coeff-Com:  0.636D-03-0.863D-03-0.203D-03 0.439D-04-0.108D-02 0.179D-02
 Coeff-Com:  0.466D-03-0.933D-02 0.733D-02 0.930D-02 0.475D-01-0.139D+00
 Coeff-Com:  0.829D-02 0.108D+00 0.280D+00 0.687D+00
 Coeff-En:   0.000D+00 0.000D+00 0.000D+00 0.000D+00 0.000D+00 0.000D+00
 Coeff-En:   0.000D+00 0.000D+00 0.000D+00 0.000D+00 0.000D+00 0.000D+00
 Coeff-En:   0.000D+00 0.000D+00 0.000D+00 0.100D+01
 Coeff:      0.634D-03-0.861D-03-0.203D-03 0.438D-04-0.108D-02 0.178D-02
 Coeff:      0.465D-03-0.931D-02 0.731D-02 0.927D-02 0.474D-01-0.139D+00
 Coeff:      0.827D-02 0.108D+00 0.279D+00 0.688D+00
 Gap=     0.074 Goal=   None    Shift=    0.000
 RMSDP=9.29D-06 MaxDP=8.62D-04 DE=-1.92D-04 OVMax= 8.30D-04

 Cycle  17  Pass 1  IDiag  1:
 E= -1043.19678414856     Delta-E=       -0.000018738300 Rises=F Damp=F
 DIIS: error= 7.52D-05 at cycle  17 NSaved=  17.
 NSaved=17 IEnMin=17 EnMin= -1043.19678414856     IErMin=17 ErrMin= 7.52D-05
 ErrMax= 7.52D-05  0.00D+00 EMaxC= 1.00D-01 BMatC= 4.41D-06 BMatP= 3.84D-05
 IDIUse=1 WtCom= 1.00D+00 WtEn= 0.00D+00
 Coeff-Com:  0.143D-03-0.260D-03-0.188D-04 0.926D-05-0.158D-03-0.557D-04
 Coeff-Com: -0.465D-03-0.328D-02 0.354D-02 0.145D-01 0.312D-01-0.870D-01
 Coeff-Com: -0.992D-02-0.591D-02 0.853D-01 0.263D+00 0.709D+00
 Coeff:      0.143D-03-0.260D-03-0.188D-04 0.926D-05-0.158D-03-0.557D-04
 Coeff:     -0.465D-03-0.328D-02 0.354D-02 0.145D-01 0.312D-01-0.870D-01
 Coeff:     -0.992D-02-0.591D-02 0.853D-01 0.263D+00 0.709D+00
 Gap=     0.074 Goal=   None    Shift=    0.000
 RMSDP=4.13D-06 MaxDP=4.66D-04 DE=-1.87D-05 OVMax= 3.35D-04

 Cycle  18  Pass 1  IDiag  1:
 E= -1043.19678605281     Delta-E=       -0.000001904254 Rises=F Damp=F
 DIIS: error= 2.41D-05 at cycle  18 NSaved=  18.
 NSaved=18 IEnMin=18 EnMin= -1043.19678605281     IErMin=18 ErrMin= 2.41D-05
 ErrMax= 2.41D-05  0.00D+00 EMaxC= 1.00D-01 BMatC= 4.07D-07 BMatP= 4.41D-06
 IDIUse=1 WtCom= 1.00D+00 WtEn= 0.00D+00
 Coeff-Com:  0.870D-05-0.852D-04 0.102D-04 0.200D-05 0.225D-04-0.810D-04
 Coeff-Com: -0.111D-03-0.443D-03 0.171D-02 0.652D-02 0.791D-02-0.312D-01
 Coeff-Com: -0.688D-02-0.153D-01 0.203D-01 0.642D-01 0.361D+00 0.593D+00
 Coeff:      0.870D-05-0.852D-04 0.102D-04 0.200D-05 0.225D-04-0.810D-04
 Coeff:     -0.111D-03-0.443D-03 0.171D-02 0.652D-02 0.791D-02-0.312D-01
 Coeff:     -0.688D-02-0.153D-01 0.203D-01 0.642D-01 0.361D+00 0.593D+00
 Gap=     0.074 Goal=   None    Shift=    0.000
 RMSDP=1.95D-06 MaxDP=1.80D-04 DE=-1.90D-06 OVMax= 2.37D-04

 Cycle  19  Pass 1  IDiag  1:
 E= -1043.19678617209     Delta-E=       -0.000000119280 Rises=F Damp=F
 DIIS: error= 3.83D-06 at cycle  19 NSaved=  19.
 NSaved=19 IEnMin=19 EnMin= -1043.19678617209     IErMin=19 ErrMin= 3.83D-06
 ErrMax= 3.83D-06  0.00D+00 EMaxC= 1.00D-01 BMatC= 1.54D-08 BMatP= 4.07D-07
 IDIUse=1 WtCom= 1.00D+00 WtEn= 0.00D+00
 Coeff-Com: -0.952D-06-0.242D-04 0.758D-05 0.133D-06 0.702D-05 0.180D-04
 Coeff-Com:  0.442D-04-0.214D-04 0.268D-03 0.181D-02 0.187D-02-0.878D-02
 Coeff-Com: -0.300D-02-0.275D-02 0.184D-03 0.618D-02 0.833D-01 0.237D+00
 Coeff-Com:  0.684D+00
 Coeff:     -0.952D-06-0.242D-04 0.758D-05 0.133D-06 0.702D-05 0.180D-04
 Coeff:      0.442D-04-0.214D-04 0.268D-03 0.181D-02 0.187D-02-0.878D-02
 Coeff:     -0.300D-02-0.275D-02 0.184D-03 0.618D-02 0.833D-01 0.237D+00
 Coeff:      0.684D+00
 Gap=     0.074 Goal=   None    Shift=    0.000
 RMSDP=7.03D-07 MaxDP=3.78D-05 DE=-1.19D-07 OVMax= 1.05D-04

 Cycle  20  Pass 1  IDiag  1:
 E= -1043.19678620364     Delta-E=       -0.000000031546 Rises=F Damp=F
 DIIS: error= 2.23D-06 at cycle  20 NSaved=  20.
 NSaved=20 IEnMin=20 EnMin= -1043.19678620364     IErMin=20 ErrMin= 2.23D-06
 ErrMax= 2.23D-06  0.00D+00 EMaxC= 1.00D-01 BMatC= 2.09D-09 BMatP= 1.54D-08
 IDIUse=1 WtCom= 1.00D+00 WtEn= 0.00D+00
 Coeff-Com: -0.313D-05-0.107D-04 0.175D-05 0.560D-08 0.700D-05 0.281D-04
 Coeff-Com:  0.393D-04 0.596D-04 0.730D-04 0.639D-03 0.133D-02-0.327D-02
 Coeff-Com: -0.142D-02 0.650D-04-0.305D-02-0.539D-03 0.447D-02 0.437D-01
 Coeff-Com:  0.325D+00 0.633D+00
 Coeff:     -0.313D-05-0.107D-04 0.175D-05 0.560D-08 0.700D-05 0.281D-04
 Coeff:      0.393D-04 0.596D-04 0.730D-04 0.639D-03 0.133D-02-0.327D-02
 Coeff:     -0.142D-02 0.650D-04-0.305D-02-0.539D-03 0.447D-02 0.437D-01
 Coeff:      0.325D+00 0.633D+00
 Gap=     0.074 Goal=   None    Shift=    0.000
 RMSDP=1.52D-07 MaxDP=8.19D-06 DE=-3.15D-08 OVMax= 2.06D-05

 Cycle  21  Pass 1  IDiag  1:
 E= -1043.19678620618     Delta-E=       -0.000000002541 Rises=F Damp=F
 DIIS: error= 9.30D-07 at cycle  21 NSaved=  20.
 NSaved=20 IEnMin=20 EnMin= -1043.19678620618     IErMin=20 ErrMin= 9.30D-07
 ErrMax= 9.30D-07  0.00D+00 EMaxC= 1.00D-01 BMatC= 5.83D-10 BMatP= 2.09D-09
 IDIUse=1 WtCom= 1.00D+00 WtEn= 0.00D+00
 Coeff-Com: -0.585D-06-0.323D-05 0.516D-06 0.809D-06 0.102D-04 0.112D-04
 Coeff-Com:  0.279D-04 0.111D-04 0.217D-03 0.725D-03-0.106D-02-0.546D-03
 Coeff-Com:  0.639D-03-0.212D-02-0.138D-02-0.744D-02-0.729D-03 0.802D-01
 Coeff-Com:  0.282D+00 0.649D+00
 Coeff:     -0.585D-06-0.323D-05 0.516D-06 0.809D-06 0.102D-04 0.112D-04
 Coeff:      0.279D-04 0.111D-04 0.217D-03 0.725D-03-0.106D-02-0.546D-03
 Coeff:      0.639D-03-0.212D-02-0.138D-02-0.744D-02-0.729D-03 0.802D-01
 Coeff:      0.282D+00 0.649D+00
 Gap=     0.074 Goal=   None    Shift=    0.000
 RMSDP=1.21D-07 MaxDP=6.65D-06 DE=-2.54D-09 OVMax= 1.73D-05

 Cycle  22  Pass 1  IDiag  1:
 E= -1043.19678620713     Delta-E=       -0.000000000951 Rises=F Damp=F
 DIIS: error= 2.42D-07 at cycle  22 NSaved=  20.
 NSaved=20 IEnMin=20 EnMin= -1043.19678620713     IErMin=20 ErrMin= 2.42D-07
 ErrMax= 2.42D-07  0.00D+00 EMaxC= 1.00D-01 BMatC= 3.98D-11 BMatP= 5.83D-10
 IDIUse=1 WtCom= 1.00D+00 WtEn= 0.00D+00
 Coeff-Com:  0.828D-07-0.981D-06-0.279D-06 0.226D-05 0.161D-05 0.101D-04
 Coeff-Com:  0.541D-05 0.833D-04 0.318D-03-0.356D-03-0.179D-03 0.337D-03
 Coeff-Com: -0.859D-03-0.595D-03-0.380D-02-0.379D-02 0.332D-02 0.735D-01
 Coeff-Com:  0.295D+00 0.637D+00
 Coeff:      0.828D-07-0.981D-06-0.279D-06 0.226D-05 0.161D-05 0.101D-04
 Coeff:      0.541D-05 0.833D-04 0.318D-03-0.356D-03-0.179D-03 0.337D-03
 Coeff:     -0.859D-03-0.595D-03-0.380D-02-0.379D-02 0.332D-02 0.735D-01
 Coeff:      0.295D+00 0.637D+00
 Gap=     0.074 Goal=   None    Shift=    0.000
 RMSDP=2.86D-08 MaxDP=1.52D-06 DE=-9.51D-10 OVMax= 3.92D-06

 Cycle  23  Pass 1  IDiag  1:
 E= -1043.19678620715     Delta-E=       -0.000000000013 Rises=F Damp=F
 DIIS: error= 6.06D-08 at cycle  23 NSaved=  20.
 NSaved=20 IEnMin=20 EnMin= -1043.19678620715     IErMin=20 ErrMin= 6.06D-08
 ErrMax= 6.06D-08  0.00D+00 EMaxC= 1.00D-01 BMatC= 3.11D-12 BMatP= 3.98D-11
 IDIUse=1 WtCom= 1.00D+00 WtEn= 0.00D+00
 Coeff-Com: -0.191D-08-0.717D-07-0.373D-06 0.280D-07 0.156D-05 0.123D-05
 Coeff-Com:  0.197D-04 0.709D-04-0.778D-04-0.320D-04 0.337D-04-0.123D-03
 Coeff-Com: -0.529D-04-0.277D-03-0.541D-03-0.706D-02-0.753D-02 0.203D-01
 Coeff-Com:  0.218D+00 0.777D+00
 Coeff:     -0.191D-08-0.717D-07-0.373D-06 0.280D-07 0.156D-05 0.123D-05
 Coeff:      0.197D-04 0.709D-04-0.778D-04-0.320D-04 0.337D-04-0.123D-03
 Coeff:     -0.529D-04-0.277D-03-0.541D-03-0.706D-02-0.753D-02 0.203D-01
 Coeff:      0.218D+00 0.777D+00
 Gap=     0.074 Goal=   None    Shift=    0.000
 RMSDP=9.80D-09 MaxDP=5.36D-07 DE=-1.30D-11 OVMax= 1.27D-06

 SCF Done:  E(RB-P86) =  -1043.19678621     A.U. after   23 cycles
            NFock= 23  Conv=0.98D-08     -V/T= 2.7889
 KE= 5.831631713391D+02 PE=-3.488848871712D+03 EE= 1.254815662419D+03
 Leave Link  502 at Tue Jun 27 18:53:05 2023, MaxMem=  2147483648 cpu:             657.9 elap:             127.1
 (Enter /home/pcmt/gaussian/g16.C.01/g16/l601.exe)
 Copying SCF densities to generalized density rwf, IOpCl= 0 IROHF=0.

 **********************************************************************

            Population analysis using the SCF Density.

 **********************************************************************

 Orbital symmetries:
       Occupied  (A) (A) (A) (A) (A) (A) (A) (A) (A) (A) (A) (A)
                 (A) (A) (A) (A) (A) (A) (A) (A) (A) (A) (A) (A)
                 (A) (A) (A) (A) (A) (A) (A) (A) (A) (A) (A) (A)
                 (A) (A) (A) (A) (A) (A) (A) (A) (A) (A)
       Virtual   (A) (A) (A) (A) (A) (A) (A) (A) (A) (A) (A) (A)
                 (A) (A) (A) (A) (A) (A) (A) (A) (A) (A) (A) (A)
                 (A) (A) (A) (A) (A) (A) (A) (A) (A) (A) (A) (A)
                 (A) (A) (A) (A) (A) (A) (A) (A) (A) (A) (A) (A)
                 (A) (A) (A) (A) (A) (A) (A) (A) (A) (A) (A) (A)
                 (A) (A) (A) (A) (A) (A) (A) (A) (A) (A) (A) (A)
                 (A) (A) (A) (A) (A) (A) (A) (A) (A) (A) (A) (A)
                 (A) (A) (A) (A) (A) (A) (A) (A) (A) (A) (A) (A)
                 (A) (A) (A) (A) (A) (A) (A) (A) (A) (A) (A) (A)
                 (A) (A) (A) (A) (A) (A) (A) (A) (A) (A) (A) (A)
                 (A) (A) (A) (A) (A) (A) (A) (A) (A) (A) (A) (A)
                 (A) (A) (A) (A) (A) (A) (A) (A) (A) (A) (A) (A)
                 (A) (A) (A) (A) (A) (A) (A) (A) (A) (A) (A) (A)
                 (A) (A) (A) (A) (A) (A) (A) (A) (A) (A) (A) (A)
                 (A) (A) (A) (A) (A) (A) (A) (A) (A) (A) (A) (A)
                 (A) (A) (A) (A) (A) (A) (A) (A) (A) (A) (A) (A)
                 (A) (A) (A) (A) (A) (A) (A) (A) (A) (A) (A) (A)
                 (A) (A) (A) (A) (A) (A) (A) (A) (A) (A) (A) (A)
                 (A) (A) (A) (A) (A) (A) (A) (A) (A) (A) (A) (A)
                 (A) (A) (A) (A) (A) (A) (A) (A) (A) (A) (A) (A)
                 (A) (A) (A) (A) (A) (A) (A) (A) (A) (A) (A)
 The electronic state is 1-A.
 Alpha  occ. eigenvalues --  -18.88079 -18.78346 -18.76219 -18.74492 -11.08380
 Alpha  occ. eigenvalues --   -7.15414  -7.15265  -7.13559  -6.55260  -4.61392
 Alpha  occ. eigenvalues --   -4.61174  -4.61061  -3.51275  -3.51220  -3.50372
 Alpha  occ. eigenvalues --   -3.50219  -3.49576  -1.75163  -1.75099  -1.75008
 Alpha  occ. eigenvalues --   -1.74820  -1.74812  -1.71464  -1.03886  -0.98320
 Alpha  occ. eigenvalues --   -0.92326  -0.88702  -0.83356  -0.79761  -0.68068
 Alpha  occ. eigenvalues --   -0.59193  -0.57248  -0.47137  -0.44237  -0.41783
 Alpha  occ. eigenvalues --   -0.37949  -0.32453  -0.31303  -0.29026  -0.28669
 Alpha  occ. eigenvalues --   -0.28273  -0.28024  -0.25108  -0.22411  -0.19987
 Alpha  occ. eigenvalues --   -0.19348
 Alpha virt. eigenvalues --   -0.11963  -0.11066  -0.10720  -0.10678  -0.09397
 Alpha virt. eigenvalues --   -0.07971  -0.07101  -0.06130  -0.02512  -0.01940
 Alpha virt. eigenvalues --   -0.01573   0.00535   0.00626   0.02233   0.04124
 Alpha virt. eigenvalues --    0.04664   0.05895   0.07061   0.07381   0.09105
 Alpha virt. eigenvalues --    0.11702   0.16793   0.17916   0.18530   0.18956
 Alpha virt. eigenvalues --    0.20523   0.21559   0.22286   0.23054   0.23235
 Alpha virt. eigenvalues --    0.24572   0.25419   0.26663   0.28779   0.29824
 Alpha virt. eigenvalues --    0.30302   0.31607   0.34470   0.35710   0.36504
 Alpha virt. eigenvalues --    0.38104   0.40535   0.41628   0.41767   0.42528
 Alpha virt. eigenvalues --    0.43923   0.45797   0.46887   0.48374   0.49442
 Alpha virt. eigenvalues --    0.51840   0.54100   0.55294   0.57689   0.59523
 Alpha virt. eigenvalues --    0.61169   0.62200   0.64626   0.65457   0.65746
 Alpha virt. eigenvalues --    0.67685   0.69164   0.71882   0.79926   0.82023
 Alpha virt. eigenvalues --    0.84592   0.85799   0.86522   0.86801   0.89184
 Alpha virt. eigenvalues --    0.89871   0.90597   0.92359   1.01909   1.03692
 Alpha virt. eigenvalues --    1.04143   1.05056   1.10184   1.10312   1.11574
 Alpha virt. eigenvalues --    1.12349   1.12920   1.13434   1.14533   1.14645
 Alpha virt. eigenvalues --    1.17488   1.19701   1.21141   1.22927   1.24274
 Alpha virt. eigenvalues --    1.25000   1.26922   1.28046   1.30397   1.31034
[...]
 Traceless Quadrupole moment (field-independent basis, Debye-Ang):
   XX=             11.4657   YY=             -9.1616   ZZ=             -2.3041
   XY=              1.7913   XZ=             -5.4401   YZ=             -0.4783
 Octapole moment (field-independent basis, Debye-Ang**2):
  XXX=            133.7468  YYY=             27.3477  ZZZ=             -1.7657  XYY=             10.1223
  XXY=             -1.5758  XXZ=            -21.8465  XZZ=             10.0278  YZZ=            -11.8366
  YYZ=              6.6733  XYZ=             -1.3912
 Hexadecapole moment (field-independent basis, Debye-Ang**3):
 XXXX=          -1256.9578 YYYY=           -386.2082 ZZZZ=           -250.5189 XXXY=             -6.9921
 XXXZ=            -93.4348 YYYX=             27.0888 YYYZ=             23.7136 ZZZX=              5.0954
 ZZZY=            -26.7064 XXYY=           -323.5270 XXZZ=           -324.4047 YYZZ=           -116.1420
 XXYZ=             -2.8107 YYXZ=              1.5494 ZZXY=            -11.8309
 N-N= 6.076732517469D+02 E-N=-3.488848863263D+03  KE= 5.831631713391D+02
 Orbital energies and kinetic energies (alpha):
                                 1                 2
   1         O               -18.880787         29.113178
   2         O               -18.783460         29.111704
   3         O               -18.762190         29.113809
   4         O               -18.744919         29.110158
   5         O               -11.083802          4.702718
   6         O                -7.154140          5.035285
   7         O                -7.152654          5.035585
   8         O                -7.135594          5.031782
   9         O                -6.552597          3.224695
  10         O                -4.613920          4.693392
  11         O                -4.611736          4.694405
  12         O                -4.610612          4.694697
  13         O                -3.512755          6.833256
  14         O                -3.512200          6.833624
  15         O                -3.503718          6.828698
  16         O                -3.502187          6.829355
  17         O                -3.495757          6.824125
  18         O                -1.751626          7.062180
  19         O                -1.750988          7.065847
  20         O                -1.750078          7.066649
  21         O                -1.748201          7.069557
  22         O                -1.748116          7.069539
  23         O                -1.714638          6.304237
  24         O                -1.038858          2.678339
  25         O                -0.983197          2.278704
  26         O                -0.923255          2.421541
  27         O                -0.887023          3.049035
  28         O                -0.833555          2.163125
  29         O                -0.797609          2.559297
  30         O                -0.680682          3.237524
  31         O                -0.591933          1.872006
  32         O                -0.572478          1.358882
  33         O                -0.471369          2.522382
  34         O                -0.442371          2.440982
  35         O                -0.417835          3.539486
  36         O                -0.379491          2.291312
  37         O                -0.324531          2.534983
  38         O                -0.313030          2.081275
  39         O                -0.290264          2.351725
  40         O                -0.286686          2.409185
  41         O                -0.282732          2.783661
  42         O                -0.280239          4.457310
  43         O                -0.251080          5.450262
  44         O                -0.224111          5.381036
  45         O                -0.199868          1.148126
  46         O                -0.193481          1.222933
  47         V                -0.119626         63.499710
  48         V                -0.110655          5.260374
  49         V                -0.107204          4.991989
  50         V                -0.106779          5.575800
  51         V                -0.093971         80.270685
  52         V                -0.079713         23.769444
  53         V                -0.071014        142.259755
  54         V                -0.061302         54.878364
  55         V                -0.025124         11.833214
  56         V                -0.019400          3.172897
  57         V                -0.015733          7.035394
  58         V                 0.005353          1.160951
  59         V                 0.006261          1.984604
  60         V                 0.022329          1.756987
  61         V                 0.041235          5.741453
  62         V                 0.046643          2.451927
  63         V                 0.058949          7.480403
  64         V                 0.070609         16.212102
  65         V                 0.073810          7.959360
  66         V                 0.091050          2.036008
  67         V                 0.117024          1.080913
  68         V                 0.167925          1.118117
  69         V                 0.179158          0.904422
  70         V                 0.185305          1.045878
  71         V                 0.189555          0.893768
  72         V                 0.205229          1.046067
  73         V                 0.215588          1.291856
  74         V                 0.222865          1.102446
  75         V                 0.230543          1.458690
  76         V                 0.232347          1.074060
  77         V                 0.245721          1.221949
  78         V                 0.254193          1.307623
  79         V                 0.266632          1.394552
  80         V                 0.287790          1.802788
  81         V                 0.298239          1.317672
  82         V                 0.303019          1.223751
  83         V                 0.316073          1.147257
  84         V                 0.344700          1.672649
  85         V                 0.357095          1.664142
  86         V                 0.365041          1.825839
  87         V                 0.381042          1.365243
  88         V                 0.405347          1.841134
  89         V                 0.416284          1.764351
  90         V                 0.417666          1.460603
  91         V                 0.425278          1.677048
  92         V                 0.439230          2.123782
  93         V                 0.457974          1.589694
  94         V                 0.468874          1.545376
  95         V                 0.483741          1.597877
  96         V                 0.494422          1.470882
  97         V                 0.518402          1.811407
  98         V                 0.540997          1.643502
  99         V                 0.552941          1.656908
 100         V                 0.576885          1.514739
 101         V                 0.595226          1.734227
 102         V                 0.611686          4.576801
 103         V                 0.621997          1.531526
 104         V                 0.646258          1.460436
 105         V                 0.654571          1.621053
 106         V                 0.657464          1.534325
 107         V                 0.676854          2.001071
 108         V                 0.691635          2.467658
 109         V                 0.718820          1.481327
 110         V                 0.799257          2.050209
 111         V                 0.820233          2.033312
 112         V                 0.845923          2.399146
 113         V                 0.857990          2.523383
 114         V                 0.865218          2.564786
 115         V                 0.868008          2.542526
 116         V                 0.891843          2.553982
 117         V                 0.898713          2.530674
 118         V                 0.905965          2.661739
 119         V                 0.923587          3.114807
 120         V                 1.019094          2.459254
 121         V                 1.036925          2.515083
 122         V                 1.041431          2.510269
 123         V                 1.050559          2.667572
 124         V                 1.101837          2.721907
 125         V                 1.103121          2.991765
 126         V                 1.115737          3.031445
 127         V                 1.123489          3.115081
 128         V                 1.129199          2.818771
 129         V                 1.134342          2.969933
 130         V                 1.145328          2.926042
 131         V                 1.146445          3.014476
 132         V                 1.174880          3.246015
 133         V                 1.197013          2.800755
 134         V                 1.211411          3.249665
 135         V                 1.229271          3.235674
 136         V                 1.242743          2.765643
 137         V                 1.250004          2.913964
 138         V                 1.269216          2.960544
 139         V                 1.280460          3.410411
 140         V                 1.303971          2.746904
 141         V                 1.310339          2.651606
 142         V                 1.349676          3.520572
 143         V                 1.384506          3.945170
 144         V                 1.389076          3.584526
 145         V                 1.412860          3.427154
 146         V                 1.418038          2.847023
 147         V                 1.421879          2.997479
 148         V                 1.466034          3.918499
 149         V                 1.484294          4.102291
 150         V                 1.491808          4.111157
 151         V                 1.503203          3.060687
 152         V                 1.547569          3.386902
 153         V                 1.556547          3.180164
 154         V                 1.590405          3.262001
 155         V                 1.592942          3.663796
 156         V                 1.603996          3.385198
 157         V                 1.622989          3.418051
 158         V                 1.652507          3.271785
 159         V                 1.667515          3.352524
 160         V                 1.702408          3.314848
 161         V                 1.729008          3.365605
 162         V                 1.733711          3.286689
 163         V                 1.766482          3.714294
 164         V                 1.804317          3.876057
 165         V                 1.834764          3.577254
 166         V                 1.842275          3.629167
 167         V                 1.875784          3.555090
 168         V                 1.899457          3.532446
 169         V                 1.951298          3.512167
 170         V                 1.960969          2.930609
 171         V                 1.992727          3.824114
 172         V                 2.090947          3.792849
 173         V                 2.100447          3.552692
 174         V                 2.133221          4.108680
 175         V                 2.145207          3.869987
 176         V                 2.165645          3.758667
 177         V                 2.181201          4.019508
 178         V                 2.253065          4.345308
 179         V                 2.253676          4.300040
 180         V                 2.278635          4.898873
 181         V                 2.328229          5.735981
 182         V                 2.423707          4.056308
 183         V                 2.459242          4.797213
 184         V                 2.464805          6.236629
 185         V                 2.470892          4.408410
 186         V                 2.524165          4.764460
 187         V                 2.560119          5.709595
 188         V                 2.608369          6.932190
 189         V                 2.621522          6.918366
 190         V                 2.648140          6.007578
 191         V                 2.662431          6.153142
 192         V                 2.807967          7.044351
 193         V                 2.842021          7.068418
 194         V                 2.886148          6.754444
 195         V                 2.906981          7.666249
 196         V                 2.947576          7.519005
 197         V                 2.992942          9.570542
 198         V                 2.994779          9.606208
 199         V                 3.002896          9.573147
 200         V                 3.033699          9.141355
 201         V                 3.050570          9.438028
 202         V                 3.062848          9.277220
 203         V                 3.131021          9.123482
 204         V                 3.182710          7.533911
 205         V                 3.365527          8.240263
 206         V                 3.472447          6.341589
 207         V                 3.600299          8.355507
 208         V                 3.683980          7.141270
 209         V                 3.688907          8.004481
 210         V                 3.704653          8.209359
 211         V                 3.730194          8.770024
 212         V                 3.816734          9.481968
 213         V                 3.828628          9.538151
 214         V                 3.846259          8.590954
 215         V                 3.881642          9.022762
 216         V                 3.999306          9.739712
 217         V                 4.033969          9.643735
 218         V                 4.250603          8.988163
 219         V                 4.280192          9.107185
 220         V                 4.907739          6.541482
 221         V                 4.995820          6.452151
 222         V                 5.002102          6.498031
 223         V                 5.016634          6.448715
 224         V                 5.022352          6.540513
 225         V                 5.035771          6.456822
 226         V                 5.044654          6.467820
 227         V                 5.055062          6.707983
 228         V                 5.076743          6.817872
 229         V                 5.101916          6.598732
 230         V                 5.110483          6.691659
 231         V                 5.130329          6.755783
 232         V                 5.139428          6.742495
 233         V                 5.153655          6.860115
 234         V                 5.164739          6.905650
 235         V                 5.185553          6.818546
 236         V                 5.203380          6.923536
 237         V                 5.221400          6.954394
 238         V                 5.279687          7.111265
 239         V                 5.301731          7.364897
 240         V                 5.308561          6.981231
 241         V                 5.334863          7.469476
 242         V                 5.380993          7.343650
 243         V                 5.433341          7.220040
 244         V                 5.779887          8.511316
 245         V                 5.993067          9.101937
 246         V                 6.044491         10.063552
 247         V                 6.096742          9.247362
 248         V                 6.115915         10.275459
 249         V                 6.134070          9.365027
 250         V                 6.153498          9.416151
 251         V                 6.156638          9.407086
 252         V                 6.193401          9.406123
 253         V                 6.210512          9.412576
 254         V                 6.221921          9.400363
 255         V                 6.288195          9.394650
 256         V                 6.335101          9.437318
 257         V                 6.371707          9.713683
 258         V                 6.416559          9.624029
 259         V                 6.490186         10.030769
 260         V                 6.581677          9.743882
 261         V                 6.603034          9.705161
 262         V                 6.668553         10.551457
 263         V                 6.696711          9.607548
 264         V                 6.746829         10.097230
 265         V                 6.797633         10.444340
 266         V                 6.810562         10.056538
 267         V                 6.916544          9.856440
 268         V                 6.987942         10.372746
 269         V                 7.163193         13.719187
 270         V                 7.256778         13.200095
 271         V                 7.480777         13.734240
 272         V                 8.112316         15.798453
 273         V                 8.177816         15.824925
 274         V                 8.212329         15.813329
 275         V                 8.491204         15.987990
 276         V                 8.905916         16.183040
 277         V                29.317635         36.028002
 278         V                29.354877         36.048287
 279         V                29.494758         36.178411
 280         V                34.433575         27.525176
 281         V                34.439045         27.529020
 282         V                34.624970         27.671365
 283         V                42.644504         33.360561
 284         V                42.994183        106.690686
 285         V                43.191324        108.309597
 286         V                43.398431        108.724857
 287         V                43.558141        108.897589
 288         V                54.091541         39.972011
 289         V                70.234790         83.948848
 290         V                70.254807         83.987811
 291         V                70.337032         84.126780
 292         V               118.679638         48.325431
 293         V               142.626000        242.423965
 294         V               142.668342        242.476361
 295         V               142.817844        242.662010
 296         V               202.602753        130.076553
 297         V               626.122674       1034.484958
 Total kinetic energy from orbitals= 5.831631713391D+02
 No NMR shielding tensors so no spin-rotation constants.
 Leave Link  601 at Tue Jun 27 18:53:05 2023, MaxMem=  2147483648 cpu:               3.8 elap:               0.6
 (Enter /home/pcmt/gaussian/g16.C.01/g16/l9999.exe)

 Test job not archived.
 1\1\GINC-U-0-0\SP\RBP86\Gen\H4I1O4Pa1\ROOT\27-Jun-2023\0\\#p BP86/GEN 
 Pseudo=Read GFInput GFPrint IOP(6/7=3) Symm=(Loose) Int=(UltraFine) Gu
 ess=(Harris) Scf=(NoVarAcc,MaxCycle=100,conver=8)\\pao_oh2_I_h2o-bp86-
 cosmors-deftzvp-gp.com SGP in PCM calculation\\0,1\Pa,0,-0.3591495789,
 -0.031505605,0.7007115375\O,0,1.0450893569,1.457685126,0.1075131478\O,
 0,-1.7081656438,0.7920837405,-0.6685052535\I,0,-1.5813072976,1.5691183
 012,3.1098650257\H,0,-1.6901532002,1.5781524126,-1.232040247\O,0,0.161
 443074,-1.6061608656,-1.1519427057\H,0,-0.1896956273,-1.5675716313,-2.
 0513309498\H,0,0.8182165502,-2.314239344,-1.1264316214\H,0,1.966985093
 7,1.5500554828,0.3762775943\O,0,0.8157303735,-1.0178772859,1.739150794
 3\\Version=ES64L-G16RevC.01\State=1-A\HF=-1043.1967862\RMSD=9.800e-09\
 Dipole=0.6646169,-1.9962205,-3.4887291\Quadrupole=-4.5829986,1.5138779
 ,3.0691207,0.6221292,-2.1152138,7.6182794\PG=C01 [X(H4I1O4Pa1)]\\@


 REALITY IS FOR PEOPLE WHO CAN'T FACE SCIENCE FICTION.
 Job cpu time:       0 days  0 hours 11 minutes 28.9 seconds.
 Elapsed time:       0 days  0 hours  2 minutes 11.6 seconds.
 File lengths (MBytes):  RWF=     37 Int=      0 D2E=      0 Chk=      6 Scr=      1
 Normal termination of Gaussian 16 at Tue Jun 27 18:53:05 2023.
