 Entering Gaussian System, Link 0=/home/pcmt/gaussian/g16.C.01/g16/g16
 AtFile(1): /home/shaaban/basis.gaussian/Pa-def-TZVP
 AtFile(1): /home/shaaban/basis.gaussian/Pa-ECP60MWB
 AtFile(1): /home/shaaban/basis.gaussian/I-ECP28oldMDF
 Initial command:
 /home/pcmt/gaussian/g16.C.01/g16/l1.exe "/state/partition2/shaaban/972189.phlam-s-sakura/Gau-65528.inp" -scrdir="/state/partition2/shaaban/972189.phlam-s-sakura/"
 Entering Link 1 = /home/pcmt/gaussian/g16.C.01/g16/l1.exe PID=     65529.
  
 Copyright (c) 1988-2019, Gaussian, Inc.  All Rights Reserved.
  
 This is part of the Gaussian(R) 16 program.  It is based on
 the Gaussian(R) 09 system (copyright 2009, Gaussian, Inc.),
 the Gaussian(R) 03 system (copyright 2003, Gaussian, Inc.),
 the Gaussian(R) 98 system (copyright 1998, Gaussian, Inc.),
 the Gaussian(R) 94 system (copyright 1995, Gaussian, Inc.),
 the Gaussian 92(TM) system (copyright 1992, Gaussian, Inc.),
 the Gaussian 90(TM) system (copyright 1990, Gaussian, Inc.),
 the Gaussian 88(TM) system (copyright 1988, Gaussian, Inc.),
 the Gaussian 86(TM) system (copyright 1986, Carnegie Mellon
 University), and the Gaussian 82(TM) system (copyright 1983,
 Carnegie Mellon University). Gaussian is a federally registered
 trademark of Gaussian, Inc.
  
 This software contains proprietary and confidential information,
 including trade secrets, belonging to Gaussian, Inc.
  
 This software is provided under written license and may be
 used, copied, transmitted, or stored only in accord with that
 written license.
  
 The following legend is applicable only to US Government
 contracts under FAR:
  
                    RESTRICTED RIGHTS LEGEND
  
 Use, reproduction and disclosure by the US Government is
 subject to restrictions as set forth in subparagraphs (a)
 and (c) of the Commercial Computer Software - Restricted
 Rights clause in FAR 52.227-19.
  
 Gaussian, Inc.
 340 Quinnipiac St., Bldg. 40, Wallingford CT 06492
  
  
 ---------------------------------------------------------------
 Warning -- This program may not be used in any manner that
 competes with the business of Gaussian, Inc. or will provide
 assistance to any competitor of Gaussian, Inc.  The licensee
 of this program is prohibited from giving any competitor of
 Gaussian, Inc. access to this program.  By using this program,
 the user acknowledges that Gaussian, Inc. is engaged in the
 business of creating and licensing software in the field of
 computational chemistry and represents and warrants to the
 licensee that it is not a competitor of Gaussian, Inc. and that
 it will not use this program in any manner prohibited above.
 ---------------------------------------------------------------
  

 Cite this work as:
 Gaussian 16, Revision C.01,
 M. J. Frisch, G. W. Trucks, H. B. Schlegel, G. E. Scuseria, 
 M. A. Robb, J. R. Cheeseman, G. Scalmani, V. Barone, 
 G. A. Petersson, H. Nakatsuji, X. Li, M. Caricato, A. V. Marenich, 
 J. Bloino, B. G. Janesko, R. Gomperts, B. Mennucci, H. P. Hratchian, 
 J. V. Ortiz, A. F. Izmaylov, J. L. Sonnenberg, D. Williams-Young, 
 F. Ding, F. Lipparini, F. Egidi, J. Goings, B. Peng, A. Petrone, 
 T. Henderson, D. Ranasinghe, V. G. Zakrzewski, J. Gao, N. Rega, 
 G. Zheng, W. Liang, M. Hada, M. Ehara, K. Toyota, R. Fukuda, 
 J. Hasegawa, M. Ishida, T. Nakajima, Y. Honda, O. Kitao, H. Nakai, 
 T. Vreven, K. Throssell, J. A. Montgomery, Jr., J. E. Peralta, 
 F. Ogliaro, M. J. Bearpark, J. J. Heyd, E. N. Brothers, K. N. Kudin, 
 V. N. Staroverov, T. A. Keith, R. Kobayashi, J. Normand, 
 K. Raghavachari, A. P. Rendell, J. C. Burant, S. S. Iyengar, 
 J. Tomasi, M. Cossi, J. M. Millam, M. Klene, C. Adamo, R. Cammi, 
 J. W. Ochterski, R. L. Martin, K. Morokuma, O. Farkas, 
 J. B. Foresman, and D. J. Fox, Gaussian, Inc., Wallingford CT, 2019.
 
 ******************************************
 Gaussian 16:  ES64L-G16RevC.01  3-Jul-2019
                28-Jun-2023 
 ******************************************
 %mem=16Gb
 %NProc=8
 Will use up to    8 processors via shared memory.
 %chk=pao_oh2_I_h2o-bp86-cosmors-deftzvp-klamt.chk
 ----------------------------------------------------------------------
 #p BP86/GEN Pseudo=Read GFInput GFPrint IOP(6/7=3) Symm=(Loose) Int=(U
 ltraFine) Guess=(Harris) SCRF=(COSMORS,Read) Scf=(NoVarAcc,MaxCycle=20
 0,conver=8)
 ----------------------------------------------------------------------
 1/38=1,40=2,172=1/1;
 2/12=2,17=4,18=3,40=1/2;
 3/5=7,11=2,16=1,17=8,24=110,25=1,30=1,70=12103,74=404,75=-5/1,2,3;
 4/11=8/1;
 5/5=2,6=8,7=200,38=1/2;
 6/7=3,8=2,9=2,10=2,28=1/1;
 99/5=1,9=1/99;
 Leave Link    1 at Wed Jun 28 14:00:57 2023, MaxMem=  2147483648 cpu:               0.4 elap:               0.1
 (Enter /home/pcmt/gaussian/g16.C.01/g16/l101.exe)
 -------------------------------------------------------------------
 pao_oh2_I_h2o-bp86-cosmors-deftzvp-klamt.com SGP in PCM calculation
 -------------------------------------------------------------------
 Symbolic Z-matrix:
 Charge =  0 Multiplicity = 1
 Pa                   -0.35915  -0.03151   0.70071 
 O                     1.04509   1.45769   0.10751 
 O                    -1.70817   0.79208  -0.66851 
 I                    -1.58131   1.56912   3.10987 
 H                    -1.69015   1.57815  -1.23204 
 O                     0.16144  -1.60616  -1.15194 
 H                    -0.1897   -1.56757  -2.05133 
 H                     0.81822  -2.31424  -1.12643 
 H                     1.96699   1.55006   0.37628 
 O                     0.81573  -1.01788   1.73915 
 
 ITRead=  0  0  0  0  0  0  0  0  0  0
 MicOpt= -1 -1 -1 -1 -1 -1 -1 -1 -1 -1
 NAtoms=     10 NQM=       10 NQMF=       0 NMMI=      0 NMMIF=      0
                NMic=       0 NMicF=      0.
                    Isotopes and Nuclear Properties:
 (Nuclear quadrupole moments (NQMom) in fm**2, nuclear magnetic moments (NMagM)
  in nuclear magnetons)

  Atom         1           2           3           4           5           6           7           8           9          10
 IAtWgt=         231          16          16         127           1          16           1           1           1          16
 AtmWgt= 231.0359000  15.9949146  15.9949146 126.9004000   1.0078250  15.9949146   1.0078250   1.0078250   1.0078250  15.9949146
 NucSpn=           3           0           0           5           1           0           1           1           1           0
 AtZEff=  -0.0000000  -0.0000000  -0.0000000  -0.0000000  -0.0000000  -0.0000000  -0.0000000  -0.0000000  -0.0000000  -0.0000000
 NQMom= -172.0000000   0.0000000   0.0000000 -71.0000000   0.0000000   0.0000000   0.0000000   0.0000000   0.0000000   0.0000000
 NMagM=    2.0100000   0.0000000   0.0000000   2.8132800   2.7928460   0.0000000   2.7928460   2.7928460   2.7928460   0.0000000
 AtZNuc=  91.0000000   8.0000000   8.0000000  53.0000000   1.0000000   8.0000000   1.0000000   1.0000000   1.0000000   8.0000000
 Leave Link  101 at Wed Jun 28 14:00:57 2023, MaxMem=  2147483648 cpu:               0.8 elap:               0.2
 (Enter /home/pcmt/gaussian/g16.C.01/g16/l202.exe)
                          Input orientation:                          
 ---------------------------------------------------------------------
 Center     Atomic      Atomic             Coordinates (Angstroms)
 Number     Number       Type             X           Y           Z
 ---------------------------------------------------------------------
      1         91           0       -0.359150   -0.031506    0.700712
      2          8           0        1.045089    1.457685    0.107513
      3          8           0       -1.708166    0.792084   -0.668505
      4         53           0       -1.581307    1.569118    3.109865
      5          1           0       -1.690153    1.578152   -1.232040
      6          8           0        0.161443   -1.606161   -1.151943
      7          1           0       -0.189696   -1.567572   -2.051331
      8          1           0        0.818217   -2.314239   -1.126432
      9          1           0        1.966985    1.550055    0.376278
     10          8           0        0.815730   -1.017877    1.739151
 ---------------------------------------------------------------------
                    Distance matrix (angstroms):
                    1          2          3          4          5
     1  Pa   0.000000
     2  O    2.131070   0.000000
     3  O    2.091148   2.936944   0.000000
     4  I    3.140014   3.990551   3.859528   0.000000
     5  H    2.845716   3.048027   0.967368   4.343279   0.000000
     6  O    2.486540   3.428442   3.079079   5.593083   3.684383
     7  H    3.156256   3.916310   3.128247   6.197850   3.580250
     8  H    3.152065   3.975111   4.030080   6.227712   4.631823
     9  H    2.831518   0.964706   3.895231   4.479201   3.995264
    10  O    1.852465   2.973761   3.929735   3.783807   4.674056
                    6          7          8          9         10
     6  O    0.000000
     7  H    0.966275   0.000000
     8  H    0.966115   1.558473   0.000000
     9  H    3.944254   4.501572   4.302392   0.000000
    10  O    3.022018   3.959899   3.145175   3.126834   0.000000
 Stoichiometry    H4IO4Pa
 Framework group  C1[X(H4IO4Pa)]
 Deg. of freedom    24
 Full point group                 C1      NOp   1
 Largest Abelian subgroup         C1      NOp   1
 Largest concise Abelian subgroup C1      NOp   1
                         Standard orientation:                         
 ---------------------------------------------------------------------
 Center     Atomic      Atomic             Coordinates (Angstroms)
 Number     Number       Type             X           Y           Z
 ---------------------------------------------------------------------
      1         91           0        0.756993   -0.054239   -0.072952
      2          8           0        1.007546    0.199592    2.028061
      3          8           0        0.901319    2.022373   -0.272337
      4         53           0       -2.382464    0.004686   -0.068207
      5          1           0        0.954643    2.751154    0.361568
      6          8           0        3.184072   -0.015841   -0.612116
      7          1           0        3.732481    0.771532   -0.726044
      8          1           0        3.766669   -0.785114   -0.658777
      9          1           0        1.101333   -0.481401    2.704900
     10          8           0        0.885694   -1.902228   -0.072121
 ---------------------------------------------------------------------
 Rotational constants (GHZ):           2.3304179           0.4322371           0.4143747
 Leave Link  202 at Wed Jun 28 14:00:57 2023, MaxMem=  2147483648 cpu:               0.1 elap:               0.1
 (Enter /home/pcmt/gaussian/g16.C.01/g16/l301.exe)
 General basis read from cards:  (5D, 7F)
 Centers:       1
 S 3 1.00
     Exponent=  1.2047376000D+04 Coefficients=  3.4500000000D-04
     Exponent=  1.8116841000D+03 Coefficients=  2.7420000000D-03
     Exponent=  3.4770104000D+02 Coefficients=  1.0053000000D-02
 S 1 1.00
     Exponent=  9.8678010000D+01 Coefficients=  1.0000000000D+00
 S 3 1.00
     Exponent=  5.7507376000D+01 Coefficients=  5.1528000000D-02
     Exponent=  3.3502601000D+01 Coefficients= -2.3692400000D-01
     Exponent=  1.9554451000D+01 Coefficients=  7.1904800000D-01
 S 1 1.00
     Exponent=  9.7164210000D+00 Coefficients=  1.0000000000D+00
 S 1 1.00
     Exponent=  2.6920960000D+00 Coefficients=  1.0000000000D+00
 S 1 1.00
     Exponent=  1.4538470000D+00 Coefficients=  1.0000000000D+00
 S 1 1.00
     Exponent=  5.7435200000D-01 Coefficients=  1.0000000000D+00
 S 1 1.00
     Exponent=  2.6346800000D-01 Coefficients=  1.0000000000D+00
 S 1 1.00
     Exponent=  5.6557000000D-02 Coefficients=  1.0000000000D+00
 S 1 1.00
     Exponent=  2.3169000000D-02 Coefficients=  1.0000000000D+00
 P 5 1.00
     Exponent=  2.9033676000D+03 Coefficients=  3.5000000000D-05
     Exponent=  6.4486356000D+02 Coefficients=  2.0500000000D-04
     Exponent=  2.2025896000D+02 Coefficients=  1.2510000000D-03
     Exponent=  8.0276401000D+01 Coefficients=  2.4570000000D-03
     Exponent=  2.4080211000D+01 Coefficients=  1.1190000000D-02
 P 1 1.00
     Exponent=  1.4077580000D+01 Coefficients=  1.0000000000D+00
 P 1 1.00
     Exponent=  8.2658460000D+00 Coefficients=  1.0000000000D+00
 P 1 1.00
     Exponent=  3.5948000000D+00 Coefficients=  1.0000000000D+00
 P 1 1.00
     Exponent=  1.7531110000D+00 Coefficients=  1.0000000000D+00
 P 1 1.00
     Exponent=  6.5776700000D-01 Coefficients=  1.0000000000D+00
 P 1 1.00
     Exponent=  2.8463900000D-01 Coefficients=  1.0000000000D+00
 P 1 1.00
     Exponent=  1.0054300000D-01 Coefficients=  1.0000000000D+00
 P 1 1.00
     Exponent=  3.0190000000D-02 Coefficients=  1.0000000000D+00
 D 6 1.00
     Exponent=  4.4814991000D+02 Coefficients=  2.6000000000D-05
     Exponent=  1.5446145000D+02 Coefficients=  2.2800000000D-04
     Exponent=  6.0925377000D+01 Coefficients=  9.0400000000D-04
     Exponent=  1.7032091000D+01 Coefficients=  2.5647000000D-02
     Exponent=  1.0018877000D+01 Coefficients= -1.0575100000D-01
     Exponent=  3.4091930000D+00 Coefficients=  4.4743200000D-01
 D 1 1.00
     Exponent=  1.6702130000D+00 Coefficients=  1.0000000000D+00
 D 1 1.00
     Exponent=  7.4109500000D-01 Coefficients=  1.0000000000D+00
 D 1 1.00
     Exponent=  2.6139300000D-01 Coefficients=  1.0000000000D+00
 D 1 1.00
     Exponent=  8.2811000000D-02 Coefficients=  1.0000000000D+00
 F 5 1.00
     Exponent=  8.7991327000D+01 Coefficients=  2.2600000000D-04
     Exponent=  2.8340195000D+01 Coefficients=  2.3230000000D-03
     Exponent=  1.2440994000D+01 Coefficients=  4.5850000000D-03
     Exponent=  3.9572960000D+00 Coefficients=  1.5696100000D-01
     Exponent=  1.8759440000D+00 Coefficients=  3.4497700000D-01
 F 1 1.00
     Exponent=  8.2758900000D-01 Coefficients=  1.0000000000D+00
 F 1 1.00
     Exponent=  3.3274800000D-01 Coefficients=  1.0000000000D+00
 F 1 1.00
     Exponent=  1.1468500000D-01 Coefficients=  1.0000000000D+00
 G 1 1.00
     Exponent=  3.5000000000D-01 Coefficients=  1.0000000000D+00
 ****
 Centers:       2      3      6     10
 Def2TZVP
 ****
 Centers:       5      7      8      9
 Def2TZVP
 ****
 Centers:       4
 Def2TZVP
 ****
 ======================================================================================================
                                       Pseudopotential Parameters
 ======================================================================================================
  Center     Atomic      Valence      Angular      Power
  Number     Number     Electrons     Momentum     of R      Exponent        Coefficient   SO-Coeffient
 ======================================================================================================
    1         91           31
                                      H and up 
                                                     2        1.0000000        0.00000000    0.00000000
                                      S - H
                                                     2       15.2691737      475.47573283    0.00000000
                                      P - H
                                                     2        9.9577370      207.66485962    0.00000000
                                      D - H
                                                     2        8.9431413      156.67411988    0.00000000
                                      F - H
                                                     2        7.0104666       67.98223685    0.00000000
                                      G - H
                                                     2       12.2010560      -57.63059989    0.00000000
    2          8
                                   No pseudopotential on this center.
    3          8
                                   No pseudopotential on this center.
    4         53           25
                                      G and up 
                                                     2        1.0000000        0.00000000    0.00000000
                                      S - G
                                                     2       40.0158350       49.99429300    0.00000000
                                                     2       17.4297470      281.02531700    0.00000000
                                                     2        9.0054840       61.57332600    0.00000000
                                      P - G
                                                     2       15.3554660       67.44284100    0.00000000
                                                     2       14.9718330      134.88113700    0.00000000
                                                     2        8.9601640       14.67505100    0.00000000
                                                     2        8.2590960       29.37566600    0.00000000
                                      D - G
                                                     2       15.0689080       35.43952900    0.00000000
                                                     2       14.5553220       53.17605700    0.00000000
                                                     2        6.7186470        9.06719500    0.00000000
                                                     2        6.4563930       13.20693700    0.00000000
                                                     2        1.1917790        0.08933500    0.00000000
                                                     2        1.2911570        0.05238000    0.00000000
                                      F - G
                                                     2       19.4586090      -21.84204000    0.00000000
                                                     2       19.3492600      -28.46819100    0.00000000
                                                     2        4.8237670       -0.24371300    0.00000000
                                                     2        4.8843150       -0.32080400    0.00000000
    5          1
                                   No pseudopotential on this center.
    6          8
                                   No pseudopotential on this center.
    7          1
                                   No pseudopotential on this center.
    8          1
                                   No pseudopotential on this center.
    9          1
                                   No pseudopotential on this center.
   10          8
                                   No pseudopotential on this center.
 ======================================================================================================
 Ernie: Thresh=  0.10000D-02 Tol=  0.10000D-05 Strict=F.
 AO basis set in the form of general basis input (Overlap normalization):
      1 0
 S   3 1.00       0.000000000000
      0.1204737600D+05  0.2857094961D-01
      0.1811684100D+04  0.2270769386D+00
      0.3477010400D+03  0.8325326273D+00
 S   3 1.00       0.000000000000
      0.5750737600D+02  0.9569327984D-01
      0.3350260100D+02 -0.4399944619D+00
      0.1955445100D+02  0.1335352847D+01
 S   1 1.00       0.000000000000
      0.9867801000D+02  0.1000000000D+01
 S   1 1.00       0.000000000000
      0.9716421000D+01  0.1000000000D+01
 S   1 1.00       0.000000000000
      0.2692096000D+01  0.1000000000D+01
 S   1 1.00       0.000000000000
      0.1453847000D+01  0.1000000000D+01
 S   1 1.00       0.000000000000
      0.5743520000D+00  0.1000000000D+01
 S   1 1.00       0.000000000000
      0.2634680000D+00  0.1000000000D+01
 S   1 1.00       0.000000000000
      0.5655700000D-01  0.1000000000D+01
 S   1 1.00       0.000000000000
      0.2316900000D-01  0.1000000000D+01
 P   5 1.00       0.000000000000
      0.2903367600D+04  0.2594222647D-02
      0.6448635600D+03  0.1519473264D-01
      0.2202589600D+03  0.9272492945D-01
      0.8027640100D+02  0.1821144298D+00
      0.2408021100D+02  0.8294100404D+00
 P   1 1.00       0.000000000000
      0.1407758000D+02  0.1000000000D+01
 P   1 1.00       0.000000000000
      0.8265846000D+01  0.1000000000D+01
 P   1 1.00       0.000000000000
      0.3594800000D+01  0.1000000000D+01
 P   1 1.00       0.000000000000
      0.1753111000D+01  0.1000000000D+01
 P   1 1.00       0.000000000000
      0.6577670000D+00  0.1000000000D+01
 P   1 1.00       0.000000000000
      0.2846390000D+00  0.1000000000D+01
 P   1 1.00       0.000000000000
      0.1005430000D+00  0.1000000000D+01
 P   1 1.00       0.000000000000
      0.3019000000D-01  0.1000000000D+01
 D   6 1.00       0.000000000000
      0.4481499100D+03  0.6556927566D-04
      0.1544614500D+03  0.5749921096D-03
      0.6092537700D+02  0.2279793277D-02
      0.1703209100D+02  0.6467904664D-01
      0.1001887700D+02 -0.2666929411D+00
      0.3409193000D+01  0.1128376621D+01
 D   1 1.00       0.000000000000
      0.1670213000D+01  0.1000000000D+01
 D   1 1.00       0.000000000000
      0.7410950000D+00  0.1000000000D+01
 D   1 1.00       0.000000000000
      0.2613930000D+00  0.1000000000D+01
 D   1 1.00       0.000000000000
      0.8281100000D-01  0.1000000000D+01
 F   5 1.00       0.000000000000
      0.8799132700D+02  0.4766318191D-03
      0.2834019500D+02  0.4899184583D-02
      0.1244099400D+02  0.9669720755D-02
      0.3957296000D+01  0.3310292343D+00
      0.1875944000D+01  0.7275531640D+00
 F   1 1.00       0.000000000000
      0.8275890000D+00  0.1000000000D+01
 F   1 1.00       0.000000000000
      0.3327480000D+00  0.1000000000D+01
 F   1 1.00       0.000000000000
      0.1146850000D+00  0.1000000000D+01
 G   1 1.00       0.000000000000
      0.3500000000D+00  0.1000000000D+01
 ****
      2 0
 S   6 1.00       0.000000000000
      0.2703238263D+05  0.5722733521D-03
      0.4052387139D+04  0.4435323349D-02
      0.9223272271D+03  0.2302010771D-01
      0.2612407099D+03  0.9282249067D-01
      0.8535464135D+02  0.2937850001D+00
      0.3103503524D+02  0.6740160450D+00
 S   2 1.00       0.000000000000
      0.1226086073D+02  0.6383993703D+00
      0.4998707601D+01  0.3953458713D+00
 S   1 1.00       0.000000000000
      0.1170310816D+01  0.1000000000D+01
 S   1 1.00       0.000000000000
      0.4647474099D+00  0.1000000000D+01
 S   1 1.00       0.000000000000
      0.1850453636D+00  0.1000000000D+01
 P   4 1.00       0.000000000000
      0.6327495480D+02  0.1201833222D-01
      0.1462704938D+02  0.8300542179D-01
      0.4450122346D+01  0.3199174393D+00
      0.1527579965D+01  0.7071554292D+00
 P   1 1.00       0.000000000000
      0.5293511794D+00  0.1000000000D+01
 P   1 1.00       0.000000000000
      0.1747842127D+00  0.1000000000D+01
 D   1 1.00       0.000000000000
      0.2314000000D+01  0.1000000000D+01
 D   1 1.00       0.000000000000
      0.6450000000D+00  0.1000000000D+01
 F   1 1.00       0.000000000000
      0.1428000000D+01  0.1000000000D+01
 ****
      3 0
 S   6 1.00       0.000000000000
      0.2703238263D+05  0.5722733521D-03
      0.4052387139D+04  0.4435323349D-02
      0.9223272271D+03  0.2302010771D-01
      0.2612407099D+03  0.9282249067D-01
      0.8535464135D+02  0.2937850001D+00
      0.3103503524D+02  0.6740160450D+00
 S   2 1.00       0.000000000000
      0.1226086073D+02  0.6383993703D+00
      0.4998707601D+01  0.3953458713D+00
 S   1 1.00       0.000000000000
      0.1170310816D+01  0.1000000000D+01
 S   1 1.00       0.000000000000
      0.4647474099D+00  0.1000000000D+01
 S   1 1.00       0.000000000000
      0.1850453636D+00  0.1000000000D+01
 P   4 1.00       0.000000000000
      0.6327495480D+02  0.1201833222D-01
      0.1462704938D+02  0.8300542179D-01
      0.4450122346D+01  0.3199174393D+00
      0.1527579965D+01  0.7071554292D+00
 P   1 1.00       0.000000000000
      0.5293511794D+00  0.1000000000D+01
 P   1 1.00       0.000000000000
      0.1747842127D+00  0.1000000000D+01
 D   1 1.00       0.000000000000
      0.2314000000D+01  0.1000000000D+01
 D   1 1.00       0.000000000000
      0.6450000000D+00  0.1000000000D+01
 F   1 1.00       0.000000000000
      0.1428000000D+01  0.1000000000D+01
 ****
      4 0
 S   5 1.00       0.000000000000
      0.5899579153D+04  0.2610056321D-03
      0.8985423877D+03  0.1669739989D-02
      0.2003723791D+03  0.4622329849D-02
      0.3141805384D+02 -0.4253426840D-01
      0.1564598784D+02  0.1036831842D+01
 S   2 1.00       0.000000000000
      0.1181574186D+02  0.6510798928D+00
      0.6461445829D+01  0.3642365936D+00
 S   1 1.00       0.000000000000
      0.2383806758D+01  0.1000000000D+01
 S   1 1.00       0.000000000000
      0.1171208966D+01  0.1000000000D+01
 S   1 1.00       0.000000000000
      0.3211587576D+00  0.1000000000D+01
 S   1 1.00       0.000000000000
      0.1238791936D+00  0.1000000000D+01
 P   4 1.00       0.000000000000
      0.1298431690D+02 -0.3868165906D-01
      0.3619950301D+01  0.3065970959D+00
      0.2023227309D+01  0.5169312450D+00
      0.1036749056D+01  0.2505722415D+00
 P   3 1.00       0.000000000000
      0.1973003055D+03  0.3192774173D-02
      0.2006141135D+02  0.2856760153D+00
      0.9763146048D+01 -0.1232820499D+01
 P   1 1.00       0.000000000000
      0.4593781600D+00  0.1000000000D+01
 P   1 1.00       0.000000000000
      0.1911653293D+00  0.1000000000D+01
 P   1 1.00       0.000000000000
      0.7487881302D-01  0.1000000000D+01
 D   6 1.00       0.000000000000
      0.1191267175D+03  0.8836386893D-03
      0.3340424013D+02  0.7315261132D-02
      0.1780591820D+02 -0.1102799620D-01
      0.4899051035D+01  0.2425357632D+00
      0.2451675311D+01  0.4726529041D+00
      0.1182069343D+01  0.3934356931D+00
 D   1 1.00       0.000000000000
      0.5292311007D+00  0.1000000000D+01
 D   1 1.00       0.000000000000
      0.1700000000D+00  0.1000000000D+01
 F   1 1.00       0.000000000000
      0.4414180800D+00  0.1000000000D+01
 F   1 1.00       0.000000000000
      0.2180000000D+01  0.1000000000D+01
 ****
      5 0
 S   3 1.00       0.000000000000
      0.3406134100D+02  0.2543930721D-01
      0.5123574600D+01  0.1900859489D+00
      0.1164662600D+01  0.8524411301D+00
 S   1 1.00       0.000000000000
      0.3272304100D+00  0.1000000000D+01
 S   1 1.00       0.000000000000
      0.1030724100D+00  0.1000000000D+01
 P   1 1.00       0.000000000000
      0.8000000000D+00  0.1000000000D+01
 ****
      6 0
 S   6 1.00       0.000000000000
      0.2703238263D+05  0.5722733521D-03
      0.4052387139D+04  0.4435323349D-02
      0.9223272271D+03  0.2302010771D-01
      0.2612407099D+03  0.9282249067D-01
      0.8535464135D+02  0.2937850001D+00
      0.3103503524D+02  0.6740160450D+00
 S   2 1.00       0.000000000000
      0.1226086073D+02  0.6383993703D+00
      0.4998707601D+01  0.3953458713D+00
 S   1 1.00       0.000000000000
      0.1170310816D+01  0.1000000000D+01
 S   1 1.00       0.000000000000
      0.4647474099D+00  0.1000000000D+01
 S   1 1.00       0.000000000000
      0.1850453636D+00  0.1000000000D+01
 P   4 1.00       0.000000000000
      0.6327495480D+02  0.1201833222D-01
      0.1462704938D+02  0.8300542179D-01
      0.4450122346D+01  0.3199174393D+00
      0.1527579965D+01  0.7071554292D+00
 P   1 1.00       0.000000000000
      0.5293511794D+00  0.1000000000D+01
 P   1 1.00       0.000000000000
      0.1747842127D+00  0.1000000000D+01
 D   1 1.00       0.000000000000
      0.2314000000D+01  0.1000000000D+01
 D   1 1.00       0.000000000000
      0.6450000000D+00  0.1000000000D+01
 F   1 1.00       0.000000000000
      0.1428000000D+01  0.1000000000D+01
 ****
      7 0
 S   3 1.00       0.000000000000
      0.3406134100D+02  0.2543930721D-01
      0.5123574600D+01  0.1900859489D+00
      0.1164662600D+01  0.8524411301D+00
 S   1 1.00       0.000000000000
      0.3272304100D+00  0.1000000000D+01
 S   1 1.00       0.000000000000
      0.1030724100D+00  0.1000000000D+01
 P   1 1.00       0.000000000000
      0.8000000000D+00  0.1000000000D+01
 ****
      8 0
 S   3 1.00       0.000000000000
      0.3406134100D+02  0.2543930721D-01
      0.5123574600D+01  0.1900859489D+00
      0.1164662600D+01  0.8524411301D+00
 S   1 1.00       0.000000000000
      0.3272304100D+00  0.1000000000D+01
 S   1 1.00       0.000000000000
      0.1030724100D+00  0.1000000000D+01
 P   1 1.00       0.000000000000
      0.8000000000D+00  0.1000000000D+01
 ****
      9 0
 S   3 1.00       0.000000000000
      0.3406134100D+02  0.2543930721D-01
      0.5123574600D+01  0.1900859489D+00
      0.1164662600D+01  0.8524411301D+00
 S   1 1.00       0.000000000000
      0.3272304100D+00  0.1000000000D+01
 S   1 1.00       0.000000000000
      0.1030724100D+00  0.1000000000D+01
 P   1 1.00       0.000000000000
      0.8000000000D+00  0.1000000000D+01
 ****
     10 0
 S   6 1.00       0.000000000000
      0.2703238263D+05  0.5722733521D-03
      0.4052387139D+04  0.4435323349D-02
      0.9223272271D+03  0.2302010771D-01
      0.2612407099D+03  0.9282249067D-01
      0.8535464135D+02  0.2937850001D+00
      0.3103503524D+02  0.6740160450D+00
 S   2 1.00       0.000000000000
      0.1226086073D+02  0.6383993703D+00
      0.4998707601D+01  0.3953458713D+00
 S   1 1.00       0.000000000000
      0.1170310816D+01  0.1000000000D+01
 S   1 1.00       0.000000000000
      0.4647474099D+00  0.1000000000D+01
 S   1 1.00       0.000000000000
      0.1850453636D+00  0.1000000000D+01
 P   4 1.00       0.000000000000
      0.6327495480D+02  0.1201833222D-01
      0.1462704938D+02  0.8300542179D-01
      0.4450122346D+01  0.3199174393D+00
      0.1527579965D+01  0.7071554292D+00
 P   1 1.00       0.000000000000
      0.5293511794D+00  0.1000000000D+01
 P   1 1.00       0.000000000000
      0.1747842127D+00  0.1000000000D+01
 D   1 1.00       0.000000000000
      0.2314000000D+01  0.1000000000D+01
 D   1 1.00       0.000000000000
      0.6450000000D+00  0.1000000000D+01
 F   1 1.00       0.000000000000
      0.1428000000D+01  0.1000000000D+01
 ****

 AO basis set (Overlap normalization):
 Atom Pa1      Shell     1 S   3     bf    1 -     1          1.430510350622         -0.102495975434         -0.137858418674
      0.1204737600D+05  0.2857094961D-01
      0.1811684100D+04  0.2270769386D+00
      0.3477010400D+03  0.8325326273D+00
 Atom Pa1      Shell     2 S   3     bf    2 -     2          1.430510350622         -0.102495975434         -0.137858418674
      0.5750737600D+02  0.9569327984D-01
      0.3350260100D+02 -0.4399944619D+00
      0.1955445100D+02  0.1335352847D+01
 Atom Pa1      Shell     3 S   1     bf    3 -     3          1.430510350622         -0.102495975434         -0.137858418674
      0.9867801000D+02  0.1000000000D+01
 Atom Pa1      Shell     4 S   1     bf    4 -     4          1.430510350622         -0.102495975434         -0.137858418674
      0.9716421000D+01  0.1000000000D+01
 Atom Pa1      Shell     5 S   1     bf    5 -     5          1.430510350622         -0.102495975434         -0.137858418674
      0.2692096000D+01  0.1000000000D+01
 Atom Pa1      Shell     6 S   1     bf    6 -     6          1.430510350622         -0.102495975434         -0.137858418674
      0.1453847000D+01  0.1000000000D+01
 Atom Pa1      Shell     7 S   1     bf    7 -     7          1.430510350622         -0.102495975434         -0.137858418674
      0.5743520000D+00  0.1000000000D+01
 Atom Pa1      Shell     8 S   1     bf    8 -     8          1.430510350622         -0.102495975434         -0.137858418674
      0.2634680000D+00  0.1000000000D+01
 Atom Pa1      Shell     9 S   1     bf    9 -     9          1.430510350622         -0.102495975434         -0.137858418674
      0.5655700000D-01  0.1000000000D+01
 Atom Pa1      Shell    10 S   1     bf   10 -    10          1.430510350622         -0.102495975434         -0.137858418674
      0.2316900000D-01  0.1000000000D+01
 Atom Pa1      Shell    11 P   5     bf   11 -    13          1.430510350622         -0.102495975434         -0.137858418674
      0.2903367600D+04  0.2594222647D-02
      0.6448635600D+03  0.1519473264D-01
      0.2202589600D+03  0.9272492945D-01
      0.8027640100D+02  0.1821144298D+00
      0.2408021100D+02  0.8294100404D+00
 Atom Pa1      Shell    12 P   1     bf   14 -    16          1.430510350622         -0.102495975434         -0.137858418674
      0.1407758000D+02  0.1000000000D+01
 Atom Pa1      Shell    13 P   1     bf   17 -    19          1.430510350622         -0.102495975434         -0.137858418674
      0.8265846000D+01  0.1000000000D+01
 Atom Pa1      Shell    14 P   1     bf   20 -    22          1.430510350622         -0.102495975434         -0.137858418674
      0.3594800000D+01  0.1000000000D+01
 Atom Pa1      Shell    15 P   1     bf   23 -    25          1.430510350622         -0.102495975434         -0.137858418674
      0.1753111000D+01  0.1000000000D+01
 Atom Pa1      Shell    16 P   1     bf   26 -    28          1.430510350622         -0.102495975434         -0.137858418674
      0.6577670000D+00  0.1000000000D+01
 Atom Pa1      Shell    17 P   1     bf   29 -    31          1.430510350622         -0.102495975434         -0.137858418674
      0.2846390000D+00  0.1000000000D+01
 Atom Pa1      Shell    18 P   1     bf   32 -    34          1.430510350622         -0.102495975434         -0.137858418674
      0.1005430000D+00  0.1000000000D+01
 Atom Pa1      Shell    19 P   1     bf   35 -    37          1.430510350622         -0.102495975434         -0.137858418674
      0.3019000000D-01  0.1000000000D+01
 Atom Pa1      Shell    20 D   6     bf   38 -    42          1.430510350622         -0.102495975434         -0.137858418674
      0.4481499100D+03  0.6556927566D-04
      0.1544614500D+03  0.5749921096D-03
      0.6092537700D+02  0.2279793277D-02
      0.1703209100D+02  0.6467904664D-01
      0.1001887700D+02 -0.2666929411D+00
      0.3409193000D+01  0.1128376621D+01
 Atom Pa1      Shell    21 D   1     bf   43 -    47          1.430510350622         -0.102495975434         -0.137858418674
      0.1670213000D+01  0.1000000000D+01
 Atom Pa1      Shell    22 D   1     bf   48 -    52          1.430510350622         -0.102495975434         -0.137858418674
      0.7410950000D+00  0.1000000000D+01
 Atom Pa1      Shell    23 D   1     bf   53 -    57          1.430510350622         -0.102495975434         -0.137858418674
      0.2613930000D+00  0.1000000000D+01
 Atom Pa1      Shell    24 D   1     bf   58 -    62          1.430510350622         -0.102495975434         -0.137858418674
      0.8281100000D-01  0.1000000000D+01
 Atom Pa1      Shell    25 F   5     bf   63 -    69          1.430510350622         -0.102495975434         -0.137858418674
      0.8799132700D+02  0.4766318191D-03
      0.2834019500D+02  0.4899184583D-02
      0.1244099400D+02  0.9669720755D-02
      0.3957296000D+01  0.3310292343D+00
      0.1875944000D+01  0.7275531640D+00
 Atom Pa1      Shell    26 F   1     bf   70 -    76          1.430510350622         -0.102495975434         -0.137858418674
      0.8275890000D+00  0.1000000000D+01
 Atom Pa1      Shell    27 F   1     bf   77 -    83          1.430510350622         -0.102495975434         -0.137858418674
      0.3327480000D+00  0.1000000000D+01
 Atom Pa1      Shell    28 F   1     bf   84 -    90          1.430510350622         -0.102495975434         -0.137858418674
      0.1146850000D+00  0.1000000000D+01
 Atom Pa1      Shell    29 G   1     bf   91 -    99          1.430510350622         -0.102495975434         -0.137858418674
      0.3500000000D+00  0.1000000000D+01
 Atom O2       Shell    30 S   6     bf  100 -   100          1.903985897812          0.377174349274          3.832479930373
      0.2703238263D+05  0.5722733521D-03
      0.4052387139D+04  0.4435323349D-02
      0.9223272271D+03  0.2302010771D-01
      0.2612407099D+03  0.9282249067D-01
      0.8535464135D+02  0.2937850001D+00
      0.3103503524D+02  0.6740160450D+00
 Atom O2       Shell    31 S   2     bf  101 -   101          1.903985897812          0.377174349274          3.832479930373
      0.1226086073D+02  0.6383993703D+00
      0.4998707601D+01  0.3953458713D+00
 Atom O2       Shell    32 S   1     bf  102 -   102          1.903985897812          0.377174349274          3.832479930373
      0.1170310816D+01  0.1000000000D+01
 Atom O2       Shell    33 S   1     bf  103 -   103          1.903985897812          0.377174349274          3.832479930373
      0.4647474099D+00  0.1000000000D+01
 Atom O2       Shell    34 S   1     bf  104 -   104          1.903985897812          0.377174349274          3.832479930373
      0.1850453636D+00  0.1000000000D+01
 Atom O2       Shell    35 P   4     bf  105 -   107          1.903985897812          0.377174349274          3.832479930373
      0.6327495480D+02  0.1201833222D-01
      0.1462704938D+02  0.8300542179D-01
      0.4450122346D+01  0.3199174393D+00
      0.1527579965D+01  0.7071554292D+00
 Atom O2       Shell    36 P   1     bf  108 -   110          1.903985897812          0.377174349274          3.832479930373
      0.5293511794D+00  0.1000000000D+01
 Atom O2       Shell    37 P   1     bf  111 -   113          1.903985897812          0.377174349274          3.832479930373
      0.1747842127D+00  0.1000000000D+01
 Atom O2       Shell    38 D   1     bf  114 -   118          1.903985897812          0.377174349274          3.832479930373
      0.2314000000D+01  0.1000000000D+01
 Atom O2       Shell    39 D   1     bf  119 -   123          1.903985897812          0.377174349274          3.832479930373
      0.6450000000D+00  0.1000000000D+01
 Atom O2       Shell    40 F   1     bf  124 -   130          1.903985897812          0.377174349274          3.832479930373
      0.1428000000D+01  0.1000000000D+01
 Atom O3       Shell    41 S   6     bf  131 -   131          1.703246032260          3.821730467552         -0.514641701315
      0.2703238263D+05  0.5722733521D-03
      0.4052387139D+04  0.4435323349D-02
      0.9223272271D+03  0.2302010771D-01
      0.2612407099D+03  0.9282249067D-01
      0.8535464135D+02  0.2937850001D+00
      0.3103503524D+02  0.6740160450D+00
 Atom O3       Shell    42 S   2     bf  132 -   132          1.703246032260          3.821730467552         -0.514641701315
      0.1226086073D+02  0.6383993703D+00
      0.4998707601D+01  0.3953458713D+00
 Atom O3       Shell    43 S   1     bf  133 -   133          1.703246032260          3.821730467552         -0.514641701315
      0.1170310816D+01  0.1000000000D+01
 Atom O3       Shell    44 S   1     bf  134 -   134          1.703246032260          3.821730467552         -0.514641701315
      0.4647474099D+00  0.1000000000D+01
 Atom O3       Shell    45 S   1     bf  135 -   135          1.703246032260          3.821730467552         -0.514641701315
      0.1850453636D+00  0.1000000000D+01
 Atom O3       Shell    46 P   4     bf  136 -   138          1.703246032260          3.821730467552         -0.514641701315
      0.6327495480D+02  0.1201833222D-01
      0.1462704938D+02  0.8300542179D-01
      0.4450122346D+01  0.3199174393D+00
      0.1527579965D+01  0.7071554292D+00
 Atom O3       Shell    47 P   1     bf  139 -   141          1.703246032260          3.821730467552         -0.514641701315
      0.5293511794D+00  0.1000000000D+01
 Atom O3       Shell    48 P   1     bf  142 -   144          1.703246032260          3.821730467552         -0.514641701315
      0.1747842127D+00  0.1000000000D+01
 Atom O3       Shell    49 D   1     bf  145 -   149          1.703246032260          3.821730467552         -0.514641701315
      0.2314000000D+01  0.1000000000D+01
 Atom O3       Shell    50 D   1     bf  150 -   154          1.703246032260          3.821730467552         -0.514641701315
      0.6450000000D+00  0.1000000000D+01
 Atom O3       Shell    51 F   1     bf  155 -   161          1.703246032260          3.821730467552         -0.514641701315
      0.1428000000D+01  0.1000000000D+01
 Atom I4       Shell    52 S   5     bf  162 -   162         -4.502204169132          0.008855472656         -0.128892151977
      0.5899579153D+04  0.2610056321D-03
      0.8985423877D+03  0.1669739989D-02
      0.2003723791D+03  0.4622329849D-02
      0.3141805384D+02 -0.4253426840D-01
      0.1564598784D+02  0.1036831842D+01
 Atom I4       Shell    53 S   2     bf  163 -   163         -4.502204169132          0.008855472656         -0.128892151977
      0.1181574186D+02  0.6510798928D+00
      0.6461445829D+01  0.3642365936D+00
 Atom I4       Shell    54 S   1     bf  164 -   164         -4.502204169132          0.008855472656         -0.128892151977
      0.2383806758D+01  0.1000000000D+01
 Atom I4       Shell    55 S   1     bf  165 -   165         -4.502204169132          0.008855472656         -0.128892151977
      0.1171208966D+01  0.1000000000D+01
 Atom I4       Shell    56 S   1     bf  166 -   166         -4.502204169132          0.008855472656         -0.128892151977
      0.3211587576D+00  0.1000000000D+01
 Atom I4       Shell    57 S   1     bf  167 -   167         -4.502204169132          0.008855472656         -0.128892151977
      0.1238791936D+00  0.1000000000D+01
 Atom I4       Shell    58 P   4     bf  168 -   170         -4.502204169132          0.008855472656         -0.128892151977
      0.1298431690D+02 -0.3868165906D-01
      0.3619950301D+01  0.3065970959D+00
      0.2023227309D+01  0.5169312450D+00
      0.1036749056D+01  0.2505722415D+00
 Atom I4       Shell    59 P   3     bf  171 -   173         -4.502204169132          0.008855472656         -0.128892151977
      0.1973003055D+03  0.3192774173D-02
      0.2006141135D+02  0.2856760153D+00
      0.9763146048D+01 -0.1232820499D+01
 Atom I4       Shell    60 P   1     bf  174 -   176         -4.502204169132          0.008855472656         -0.128892151977
      0.4593781600D+00  0.1000000000D+01
 Atom I4       Shell    61 P   1     bf  177 -   179         -4.502204169132          0.008855472656         -0.128892151977
      0.1911653293D+00  0.1000000000D+01
 Atom I4       Shell    62 P   1     bf  180 -   182         -4.502204169132          0.008855472656         -0.128892151977
      0.7487881302D-01  0.1000000000D+01
 Atom I4       Shell    63 D   6     bf  183 -   187         -4.502204169132          0.008855472656         -0.128892151977
      0.1191267175D+03  0.8836386893D-03
      0.3340424013D+02  0.7315261132D-02
      0.1780591820D+02 -0.1102799620D-01
      0.4899051035D+01  0.2425357632D+00
      0.2451675311D+01  0.4726529041D+00
      0.1182069343D+01  0.3934356931D+00
 Atom I4       Shell    64 D   1     bf  188 -   192         -4.502204169132          0.008855472656         -0.128892151977
      0.5292311007D+00  0.1000000000D+01
 Atom I4       Shell    65 D   1     bf  193 -   197         -4.502204169132          0.008855472656         -0.128892151977
      0.1700000000D+00  0.1000000000D+01
 Atom I4       Shell    66 F   1     bf  198 -   204         -4.502204169132          0.008855472656         -0.128892151977
      0.4414180800D+00  0.1000000000D+01
 Atom I4       Shell    67 F   1     bf  205 -   211         -4.502204169132          0.008855472656         -0.128892151977
      0.2180000000D+01  0.1000000000D+01
 Atom H5       Shell    68 S   3     bf  212 -   212          1.804012889260          5.198927521801          0.683263601876
      0.3406134100D+02  0.2543930721D-01
      0.5123574600D+01  0.1900859489D+00
      0.1164662600D+01  0.8524411301D+00
 Atom H5       Shell    69 S   1     bf  213 -   213          1.804012889260          5.198927521801          0.683263601876
      0.3272304100D+00  0.1000000000D+01
 Atom H5       Shell    70 S   1     bf  214 -   214          1.804012889260          5.198927521801          0.683263601876
      0.1030724100D+00  0.1000000000D+01
 Atom H5       Shell    71 P   1     bf  215 -   217          1.804012889260          5.198927521801          0.683263601876
      0.8000000000D+00  0.1000000000D+01
 Atom O6       Shell    72 S   6     bf  218 -   218          6.017024377159         -0.029934535925         -1.156731436818
      0.2703238263D+05  0.5722733521D-03
      0.4052387139D+04  0.4435323349D-02
      0.9223272271D+03  0.2302010771D-01
      0.2612407099D+03  0.9282249067D-01
      0.8535464135D+02  0.2937850001D+00
      0.3103503524D+02  0.6740160450D+00
 Atom O6       Shell    73 S   2     bf  219 -   219          6.017024377159         -0.029934535925         -1.156731436818
      0.1226086073D+02  0.6383993703D+00
      0.4998707601D+01  0.3953458713D+00
 Atom O6       Shell    74 S   1     bf  220 -   220          6.017024377159         -0.029934535925         -1.156731436818
      0.1170310816D+01  0.1000000000D+01
 Atom O6       Shell    75 S   1     bf  221 -   221          6.017024377159         -0.029934535925         -1.156731436818
      0.4647474099D+00  0.1000000000D+01
 Atom O6       Shell    76 S   1     bf  222 -   222          6.017024377159         -0.029934535925         -1.156731436818
      0.1850453636D+00  0.1000000000D+01
 Atom O6       Shell    77 P   4     bf  223 -   225          6.017024377159         -0.029934535925         -1.156731436818
      0.6327495480D+02  0.1201833222D-01
      0.1462704938D+02  0.8300542179D-01
      0.4450122346D+01  0.3199174393D+00
      0.1527579965D+01  0.7071554292D+00
 Atom O6       Shell    78 P   1     bf  226 -   228          6.017024377159         -0.029934535925         -1.156731436818
      0.5293511794D+00  0.1000000000D+01
 Atom O6       Shell    79 P   1     bf  229 -   231          6.017024377159         -0.029934535925         -1.156731436818
      0.1747842127D+00  0.1000000000D+01
 Atom O6       Shell    80 D   1     bf  232 -   236          6.017024377159         -0.029934535925         -1.156731436818
      0.2314000000D+01  0.1000000000D+01
 Atom O6       Shell    81 D   1     bf  237 -   241          6.017024377159         -0.029934535925         -1.156731436818
      0.6450000000D+00  0.1000000000D+01
 Atom O6       Shell    82 F   1     bf  242 -   248          6.017024377159         -0.029934535925         -1.156731436818
      0.1428000000D+01  0.1000000000D+01
 Atom H7       Shell    83 S   3     bf  249 -   249          7.053366602083          1.457983312187         -1.372024518664
      0.3406134100D+02  0.2543930721D-01
      0.5123574600D+01  0.1900859489D+00
      0.1164662600D+01  0.8524411301D+00
 Atom H7       Shell    84 S   1     bf  250 -   250          7.053366602083          1.457983312187         -1.372024518664
      0.3272304100D+00  0.1000000000D+01
 Atom H7       Shell    85 S   1     bf  251 -   251          7.053366602083          1.457983312187         -1.372024518664
      0.1030724100D+00  0.1000000000D+01
 Atom H7       Shell    86 P   1     bf  252 -   254          7.053366602083          1.457983312187         -1.372024518664
      0.8000000000D+00  0.1000000000D+01
 Atom H8       Shell    87 S   3     bf  255 -   255          7.117972565626         -1.483650077194         -1.244908649676
      0.3406134100D+02  0.2543930721D-01
      0.5123574600D+01  0.1900859489D+00
      0.1164662600D+01  0.8524411301D+00
 Atom H8       Shell    88 S   1     bf  256 -   256          7.117972565626         -1.483650077194         -1.244908649676
      0.3272304100D+00  0.1000000000D+01
 Atom H8       Shell    89 S   1     bf  257 -   257          7.117972565626         -1.483650077194         -1.244908649676
      0.1030724100D+00  0.1000000000D+01
 Atom H8       Shell    90 P   1     bf  258 -   260          7.117972565626         -1.483650077194         -1.244908649676
      0.8000000000D+00  0.1000000000D+01
 Atom H9       Shell    91 S   3     bf  261 -   261          2.081218150266         -0.909716225866          5.111519691556
      0.3406134100D+02  0.2543930721D-01
      0.5123574600D+01  0.1900859489D+00
      0.1164662600D+01  0.8524411301D+00
 Atom H9       Shell    92 S   1     bf  262 -   262          2.081218150266         -0.909716225866          5.111519691556
      0.3272304100D+00  0.1000000000D+01
 Atom H9       Shell    93 S   1     bf  263 -   263          2.081218150266         -0.909716225866          5.111519691556
      0.1030724100D+00  0.1000000000D+01
 Atom H9       Shell    94 P   1     bf  264 -   266          2.081218150266         -0.909716225866          5.111519691556
      0.8000000000D+00  0.1000000000D+01
 Atom O10      Shell    95 S   6     bf  267 -   267          1.673719799038         -3.594689133054         -0.136288038611
      0.2703238263D+05  0.5722733521D-03
      0.4052387139D+04  0.4435323349D-02
      0.9223272271D+03  0.2302010771D-01
      0.2612407099D+03  0.9282249067D-01
      0.8535464135D+02  0.2937850001D+00
      0.3103503524D+02  0.6740160450D+00
 Atom O10      Shell    96 S   2     bf  268 -   268          1.673719799038         -3.594689133054         -0.136288038611
      0.1226086073D+02  0.6383993703D+00
      0.4998707601D+01  0.3953458713D+00
 Atom O10      Shell    97 S   1     bf  269 -   269          1.673719799038         -3.594689133054         -0.136288038611
      0.1170310816D+01  0.1000000000D+01
 Atom O10      Shell    98 S   1     bf  270 -   270          1.673719799038         -3.594689133054         -0.136288038611
      0.4647474099D+00  0.1000000000D+01
 Atom O10      Shell    99 S   1     bf  271 -   271          1.673719799038         -3.594689133054         -0.136288038611
      0.1850453636D+00  0.1000000000D+01
 Atom O10      Shell   100 P   4     bf  272 -   274          1.673719799038         -3.594689133054         -0.136288038611
      0.6327495480D+02  0.1201833222D-01
      0.1462704938D+02  0.8300542179D-01
      0.4450122346D+01  0.3199174393D+00
      0.1527579965D+01  0.7071554292D+00
 Atom O10      Shell   101 P   1     bf  275 -   277          1.673719799038         -3.594689133054         -0.136288038611
      0.5293511794D+00  0.1000000000D+01
 Atom O10      Shell   102 P   1     bf  278 -   280          1.673719799038         -3.594689133054         -0.136288038611
      0.1747842127D+00  0.1000000000D+01
 Atom O10      Shell   103 D   1     bf  281 -   285          1.673719799038         -3.594689133054         -0.136288038611
      0.2314000000D+01  0.1000000000D+01
 Atom O10      Shell   104 D   1     bf  286 -   290          1.673719799038         -3.594689133054         -0.136288038611
      0.6450000000D+00  0.1000000000D+01
 Atom O10      Shell   105 F   1     bf  291 -   297          1.673719799038         -3.594689133054         -0.136288038611
      0.1428000000D+01  0.1000000000D+01
 Effective core potential in the form of general ECP input:
      1 0
 Pa1-ECP   5 60
 H component
  1
  2        1.0000000        0.00000000    0.00000000
 S-H projection
  1
  2       15.2691737      475.47573283    0.00000000
 P-H projection
  1
  2        9.9577370      207.66485962    0.00000000
 D-H projection
  1
  2        8.9431413      156.67411988    0.00000000
 F-H projection
  1
  2        7.0104666       67.98223685    0.00000000
 G-H projection
  1
  2       12.2010560      -57.63059989    0.00000000
      4 0
 I4-ECP   4 28
 G component
  1
  2        1.0000000        0.00000000    0.00000000
 S-G projection
  3
  2       40.0158350       49.99429300    0.00000000
  2       17.4297470      281.02531700    0.00000000
  2        9.0054840       61.57332600    0.00000000
 P-G projection
  4
  2       15.3554660       67.44284100    0.00000000
  2       14.9718330      134.88113700    0.00000000
  2        8.9601640       14.67505100    0.00000000
  2        8.2590960       29.37566600    0.00000000
 D-G projection
  6
  2       15.0689080       35.43952900    0.00000000
  2       14.5553220       53.17605700    0.00000000
  2        6.7186470        9.06719500    0.00000000
  2        6.4563930       13.20693700    0.00000000
  2        1.1917790        0.08933500    0.00000000
  2        1.2911570        0.05238000    0.00000000
 F-G projection
  4
  2       19.4586090      -21.84204000    0.00000000
  2       19.3492600      -28.46819100    0.00000000
  2        4.8237670       -0.24371300    0.00000000
  2        4.8843150       -0.32080400    0.00000000
 
 There are   349 symmetry adapted cartesian basis functions of A   symmetry.
 There are   297 symmetry adapted basis functions of A   symmetry.
   297 basis functions,   553 primitive gaussians,   349 cartesian basis functions
    46 alpha electrons       46 beta electrons
       nuclear repulsion energy       607.6732517469 Hartrees.
 IExCor=  404 DFT=T Ex=B Corr=P86 ExCW=0 ScaHFX=  0.000000
 ScaDFX=  1.000000  1.000000  1.000000  1.000000 ScalE2=  1.000000  1.000000
 IRadAn=      5 IRanWt=     -1 IRanGd=            0 ICorTp=0 IEmpDi=  4
 NAtoms=   10 NActive=   10 NUniq=   10 SFac= 1.00D+00 NAtFMM=   60 NAOKFM=F Big=F
 Integral buffers will be    131072 words long.
 Raffenetti 2 integral format.
 Two-electron integral symmetry is turned on.
 Warning! Using old PCM defaults because the COSMOthermo output has been requested.
 These settings can be overridden by following keywords.
 Using the following non-standard input for PCM:
 --- end of non-standard input.
 ------------------------------------------------------------------------------
 Polarizable Continuum Model (PCM)
 =================================
 Model                : C-PCM.
 Atomic radii         : Klamt.
 XCosmo               : -1.000 (infinite dielectric limit)
 Polarization charges : Electronic and nuclear charges.
 Charge compensation  : Type 3 (Electronic density weighted correction).
 Solution method      : On-the-fly selection.
 Cavity type          : VdW (van der Waals Surface) (Alpha=1.000).
 Cavity algorithm     : GePol (No added spheres)
                        Default sphere list used, NSphG=   10.
                        Tesserae with average area of 0.200 Ang**2.
                        Smoothing algorithm: None.
                        Polarization charges: point-like.
                        Self-potential: constant (ISelfS= 1).
                        Self-field    : global E.n sum rule (ISelfD= 3).
 Solvent              : Water, Eps=  78.355300 Eps(inf)=   1.777849
 ------------------------------------------------------------------------------
 Spheres list:
 ISph  on   Nord     Re0    Alpha      Xe            Ye            Ze
    1  Pa      1    2.0000  1.170      0.756993     -0.054239     -0.072952
    2   O      2    1.7200  1.000      1.007546      0.199592      2.028061
    3   O      3    1.7200  1.000      0.901319      2.022373     -0.272337
    4   I      4    2.3200  1.000     -2.382464      0.004686     -0.068207
    5   H      5    1.3000  1.000      0.954643      2.751154      0.361568
    6   O      6    1.7200  1.000      3.184072     -0.015841     -0.612116
    7   H      7    1.3000  1.000      3.732481      0.771532     -0.726044
    8   H      8    1.3000  1.000      3.766669     -0.785114     -0.658777
    9   H      9    1.3000  1.000      1.101333     -0.481401      2.704900
   10   O     10    1.7200  1.000      0.885694     -1.902228     -0.072121
 ------------------------------------------------------------------------------
 GePol: Number of generator spheres                  =      10
 GePol: Total number of spheres                      =      10
 GePol: Number of exposed spheres                    =      10 (100.00%)
 GePol: Number of tesserae                           =    1100
 GePol: Average area of tesserae                     =       0.16 Ang**2
 GePol: Minimum area of tessera                      =   0.10D-02 Ang**2
 GePol: Maximum area of tessera                      =    0.35817 Ang**2
 GePol: Number of small tesserae                     =       7
 GePol: Fraction of small tesserae (<1% of avg)      =       0.64%
 GePol: Total count of vertices                      =    3612
 GePol: Maximum number of vertices in a tessera      =       6
 GePol: Cavity surface area                          =    180.905 Ang**2
 GePol: Cavity volume                                =    154.110 Ang**3
 DisRep: Neglecting contributions from atom    1 of solute.
 Leave Link  301 at Wed Jun 28 14:00:57 2023, MaxMem=  2147483648 cpu:               1.1 elap:               0.2
 (Enter /home/pcmt/gaussian/g16.C.01/g16/l302.exe)
 NPDir=0 NMtPBC=     1 NCelOv=     1 NCel=       1 NClECP=     1 NCelD=      1
         NCelK=      1 NCelE2=     1 NClLst=     1 CellRange=     0.0.
 One-electron integrals computed using PRISM.
 One-electron integral symmetry used in STVInt
   1 Symmetry operations used in ECPInt.
 ECPInt:  NShTT=    5565 NPrTT=   16647 LenC2=    5270 LenP2D=   12002.
 LDataN:  DoStor=T MaxTD1= 9 Len=  602
 NBasis=   297 RedAO= T EigKep=  6.07D-04  NBF=   297
 NBsUse=   297 1.00D-06 EigRej= -1.00D+00 NBFU=   297
 Precomputing XC quadrature grid using
 IXCGrd= 4 IRadAn=           5 IRanWt=          -1 IRanGd=           0 AccXCQ= 0.00D+00.
 Defaulting to unpruned grid for atomic number  91.
 Defaulting to unpruned grid for atomic number  53.
 Generated NRdTot=       0 NPtTot=           0 NUsed=           0 NTot=          32
 NSgBfM=   344   344   344   344   344 MxSgAt=    10 MxSgA2=    10.
 Leave Link  302 at Wed Jun 28 14:00:59 2023, MaxMem=  2147483648 cpu:               8.2 elap:               1.3
 (Enter /home/pcmt/gaussian/g16.C.01/g16/l303.exe)
 DipDrv:  MaxL=1.
 Leave Link  303 at Wed Jun 28 14:00:59 2023, MaxMem=  2147483648 cpu:               0.4 elap:               0.1
 (Enter /home/pcmt/gaussian/g16.C.01/g16/l401.exe)
 ExpMin= 2.32D-02 ExpMax= 2.70D+04 ExpMxC= 1.20D+04 IAcc=3 IRadAn=         5 AccDes= 0.00D+00
 Harris functional with IExCor=  404 and IRadAn=       5 diagonalized for initial guess.
 HarFok:  IExCor=  404 AccDes= 0.00D+00 IRadAn=         5 IDoV= 1 UseB2=F ITyADJ=14
 ICtDFT=  3500011 ScaDFX=  1.000000  1.000000  1.000000  1.000000
 Defaulting to unpruned grid for atomic number  91.
 FoFCou: FMM=F IPFlag=           0 FMFlag=      100000 FMFlg1=           0
         NFxFlg=           0 DoJE=T BraDBF=F KetDBF=T FulRan=T
         wScrn=  0.000000 ICntrl=       500 IOpCl=  0 I1Cent=   200000004 NGrid=           0
         NMat0=    1 NMatS0=      1 NMatT0=    0 NMatD0=    1 NMtDS0=    0 NMtDT0=    0
 Petite list used in FoFCou.
 Harris En= -1044.84347043015    
 JPrj=0 DoOrth=F DoCkMO=F.
 Leave Link  401 at Wed Jun 28 14:01:01 2023, MaxMem=  2147483648 cpu:              15.9 elap:               2.1
 (Enter /home/pcmt/gaussian/g16.C.01/g16/l502.exe)
 Keep J ints in memory in canonical form, NReq=1000625184.
 FoFCou: FMM=F IPFlag=           0 FMFlag=           0 FMFlg1=           0
         NFxFlg=           0 DoJE=F BraDBF=F KetDBF=F FulRan=T
         wScrn=  0.000000 ICntrl=       600 IOpCl=  0 I1Cent=           0 NGrid=           0
         NMat0=    1 NMatS0=  44253 NMatT0=    0 NMatD0=    1 NMtDS0=    0 NMtDT0=    0
 Symmetry not used in FoFCou.
 Two-electron integral symmetry not used.
 Closed shell SCF:
 Using DIIS extrapolation, IDIIS=  1040.
 NGot=  2147483648 LenX=  1168047921 LenY=  1167925679
 Requested convergence on RMS density matrix=1.00D-08 within 200 cycles.
 Requested convergence on MAX density matrix=1.00D-06.
 Requested convergence on             energy=1.00D-06.
 No special actions if energy rises.

 Cycle   1  Pass 1  IDiag  1:
 Defaulting to unpruned grid for atomic number  91.
 Defaulting to unpruned grid for atomic number  91.
 Defaulting to unpruned grid for atomic number  91.
 Defaulting to unpruned grid for atomic number  91.
 Defaulting to unpruned grid for atomic number  91.
 Defaulting to unpruned grid for atomic number  91.
 Defaulting to unpruned grid for atomic number  91.
 Defaulting to unpruned grid for atomic number  91.
 Using charges instead of weights in PCMQM.
 Inv3:  Mode=1 IEnd=     3630000.
 Iteration    1 A*A^-1 deviation from unit magnitude is 3.77D-15 for   1097.
 Iteration    1 A*A^-1 deviation from orthogonality  is 2.66D-15 for   1059    262.
 Iteration    1 A^-1*A deviation from unit magnitude is 3.77D-15 for   1097.
 Iteration    1 A^-1*A deviation from orthogonality  is 1.49D-15 for   1095   1074.
 E= -1042.25018358146    
 DIIS: error= 4.99D-02 at cycle   1 NSaved=   1.
 NSaved= 1 IEnMin= 1 EnMin= -1042.25018358146     IErMin= 1 ErrMin= 4.99D-02
 ErrMax= 4.99D-02  0.00D+00 EMaxC= 1.00D-01 BMatC= 1.45D+00 BMatP= 1.45D+00
 IDIUse=3 WtCom= 5.01D-01 WtEn= 4.99D-01
 Coeff-Com:  0.100D+01
 Coeff-En:   0.100D+01
 Coeff:      0.100D+01
 Gap=     0.178 Goal=   None    Shift=    0.000
 GapD=    0.178 DampG=1.000 DampE=0.250 DampFc=0.2500 IDamp=-1.
 Damping current iteration by 2.50D-01
 RMSDP=1.30D-02 MaxDP=1.21D+00              OVMax= 9.98D-01

 Cycle   2  Pass 1  IDiag  1:
 E= -1040.19869852125     Delta-E=        2.051485060209 Rises=F Damp=T
 DIIS: error= 4.46D-02 at cycle   2 NSaved=   2.
 NSaved= 2 IEnMin= 1 EnMin= -1042.25018358146     IErMin= 2 ErrMin= 4.46D-02
 ErrMax= 4.46D-02  0.00D+00 EMaxC= 1.00D-01 BMatC= 1.33D+00 BMatP= 1.45D+00
 IDIUse=3 WtCom= 5.54D-01 WtEn= 4.46D-01
 Coeff-Com:  0.486D+00 0.514D+00
 Coeff-En:   0.739D+00 0.261D+00
 Coeff:      0.599D+00 0.401D+00
 Gap=    -0.100 Goal=   None    Shift=    0.000
 RMSDP=3.84D-03 MaxDP=1.12D-01 DE= 2.05D+00 OVMax= 9.33D-01

 Cycle   3  Pass 1  IDiag  1:
 E= -1042.50317353179     Delta-E=       -2.304475010536 Rises=F Damp=F
 DIIS: error= 6.85D-02 at cycle   3 NSaved=   3.
 NSaved= 3 IEnMin= 3 EnMin= -1042.50317353179     IErMin= 2 ErrMin= 4.46D-02
 ErrMax= 6.85D-02  0.00D+00 EMaxC= 1.00D-01 BMatC= 9.06D-01 BMatP= 1.33D+00
 IDIUse=3 WtCom= 3.15D-01 WtEn= 6.85D-01
 EnCoef did     2 forward-backward iterations
 Coeff-Com:  0.343D+00 0.328D+00 0.328D+00
 Coeff-En:   0.419D+00 0.792D-01 0.502D+00
 Coeff:      0.395D+00 0.158D+00 0.447D+00
 Gap=     0.274 Goal=   None    Shift=    0.000
 RMSDP=6.10D-03 MaxDP=3.08D-01 DE=-2.30D+00 OVMax= 9.87D-01

 Cycle   4  Pass 1  IDiag  1:
 E= -1036.44584048687     Delta-E=        6.057333044920 Rises=F Damp=F
 DIIS: error= 1.55D-01 at cycle   4 NSaved=   4.
 NSaved= 4 IEnMin= 3 EnMin= -1042.50317353179     IErMin= 2 ErrMin= 4.46D-02
 ErrMax= 1.55D-01  0.00D+00 EMaxC= 1.00D-01 BMatC= 9.82D+00 BMatP= 9.06D-01
 IDIUse=2 WtCom= 0.00D+00 WtEn= 1.00D+00
 EnCoef did     4 forward-backward iterations
 Coeff-En:   0.408D+00 0.000D+00 0.468D+00 0.124D+00
 Coeff:      0.408D+00 0.000D+00 0.468D+00 0.124D+00
 Gap=    -0.013 Goal=   None    Shift=    0.000
 RMSDP=4.32D-03 MaxDP=2.77D-01 DE= 6.06D+00 OVMax= 9.42D-01

 Cycle   5  Pass 1  IDiag  1:
 E= -1043.12244634332     Delta-E=       -6.676605856447 Rises=F Damp=F
 DIIS: error= 2.26D-02 at cycle   5 NSaved=   5.
 NSaved= 5 IEnMin= 5 EnMin= -1043.12244634332     IErMin= 5 ErrMin= 2.26D-02
 ErrMax= 2.26D-02  0.00D+00 EMaxC= 1.00D-01 BMatC= 1.70D-01 BMatP= 9.06D-01
 IDIUse=3 WtCom= 7.74D-01 WtEn= 2.26D-01
 EnCoef did     2 forward-backward iterations
 Coeff-Com:  0.216D+00 0.865D-01 0.195D+00-0.159D-01 0.519D+00
 Coeff-En:   0.116D+00 0.000D+00 0.340D-01 0.000D+00 0.850D+00
 Coeff:      0.193D+00 0.670D-01 0.158D+00-0.123D-01 0.594D+00
 Gap=     0.131 Goal=   None    Shift=    0.000
 RMSDP=1.90D-03 MaxDP=1.24D-01 DE=-6.68D+00 OVMax= 1.74D-01

 Cycle   6  Pass 1  IDiag  1:
 E= -1043.15957112979     Delta-E=       -0.037124786477 Rises=F Damp=F
 DIIS: error= 1.12D-02 at cycle   6 NSaved=   6.
 NSaved= 6 IEnMin= 6 EnMin= -1043.15957112979     IErMin= 6 ErrMin= 1.12D-02
 ErrMax= 1.12D-02  0.00D+00 EMaxC= 1.00D-01 BMatC= 1.04D-01 BMatP= 1.70D-01
 IDIUse=3 WtCom= 8.88D-01 WtEn= 1.12D-01
 Coeff-Com:  0.274D-01 0.111D-01 0.621D-01-0.124D-01 0.461D+00 0.450D+00
 Coeff-En:   0.000D+00 0.000D+00 0.000D+00 0.000D+00 0.436D+00 0.564D+00
 Coeff:      0.243D-01 0.988D-02 0.551D-01-0.110D-01 0.459D+00 0.463D+00
 Gap=     0.102 Goal=   None    Shift=    0.000
 RMSDP=9.01D-04 MaxDP=6.39D-02 DE=-3.71D-02 OVMax= 8.55D-02

 Cycle   7  Pass 1  IDiag  1:
 E= -1043.24069636449     Delta-E=       -0.081125234698 Rises=F Damp=F
 DIIS: error= 2.64D-03 at cycle   7 NSaved=   7.
 NSaved= 7 IEnMin= 7 EnMin= -1043.24069636449     IErMin= 7 ErrMin= 2.64D-03
 ErrMax= 2.64D-03  0.00D+00 EMaxC= 1.00D-01 BMatC= 4.87D-03 BMatP= 1.04D-01
 IDIUse=3 WtCom= 9.74D-01 WtEn= 2.64D-02
 Coeff-Com: -0.641D-02 0.121D-02 0.193D-01-0.559D-02 0.183D+00 0.270D+00
 Coeff-Com:  0.539D+00
 Coeff-En:   0.000D+00 0.000D+00 0.000D+00 0.000D+00 0.000D+00 0.000D+00
 Coeff-En:   0.100D+01
 Coeff:     -0.624D-02 0.118D-02 0.188D-01-0.544D-02 0.178D+00 0.262D+00
 Coeff:      0.551D+00
 Gap=     0.106 Goal=   None    Shift=    0.000
 RMSDP=2.83D-04 MaxDP=2.28D-02 DE=-8.11D-02 OVMax= 1.89D-02

 Cycle   8  Pass 1  IDiag  1:
 E= -1043.24419383117     Delta-E=       -0.003497466683 Rises=F Damp=F
 DIIS: error= 1.63D-03 at cycle   8 NSaved=   8.
 NSaved= 8 IEnMin= 8 EnMin= -1043.24419383117     IErMin= 8 ErrMin= 1.63D-03
 ErrMax= 1.63D-03  0.00D+00 EMaxC= 1.00D-01 BMatC= 1.74D-03 BMatP= 4.87D-03
 IDIUse=3 WtCom= 9.84D-01 WtEn= 1.63D-02
 Coeff-Com:  0.634D-03-0.429D-02-0.106D-02 0.179D-03-0.279D-01 0.153D-01
 Coeff-Com:  0.362D+00 0.655D+00
 Coeff-En:   0.000D+00 0.000D+00 0.000D+00 0.000D+00 0.000D+00 0.000D+00
 Coeff-En:   0.102D+00 0.898D+00
 Coeff:      0.624D-03-0.422D-02-0.104D-02 0.176D-03-0.274D-01 0.150D-01
 Coeff:      0.358D+00 0.659D+00
 Gap=     0.108 Goal=   None    Shift=    0.000
 RMSDP=1.99D-04 MaxDP=1.19D-02 DE=-3.50D-03 OVMax= 1.75D-02

 Cycle   9  Pass 1  IDiag  1:
 E= -1043.24642638921     Delta-E=       -0.002232558038 Rises=F Damp=F
 DIIS: error= 1.10D-03 at cycle   9 NSaved=   9.
 NSaved= 9 IEnMin= 9 EnMin= -1043.24642638921     IErMin= 9 ErrMin= 1.10D-03
 ErrMax= 1.10D-03  0.00D+00 EMaxC= 1.00D-01 BMatC= 1.05D-03 BMatP= 1.74D-03
 IDIUse=3 WtCom= 9.89D-01 WtEn= 1.10D-02
 Coeff-Com:  0.607D-02-0.311D-02-0.171D-02 0.999D-03-0.578D-01-0.266D-01
 Coeff-Com:  0.210D+00 0.482D+00 0.390D+00
 Coeff-En:   0.000D+00 0.000D+00 0.000D+00 0.000D+00 0.000D+00 0.000D+00
 Coeff-En:   0.000D+00 0.000D+00 0.100D+01
 Coeff:      0.600D-02-0.307D-02-0.170D-02 0.988D-03-0.572D-01-0.263D-01
 Coeff:      0.208D+00 0.476D+00 0.397D+00
 Gap=     0.106 Goal=   None    Shift=    0.000
 RMSDP=1.25D-04 MaxDP=7.89D-03 DE=-2.23D-03 OVMax= 1.42D-02

 Cycle  10  Pass 1  IDiag  1:
 E= -1043.24733812002     Delta-E=       -0.000911730806 Rises=F Damp=F
 DIIS: error= 1.27D-03 at cycle  10 NSaved=  10.
 NSaved=10 IEnMin=10 EnMin= -1043.24733812002     IErMin= 9 ErrMin= 1.10D-03
 ErrMax= 1.27D-03  0.00D+00 EMaxC= 1.00D-01 BMatC= 1.35D-03 BMatP= 1.05D-03
 IDIUse=3 WtCom= 9.89D-01 WtEn= 1.10D-02
 Coeff-Com:  0.958D-02-0.296D-02-0.184D-03 0.935D-03-0.626D-01-0.352D-01
 Coeff-Com:  0.185D+00 0.414D+00 0.110D+00 0.381D+00
 Coeff-En:   0.000D+00 0.000D+00 0.000D+00 0.000D+00 0.000D+00 0.000D+00
 Coeff-En:   0.000D+00 0.000D+00 0.000D+00 0.100D+01
 Coeff:      0.948D-02-0.293D-02-0.182D-03 0.924D-03-0.619D-01-0.348D-01
 Coeff:      0.183D+00 0.410D+00 0.109D+00 0.388D+00
 Gap=     0.106 Goal=   None    Shift=    0.000
 RMSDP=4.83D-05 MaxDP=2.97D-03 DE=-9.12D-04 OVMax= 5.68D-03

 Cycle  11  Pass 1  IDiag  1:
 E= -1043.24760572650     Delta-E=       -0.000267606477 Rises=F Damp=F
 DIIS: error= 1.42D-03 at cycle  11 NSaved=  11.
 NSaved=11 IEnMin=11 EnMin= -1043.24760572650     IErMin= 9 ErrMin= 1.10D-03
 ErrMax= 1.42D-03  0.00D+00 EMaxC= 1.00D-01 BMatC= 1.32D-03 BMatP= 1.05D-03
 IDIUse=3 WtCom= 9.89D-01 WtEn= 1.10D-02
 Coeff-Com:  0.118D-01-0.302D-02 0.246D-02-0.784D-03-0.422D-01-0.119D-01
 Coeff-Com:  0.282D+00 0.472D+00-0.725D+00-0.130D+01 0.232D+01
 Coeff-En:   0.000D+00 0.000D+00 0.000D+00 0.000D+00 0.000D+00 0.000D+00
 Coeff-En:   0.000D+00 0.000D+00 0.000D+00 0.000D+00 0.100D+01
 Coeff:      0.117D-01-0.298D-02 0.243D-02-0.776D-03-0.417D-01-0.117D-01
 Coeff:      0.278D+00 0.466D+00-0.717D+00-0.129D+01 0.230D+01
 Gap=     0.109 Goal=   None    Shift=    0.000
 RMSDP=1.21D-04 MaxDP=1.35D-02 DE=-2.68D-04 OVMax= 1.00D-02

 Cycle  12  Pass 1  IDiag  1:
 E= -1043.24735158209     Delta-E=        0.000254144402 Rises=F Damp=F
 DIIS: error= 8.82D-04 at cycle  12 NSaved=  12.
 NSaved=12 IEnMin=11 EnMin= -1043.24760572650     IErMin=12 ErrMin= 8.82D-04
 ErrMax= 8.82D-04  0.00D+00 EMaxC= 1.00D-01 BMatC= 4.43D-04 BMatP= 1.05D-03
 IDIUse=3 WtCom= 9.91D-01 WtEn= 8.82D-03
 Coeff-Com:  0.495D-02-0.135D-02-0.670D-03-0.857D-03-0.139D-01 0.978D-02
 Coeff-Com:  0.857D-01 0.798D-01-0.940D+00-0.202D+01 0.307D+01 0.725D+00
 Coeff-En:   0.000D+00 0.000D+00 0.000D+00 0.000D+00 0.000D+00 0.000D+00
 Coeff-En:   0.000D+00 0.000D+00 0.000D+00 0.000D+00 0.728D+00 0.272D+00
 Coeff:      0.491D-02-0.133D-02-0.664D-03-0.850D-03-0.137D-01 0.970D-02
 Coeff:      0.849D-01 0.791D-01-0.931D+00-0.201D+01 0.305D+01 0.721D+00
 Gap=     0.109 Goal=   None    Shift=    0.000
 RMSDP=2.27D-04 MaxDP=1.36D-02 DE= 2.54D-04 OVMax= 2.78D-02

 Cycle  13  Pass 1  IDiag  1:
 E= -1043.24829851676     Delta-E=       -0.000946934669 Rises=F Damp=F
 DIIS: error= 2.84D-04 at cycle  13 NSaved=  13.
 NSaved=13 IEnMin=13 EnMin= -1043.24829851676     IErMin=13 ErrMin= 2.84D-04
 ErrMax= 2.84D-04  0.00D+00 EMaxC= 1.00D-01 BMatC= 7.95D-05 BMatP= 4.43D-04
 IDIUse=3 WtCom= 9.97D-01 WtEn= 2.84D-03
 Coeff-Com:  0.193D-03 0.378D-03-0.128D-03 0.253D-04-0.609D-02 0.110D-01
 Coeff-Com:  0.471D-01 0.648D-01-0.140D+00-0.875D+00 0.997D+00 0.370D+00
 Coeff-Com:  0.531D+00
 Coeff-En:   0.000D+00 0.000D+00 0.000D+00 0.000D+00 0.000D+00 0.000D+00
 Coeff-En:   0.000D+00 0.000D+00 0.000D+00 0.000D+00 0.000D+00 0.000D+00
 Coeff-En:   0.100D+01
 Coeff:      0.192D-03 0.377D-03-0.128D-03 0.252D-04-0.607D-02 0.110D-01
 Coeff:      0.470D-01 0.646D-01-0.140D+00-0.873D+00 0.994D+00 0.369D+00
 Coeff:      0.533D+00
 Gap=     0.112 Goal=   None    Shift=    0.000
 RMSDP=1.08D-04 MaxDP=6.38D-03 DE=-9.47D-04 OVMax= 1.33D-02

 Cycle  14  Pass 1  IDiag  1:
 E= -1043.24828222156     Delta-E=        0.000016295199 Rises=F Damp=F
 DIIS: error= 3.16D-04 at cycle  14 NSaved=  14.
 NSaved=14 IEnMin=13 EnMin= -1043.24829851676     IErMin=13 ErrMin= 2.84D-04
 ErrMax= 3.16D-04  0.00D+00 EMaxC= 1.00D-01 BMatC= 8.55D-05 BMatP= 7.95D-05
 IDIUse=3 WtCom= 9.97D-01 WtEn= 2.84D-03
 Coeff-Com:  0.249D-03 0.138D-03-0.405D-03 0.560D-05-0.343D-02 0.543D-02
 Coeff-Com:  0.731D-02-0.681D-02-0.179D+00-0.504D+00 0.729D+00 0.239D+00
 Coeff-Com:  0.409D+00 0.303D+00
 Coeff-En:   0.000D+00 0.000D+00 0.000D+00 0.000D+00 0.000D+00 0.000D+00
 Coeff-En:   0.000D+00 0.000D+00 0.000D+00 0.000D+00 0.000D+00 0.000D+00
 Coeff-En:   0.531D+00 0.469D+00
 Coeff:      0.249D-03 0.137D-03-0.404D-03 0.558D-05-0.342D-02 0.541D-02
 Coeff:      0.729D-02-0.679D-02-0.178D+00-0.502D+00 0.726D+00 0.239D+00
 Coeff:      0.409D+00 0.304D+00
 Gap=     0.106 Goal=   None    Shift=    0.000
 RMSDP=7.91D-05 MaxDP=4.64D-03 DE= 1.63D-05 OVMax= 9.64D-03

 Cycle  15  Pass 1  IDiag  1:
 E= -1043.24839364013     Delta-E=       -0.000111418566 Rises=F Damp=F
 DIIS: error= 1.12D-04 at cycle  15 NSaved=  15.
 NSaved=15 IEnMin=15 EnMin= -1043.24839364013     IErMin=15 ErrMin= 1.12D-04
 ErrMax= 1.12D-04  0.00D+00 EMaxC= 1.00D-01 BMatC= 1.37D-05 BMatP= 7.95D-05
 IDIUse=3 WtCom= 9.99D-01 WtEn= 1.12D-03
 Coeff-Com: -0.171D-03-0.128D-04-0.295D-03 0.844D-05-0.328D-03 0.246D-02
 Coeff-Com:  0.421D-02 0.343D-03-0.317D-01-0.159D+00 0.198D+00 0.803D-01
 Coeff-Com:  0.194D+00 0.281D+00 0.431D+00
 Coeff-En:   0.000D+00 0.000D+00 0.000D+00 0.000D+00 0.000D+00 0.000D+00
 Coeff-En:   0.000D+00 0.000D+00 0.000D+00 0.000D+00 0.000D+00 0.000D+00
 Coeff-En:   0.000D+00 0.870D-01 0.913D+00
 Coeff:     -0.171D-03-0.127D-04-0.294D-03 0.843D-05-0.328D-03 0.246D-02
 Coeff:      0.421D-02 0.343D-03-0.316D-01-0.159D+00 0.198D+00 0.802D-01
 Coeff:      0.193D+00 0.281D+00 0.432D+00
 Gap=     0.106 Goal=   None    Shift=    0.000
 RMSDP=2.29D-05 MaxDP=1.34D-03 DE=-1.11D-04 OVMax= 2.82D-03

 Cycle  16  Pass 1  IDiag  1:
 E= -1043.24840987750     Delta-E=       -0.000016237372 Rises=F Damp=F
 DIIS: error= 2.29D-05 at cycle  16 NSaved=  16.
 NSaved=16 IEnMin=16 EnMin= -1043.24840987750     IErMin=16 ErrMin= 2.29D-05
 ErrMax= 2.29D-05  0.00D+00 EMaxC= 1.00D-01 BMatC= 3.55D-07 BMatP= 1.37D-05
 IDIUse=1 WtCom= 1.00D+00 WtEn= 0.00D+00
 Coeff-Com: -0.100D-03-0.161D-04-0.113D-03 0.942D-05 0.102D-03 0.589D-03
 Coeff-Com: -0.105D-03-0.255D-02-0.345D-02-0.400D-01 0.425D-01 0.232D-01
 Coeff-Com:  0.769D-01 0.135D+00 0.276D+00 0.491D+00
 Coeff:     -0.100D-03-0.161D-04-0.113D-03 0.942D-05 0.102D-03 0.589D-03
 Coeff:     -0.105D-03-0.255D-02-0.345D-02-0.400D-01 0.425D-01 0.232D-01
 Coeff:      0.769D-01 0.135D+00 0.276D+00 0.491D+00
 Gap=     0.106 Goal=   None    Shift=    0.000
 RMSDP=3.89D-06 MaxDP=2.26D-04 DE=-1.62D-05 OVMax= 4.65D-04

 Cycle  17  Pass 1  IDiag  1:
 E= -1043.24841022371     Delta-E=       -0.000000346209 Rises=F Damp=F
 DIIS: error= 1.16D-05 at cycle  17 NSaved=  17.
 NSaved=17 IEnMin=17 EnMin= -1043.24841022371     IErMin=17 ErrMin= 1.16D-05
 ErrMax= 1.16D-05  0.00D+00 EMaxC= 1.00D-01 BMatC= 9.93D-08 BMatP= 3.55D-07
 IDIUse=1 WtCom= 1.00D+00 WtEn= 0.00D+00
 Coeff-Com: -0.199D-04-0.124D-04-0.109D-04 0.783D-06 0.108D-03-0.659D-04
 Coeff-Com: -0.762D-03-0.136D-02 0.305D-02-0.423D-02-0.351D-02 0.291D-02
 Coeff-Com:  0.170D-01 0.386D-01 0.706D-01 0.221D+00 0.656D+00
 Coeff:     -0.199D-04-0.124D-04-0.109D-04 0.783D-06 0.108D-03-0.659D-04
 Coeff:     -0.762D-03-0.136D-02 0.305D-02-0.423D-02-0.351D-02 0.291D-02
 Coeff:      0.170D-01 0.386D-01 0.706D-01 0.221D+00 0.656D+00
 Gap=     0.106 Goal=   None    Shift=    0.000
 RMSDP=6.32D-07 MaxDP=4.76D-05 DE=-3.46D-07 OVMax= 5.92D-05

 Cycle  18  Pass 1  IDiag  1:
 E= -1043.24841024452     Delta-E=       -0.000000020810 Rises=F Damp=F
 DIIS: error= 6.23D-06 at cycle  18 NSaved=  18.
 NSaved=18 IEnMin=18 EnMin= -1043.24841024452     IErMin=18 ErrMin= 6.23D-06
 ErrMax= 6.23D-06  0.00D+00 EMaxC= 1.00D-01 BMatC= 3.32D-08 BMatP= 9.93D-08
 IDIUse=1 WtCom= 1.00D+00 WtEn= 0.00D+00
 Coeff-Com: -0.624D-05-0.228D-05 0.722D-05 0.508D-06 0.366D-04-0.684D-04
 Coeff-Com: -0.368D-03-0.374D-03 0.278D-02 0.207D-03-0.640D-02-0.457D-04
 Coeff-Com:  0.351D-02 0.157D-01 0.125D-01 0.843D-01 0.343D+00 0.546D+00
 Coeff:     -0.624D-05-0.228D-05 0.722D-05 0.508D-06 0.366D-04-0.684D-04
 Coeff:     -0.368D-03-0.374D-03 0.278D-02 0.207D-03-0.640D-02-0.457D-04
 Coeff:      0.351D-02 0.157D-01 0.125D-01 0.843D-01 0.343D+00 0.546D+00
 Gap=     0.106 Goal=   None    Shift=    0.000
 RMSDP=6.52D-07 MaxDP=4.31D-05 DE=-2.08D-08 OVMax= 7.74D-05

 Cycle  19  Pass 1  IDiag  1:
 E= -1043.24841028733     Delta-E=       -0.000000042814 Rises=F Damp=F
 DIIS: error= 1.28D-06 at cycle  19 NSaved=  19.
 NSaved=19 IEnMin=19 EnMin= -1043.24841028733     IErMin=19 ErrMin= 1.28D-06
 ErrMax= 1.28D-06  0.00D+00 EMaxC= 1.00D-01 BMatC= 1.37D-09 BMatP= 3.32D-08
 IDIUse=1 WtCom= 1.00D+00 WtEn= 0.00D+00
 Coeff-Com: -0.345D-05 0.387D-06 0.360D-05 0.200D-06 0.112D-04 0.328D-05
 Coeff-Com: -0.422D-04-0.113D-04 0.403D-03 0.348D-04-0.144D-02-0.247D-03
 Coeff-Com: -0.444D-03 0.306D-02-0.273D-02 0.524D-02 0.346D-01 0.144D+00
 Coeff-Com:  0.818D+00
 Coeff:     -0.345D-05 0.387D-06 0.360D-05 0.200D-06 0.112D-04 0.328D-05
 Coeff:     -0.422D-04-0.113D-04 0.403D-03 0.348D-04-0.144D-02-0.247D-03
 Coeff:     -0.444D-03 0.306D-02-0.273D-02 0.524D-02 0.346D-01 0.144D+00
 Coeff:      0.818D+00
 Gap=     0.106 Goal=   None    Shift=    0.000
 RMSDP=1.37D-07 MaxDP=1.44D-05 DE=-4.28D-08 OVMax= 1.24D-05

 Cycle  20  Pass 1  IDiag  1:
 E= -1043.24841029490     Delta-E=       -0.000000007563 Rises=F Damp=F
 DIIS: error= 1.49D-07 at cycle  20 NSaved=  20.
 NSaved=20 IEnMin=20 EnMin= -1043.24841029490     IErMin=20 ErrMin= 1.49D-07
 ErrMax= 1.49D-07  0.00D+00 EMaxC= 1.00D-01 BMatC= 2.39D-11 BMatP= 1.37D-09
 IDIUse=1 WtCom= 1.00D+00 WtEn= 0.00D+00
 Coeff-Com: -0.115D-05 0.429D-06 0.675D-06 0.342D-07 0.330D-05 0.662D-05
 Coeff-Com:  0.914D-05 0.138D-04-0.493D-04-0.115D-03-0.119D-04-0.470D-04
 Coeff-Com: -0.235D-03 0.317D-03-0.101D-02-0.239D-02-0.615D-02 0.225D-01
 Coeff-Com:  0.297D+00 0.690D+00
 Coeff:     -0.115D-05 0.429D-06 0.675D-06 0.342D-07 0.330D-05 0.662D-05
 Coeff:      0.914D-05 0.138D-04-0.493D-04-0.115D-03-0.119D-04-0.470D-04
 Coeff:     -0.235D-03 0.317D-03-0.101D-02-0.239D-02-0.615D-02 0.225D-01
 Coeff:      0.297D+00 0.690D+00
 Gap=     0.106 Goal=   None    Shift=    0.000
 RMSDP=1.11D-08 MaxDP=5.59D-07 DE=-7.56D-09 OVMax= 1.41D-06

 Cycle  21  Pass 1  IDiag  1:
 E= -1043.24841029445     Delta-E=        0.000000000445 Rises=F Damp=F
 DIIS: error= 1.29D-07 at cycle  21 NSaved=  20.
 NSaved=20 IEnMin=19 EnMin= -1043.24841029490     IErMin=20 ErrMin= 1.29D-07
 ErrMax= 1.29D-07  0.00D+00 EMaxC= 1.00D-01 BMatC= 1.60D-11 BMatP= 2.39D-11
 IDIUse=1 WtCom= 1.00D+00 WtEn= 0.00D+00
 Coeff-Com: -0.140D-06 0.599D-07-0.722D-07 0.698D-06 0.374D-06 0.568D-05
 Coeff-Com:  0.736D-05-0.224D-04-0.508D-04 0.736D-04 0.712D-05 0.100D-04
 Coeff-Com: -0.728D-04 0.236D-03-0.408D-03-0.888D-03 0.344D-02 0.368D-01
 Coeff-Com:  0.298D+00 0.663D+00
 Coeff:     -0.140D-06 0.599D-07-0.722D-07 0.698D-06 0.374D-06 0.568D-05
 Coeff:      0.736D-05-0.224D-04-0.508D-04 0.736D-04 0.712D-05 0.100D-04
 Coeff:     -0.728D-04 0.236D-03-0.408D-03-0.888D-03 0.344D-02 0.368D-01
 Coeff:      0.298D+00 0.663D+00
 Gap=     0.106 Goal=   None    Shift=    0.000
 RMSDP=8.93D-09 MaxDP=8.83D-07 DE= 4.45D-10 OVMax= 7.91D-07

 Error on nuclear    polarization charges =  0.02209
 Error on electronic polarization charges = -0.06283
 SCF Done:  E(RB-P86) =  -1043.24841029     A.U. after   21 cycles
            NFock= 21  Conv=0.89D-08     -V/T= 2.7930
 KE= 5.818587860872D+02 PE=-3.487096152274D+03 EE= 1.254315704146D+03
 --------------------------------------------------------------------
 Variational C-PCM results
 =========================
 <psi(f)|   H    |psi(f)>                     (a.u.) =   -1043.185548
 <psi(f)|H+V(f)/2|psi(f)>                     (a.u.) =   -1043.248410
 Total free energy in solution:
 - with all non electrostatic terms           (a.u.) =   -1043.231687
 --------------------------------------------------------------------
 (Polarized solute)-Solvent               (kcal/mol) =     -39.45
 --------------------------------------------------------------------
 Cavitation energy                        (kcal/mol) =      22.91
 Dispersion energy                        (kcal/mol) =     -13.81
 Repulsion energy                         (kcal/mol) =       1.39
 Total non electrostatic                  (kcal/mol) =      10.49
 --------------------------------------------------------------------
 Partition over spheres:
 Sphere  on Atom  Surface  Charge   GEl     GCav    GDR
    1     Pa1      18.14  -0.332   -7.40    1.09   -0.22
    2      O2      17.40   0.177   -1.60    2.54   -0.94
    3      O3      16.96   0.117   -0.12    2.41   -0.89
    4      I4      56.49   0.408   -7.81    6.63   -4.81
    5      H5       9.21  -0.135   -2.51    1.30   -0.87
    6      O6      13.89  -0.046   -1.82    2.01   -0.74
    7      H7       9.20  -0.171   -6.67    1.30   -0.89
    8      H8       9.20  -0.169   -6.15    1.30   -0.90
    9      H9       9.19  -0.121   -1.51    1.30   -0.88
   10      O10     21.23   0.272   -3.86    3.04   -1.28
 --------------------------------------------------------------------
 - cavitation energy not included in the total energy.
 - dispersion energy not included in the total energy.
 - repulsion  energy not included in the total energy.
 After PCM corrections, the energy is  -1043.24841029     a.u.
 --------------------------------------------------------------------
 Writing COSMO formatted file "pao_oh2_I_h2o-bp86-cosmors-deftzvp-klamt.cosmo"
 Recomputed dielectric energy= -0.063130 old= -0.062862 diff=-2.68D-04
 Leave Link  502 at Wed Jun 28 14:03:34 2023, MaxMem=  2147483648 cpu:             818.0 elap:             153.4
 (Enter /home/pcmt/gaussian/g16.C.01/g16/l601.exe)
 Copying SCF densities to generalized density rwf, IOpCl= 0 IROHF=0.

 **********************************************************************

            Population analysis using the SCF Density.

 **********************************************************************

 Orbital symmetries:
       Occupied  (A) (A) (A) (A) (A) (A) (A) (A) (A) (A) (A) (A)
                 (A) (A) (A) (A) (A) (A) (A) (A) (A) (A) (A) (A)
                 (A) (A) (A) (A) (A) (A) (A) (A) (A) (A) (A) (A)
[...]
   XY=              2.3852   XZ=             -6.1135   YZ=             -0.6223
 Octapole moment (field-independent basis, Debye-Ang**2):
  XXX=            174.9432  YYY=             34.5647  ZZZ=             -3.6574  XYY=             14.0416
  XXY=              0.1873  XXZ=            -25.9409  XZZ=             14.2661  YZZ=            -12.4697
  YYZ=              6.5707  XYZ=             -1.6609
 Hexadecapole moment (field-independent basis, Debye-Ang**3):
 XXXX=          -1251.6833 YYYY=           -392.7384 ZZZZ=           -248.0369 XXXY=             -5.7778
 XXXZ=           -106.7985 YYYX=             33.4325 YYYZ=             25.1073 ZZZX=              5.3165
 ZZZY=            -29.2943 XXYY=           -324.5560 XXZZ=           -324.7548 YYZZ=           -116.5568
 XXYZ=             -3.4555 YYXZ=              1.2401 ZZXY=            -12.5998
 N-N= 6.076732517469D+02 E-N=-3.487096187895D+03  KE= 5.818587860872D+02
 Orbital energies and kinetic energies (alpha):
                                 1                 2
   1         O               -18.829251         29.113696
   2         O               -18.780144         29.111794
   3         O               -18.766445         29.113737
   4         O               -18.754361         29.109867
   5         O               -11.095040          4.703605
   6         O                -7.164837          5.036164
   7         O                -7.163319          5.036585
   8         O                -7.146635          5.032618
   9         O                -6.582744          3.224650
  10         O                -4.643639          4.693355
  11         O                -4.641851          4.694299
  12         O                -4.641272          4.694437
  13         O                -3.522641          6.835649
  14         O                -3.522192          6.836113
  15         O                -3.514021          6.830924
  16         O                -3.512346          6.831508
  17         O                -3.506134          6.826332
  18         O                -1.781466          7.061855
  19         O                -1.780842          7.065189
  20         O                -1.780375          7.065572
  21         O                -1.778814          7.068167
  22         O                -1.778785          7.068169
  23         O                -1.722021          6.364528
  24         O                -0.988489          2.284304
  25         O                -0.984683          2.678325
  26         O                -0.927826          2.433323
  27         O                -0.887505          3.076279
  28         O                -0.837034          2.200767
  29         O                -0.801410          2.570433
  30         O                -0.689895          3.204985
  31         O                -0.604716          1.346333
  32         O                -0.534795          1.891031
  33         O                -0.440877          2.254527
  34         O                -0.424629          2.378211
  35         O                -0.419146          4.315571
  36         O                -0.331242          2.348323
  37         O                -0.326827          2.428275
  38         O                -0.314542          2.042626
  39         O                -0.298708          2.433230
  40         O                -0.297839          2.417030
  41         O                -0.290220          2.644091
  42         O                -0.285646          5.234269
  43         O                -0.263228          4.755916
  44         O                -0.252853          4.181506
  45         O                -0.233311          1.094586
  46         O                -0.229007          1.296645
  47         V                -0.123429         98.183315
  48         V                -0.117266          5.203461
  49         V                -0.113865          5.484018
  50         V                -0.111832          5.071932
  51         V                -0.100275        165.801987
  52         V                -0.084188         82.905872
  53         V                -0.078626         11.889192
  54         V                -0.030417          6.349672
  55         V                -0.027016         25.235319
  56         V                -0.022105          4.639751
  57         V                 0.001561          1.468763
  58         V                 0.011144          0.844019
  59         V                 0.019933          0.857037
  60         V                 0.027191          4.224347
  61         V                 0.034130          2.097347
  62         V                 0.051210          2.720184
  63         V                 0.065198         20.968997
  64         V                 0.083153          3.184275
  65         V                 0.093615          1.089508
  66         V                 0.105755          1.826413
  67         V                 0.125415          0.907601
  68         V                 0.141215          1.509652
  69         V                 0.152012          0.865996
  70         V                 0.154242          0.934406
  71         V                 0.164093          1.172692
  72         V                 0.175266          1.048018
  73         V                 0.203564          1.323571
  74         V                 0.209114          1.418255
  75         V                 0.221916          1.405051
  76         V                 0.227682          1.182239
  77         V                 0.250786          1.358224
  78         V                 0.259861          1.511076
  79         V                 0.281062          1.377132
  80         V                 0.292968          1.253964
  81         V                 0.299222          1.292905
  82         V                 0.313653          1.288008
  83         V                 0.320219          1.367084
  84         V                 0.347120          1.799838
  85         V                 0.354226          1.243081
  86         V                 0.364973          1.646990
  87         V                 0.381870          1.279309
  88         V                 0.411613          1.484435
  89         V                 0.426461          2.156942
  90         V                 0.432913          1.747478
  91         V                 0.438868          1.702815
  92         V                 0.459073          1.626446
  93         V                 0.471765          1.694312
  94         V                 0.483806          1.725870
  95         V                 0.497543          1.507984
  96         V                 0.516057          1.636980
  97         V                 0.526573          1.667717
  98         V                 0.546578          1.881525
  99         V                 0.553025          1.534971
 100         V                 0.570585          1.532333
 101         V                 0.589519          2.199306
 102         V                 0.602257          3.494130
 103         V                 0.609370          1.468101
 104         V                 0.631443          1.562291
 105         V                 0.651031          1.520202
 106         V                 0.670720          1.969217
 107         V                 0.679879          2.700693
 108         V                 0.693410          1.851733
 109         V                 0.718360          1.510156
 110         V                 0.796170          2.126218
 111         V                 0.811478          2.231104
 112         V                 0.824839          2.503246
 113         V                 0.829558          2.525650
 114         V                 0.835800          2.433281
 115         V                 0.840744          2.510859
 116         V                 0.871562          2.496940
 117         V                 0.883312          2.554193
 118         V                 0.891919          2.328959
 119         V                 0.920331          3.297093
 120         V                 1.019340          2.482660
 121         V                 1.033431          2.679705
 122         V                 1.042633          2.660667
 123         V                 1.068151          2.664993
 124         V                 1.094148          2.863926
 125         V                 1.102065          2.818583
 126         V                 1.115110          2.947640
 127         V                 1.118441          2.944912
 128         V                 1.125308          3.109412
 129         V                 1.133759          2.778194
 130         V                 1.143127          3.098479
 131         V                 1.151063          2.803792
 132         V                 1.170454          3.209580
 133         V                 1.195353          2.731482
 134         V                 1.205871          3.213007
 135         V                 1.224470          3.223510
 136         V                 1.240395          2.921745
 137         V                 1.246507          2.745563
 138         V                 1.266747          2.983129
 139         V                 1.276595          3.446501
 140         V                 1.304319          2.653304
 141         V                 1.314143          2.814908
 142         V                 1.324916          4.051794
 143         V                 1.353663          4.355273
 144         V                 1.384252          2.671188
 145         V                 1.411835          3.686613
 146         V                 1.431810          3.776070
 147         V                 1.446587          2.842085
 148         V                 1.451595          3.741174
 149         V                 1.459013          4.139076
 150         V                 1.475124          3.450484
 151         V                 1.522476          2.872560
 152         V                 1.541706          3.442719
 153         V                 1.585324          3.445463
 154         V                 1.592841          3.410069
 155         V                 1.606873          3.213044
 156         V                 1.617409          3.393375
 157         V                 1.639157          3.241561
 158         V                 1.651796          3.418981
 159         V                 1.671800          3.310326
 160         V                 1.703435          3.197831
 161         V                 1.733240          3.354120
 162         V                 1.754959          3.198687
 163         V                 1.778949          3.545909
 164         V                 1.808499          3.866817
 165         V                 1.839621          3.678612
 166         V                 1.844301          3.507111
 167         V                 1.888689          3.709845
 168         V                 1.898231          3.554547
 169         V                 1.995917          3.388717
 170         V                 2.018942          2.906747
 171         V                 2.031500          3.935640
 172         V                 2.082783          3.927041
 173         V                 2.101076          3.509705
 174         V                 2.137726          3.963781
 175         V                 2.138564          3.789484
 176         V                 2.169661          3.839834
 177         V                 2.186634          4.045847
 178         V                 2.249106          4.128409
 179         V                 2.256689          4.448771
 180         V                 2.308786          5.277596
 181         V                 2.341908          5.469092
 182         V                 2.463034          4.368218
 183         V                 2.477048          4.237352
 184         V                 2.479288          4.294841
 185         V                 2.516898          6.720427
 186         V                 2.586099          4.785150
 187         V                 2.603706          5.933868
 188         V                 2.609981          6.832622
 189         V                 2.618384          6.812025
 190         V                 2.655018          5.846369
 191         V                 2.665872          6.167969
 192         V                 2.803028          7.037868
 193         V                 2.837758          6.948405
 194         V                 2.878542          6.709638
 195         V                 2.916272          7.794153
 196         V                 2.945751          8.163964
 197         V                 2.961699          9.573854
 198         V                 2.963445          9.586799
 199         V                 2.972486          9.557990
 200         V                 3.009876          8.899648
 201         V                 3.022249          9.390976
 202         V                 3.035515          9.126815
 203         V                 3.113801          8.954136
 204         V                 3.168589          7.498639
 205         V                 3.363813          8.325619
 206         V                 3.528047          6.270597
 207         V                 3.601369          8.420901
 208         V                 3.683014          7.135496
 209         V                 3.689966          8.314404
 210         V                 3.712236          9.382053
 211         V                 3.741953          8.043874
 212         V                 3.815554          9.850259
 213         V                 3.826739          9.611922
 214         V                 3.864458          7.793339
 215         V                 3.882920          8.459212
 216         V                 3.992305          9.704275
 217         V                 4.030950          9.609147
 218         V                 4.222973          9.005769
 219         V                 4.272873          9.102595
 220         V                 4.955719          6.531832
 221         V                 4.996773          6.445173
 222         V                 5.004317          6.500985
 223         V                 5.009103          6.450992
 224         V                 5.015221          6.513269
 225         V                 5.023345          6.470301
 226         V                 5.033112          6.465543
 227         V                 5.067284          6.772185
 228         V                 5.078336          6.730148
 229         V                 5.089912          6.593183
 230         V                 5.102574          6.655394
 231         V                 5.133134          6.775164
 232         V                 5.139323          6.777605
 233         V                 5.165580          6.885222
 234         V                 5.194529          6.930962
 235         V                 5.210922          6.962625
 236         V                 5.218401          6.911181
 237         V                 5.233856          6.814711
 238         V                 5.286038          7.662513
 239         V                 5.304185          6.944673
 240         V                 5.331706          7.313367
 241         V                 5.339411          7.000232
 242         V                 5.384590          7.345426
 243         V                 5.429366          7.216729
 244         V                 5.835065          8.518986
 245         V                 6.039212          9.738756
 246         V                 6.049853          9.535920
 247         V                 6.101191          9.323471
 248         V                 6.116285         10.193825
 249         V                 6.143369          9.308636
 250         V                 6.177830          9.342382
 251         V                 6.181544          9.451815
 252         V                 6.197896          9.376378
 253         V                 6.212875          9.452385
 254         V                 6.228919          9.410360
 255         V                 6.290483          9.394820
 256         V                 6.328337          9.436050
 257         V                 6.375296          9.671225
 258         V                 6.416332          9.632231
 259         V                 6.524323         10.048991
 260         V                 6.571490          9.750039
 261         V                 6.593888          9.726139
 262         V                 6.662902         10.612260
 263         V                 6.718544         10.191269
 264         V                 6.759008          9.663848
 265         V                 6.805535         10.502785
 266         V                 6.859535          9.801496
 267         V                 6.912218          9.854360
 268         V                 6.990351         10.361022
 269         V                 7.158686         13.674533
 270         V                 7.250077         13.191339
 271         V                 7.472646         13.721333
 272         V                 8.104724         15.794572
 273         V                 8.169410         15.821522
 274         V                 8.204335         15.809129
 275         V                 8.484690         15.980494
 276         V                 8.897517         16.180764
 277         V                29.304782         36.027685
 278         V                29.341876         36.048024
 279         V                29.481639         36.178147
 280         V                34.403445         27.525172
 281         V                34.408683         27.529011
 282         V                34.595075         27.671383
 283         V                42.616073         32.708861
 284         V                43.041300        107.363438
 285         V                43.189166        108.284480
 286         V                43.401571        108.727550
 287         V                43.548176        108.899541
 288         V                54.077630         39.971928
 289         V                70.219464         83.948270
 290         V                70.238800         83.987706
 291         V                70.322071         84.125982
 292         V               118.649602         48.325422
 293         V               142.608536        242.424994
 294         V               142.650556        242.476823
 295         V               142.800471        242.663224
 296         V               202.587867        130.075299
 297         V               626.103124       1034.490736
 Total kinetic energy from orbitals= 5.818587860872D+02
 No NMR shielding tensors so no spin-rotation constants.
 Leave Link  601 at Wed Jun 28 14:03:35 2023, MaxMem=  2147483648 cpu:               3.5 elap:               0.7
 (Enter /home/pcmt/gaussian/g16.C.01/g16/l9999.exe)

 Test job not archived.
 1\1\GINC-U-0-0\SP\RBP86\Gen\H4I1O4Pa1\ROOT\28-Jun-2023\0\\#p BP86/GEN 
 Pseudo=Read GFInput GFPrint IOP(6/7=3) Symm=(Loose) Int=(UltraFine) Gu
 ess=(Harris) SCRF=(COSMORS,Read) Scf=(NoVarAcc,MaxCycle=200,conver=8)\
 \pao_oh2_I_h2o-bp86-cosmors-deftzvp-klamt.com SGP in PCM calculation\\
 0,1\Pa,0,-0.3591495789,-0.031505605,0.7007115375\O,0,1.0450893569,1.45
 7685126,0.1075131478\O,0,-1.7081656438,0.7920837405,-0.6685052535\I,0,
 -1.5813072976,1.5691183012,3.1098650257\H,0,-1.6901532002,1.5781524126
 ,-1.232040247\O,0,0.161443074,-1.6061608656,-1.1519427057\H,0,-0.18969
 56273,-1.5675716313,-2.0513309498\H,0,0.8182165502,-2.314239344,-1.126
 4316214\H,0,1.9669850937,1.5500554828,0.3762775943\O,0,0.8157303735,-1
 .0178772859,1.7391507943\\Version=ES64L-G16RevC.01\State=1-A\HF=-1043.
 2484103\RMSD=8.929e-09\Dipole=0.7483356,-2.7486894,-4.7170502\Quadrupo
 le=-4.8937826,1.7087224,3.1850601,1.3191215,-1.9109531,7.9920768\PG=C0
 1 [X(H4I1O4Pa1)]\\@


 THERE IS NOTHING NOBLE IN BEING SUPERIOR TO SOME OTHER MAN.
 TRUE NOBILITY IS BEING SUPERIOR TO YOUR FORMER SELF.

                                                   -- HINDU PROVERB
 Job cpu time:       0 days  0 hours 14 minutes  9.1 seconds.
 Elapsed time:       0 days  0 hours  2 minutes 38.3 seconds.
 File lengths (MBytes):  RWF=     48 Int=      0 D2E=      0 Chk=      7 Scr=      1
 Normal termination of Gaussian 16 at Wed Jun 28 14:03:35 2023.
