 Entering Gaussian System, Link 0=/home/pcmt/gaussian/g16.C.01/g16/g16
 AtFile(1): /home/shaaban/basis.gaussian/Pa-def-TZVP
 AtFile(1): /home/shaaban/basis.gaussian/Pa-ECP60MWB
 Initial command:
 /home/pcmt/gaussian/g16.C.01/g16/l1.exe "/state/partition2/shaaban/971587.phlam-s-sakura/Gau-10077.inp" -scrdir="/state/partition2/shaaban/971587.phlam-s-sakura/"
 Entering Link 1 = /home/pcmt/gaussian/g16.C.01/g16/l1.exe PID=     10078.
  
 Copyright (c) 1988-2019, Gaussian, Inc.  All Rights Reserved.
  
 This is part of the Gaussian(R) 16 program.  It is based on
 the Gaussian(R) 09 system (copyright 2009, Gaussian, Inc.),
 the Gaussian(R) 03 system (copyright 2003, Gaussian, Inc.),
 the Gaussian(R) 98 system (copyright 1998, Gaussian, Inc.),
 the Gaussian(R) 94 system (copyright 1995, Gaussian, Inc.),
 the Gaussian 92(TM) system (copyright 1992, Gaussian, Inc.),
 the Gaussian 90(TM) system (copyright 1990, Gaussian, Inc.),
 the Gaussian 88(TM) system (copyright 1988, Gaussian, Inc.),
 the Gaussian 86(TM) system (copyright 1986, Carnegie Mellon
 University), and the Gaussian 82(TM) system (copyright 1983,
 Carnegie Mellon University). Gaussian is a federally registered
 trademark of Gaussian, Inc.
  
 This software contains proprietary and confidential information,
 including trade secrets, belonging to Gaussian, Inc.
  
 This software is provided under written license and may be
 used, copied, transmitted, or stored only in accord with that
 written license.
  
 The following legend is applicable only to US Government
 contracts under FAR:
  
                    RESTRICTED RIGHTS LEGEND
  
 Use, reproduction and disclosure by the US Government is
 subject to restrictions as set forth in subparagraphs (a)
 and (c) of the Commercial Computer Software - Restricted
 Rights clause in FAR 52.227-19.
  
 Gaussian, Inc.
 340 Quinnipiac St., Bldg. 40, Wallingford CT 06492
  
  
 ---------------------------------------------------------------
 Warning -- This program may not be used in any manner that
 competes with the business of Gaussian, Inc. or will provide
 assistance to any competitor of Gaussian, Inc.  The licensee
 of this program is prohibited from giving any competitor of
 Gaussian, Inc. access to this program.  By using this program,
 the user acknowledges that Gaussian, Inc. is engaged in the
 business of creating and licensing software in the field of
 computational chemistry and represents and warrants to the
 licensee that it is not a competitor of Gaussian, Inc. and that
 it will not use this program in any manner prohibited above.
 ---------------------------------------------------------------
  

 Cite this work as:
 Gaussian 16, Revision C.01,
 M. J. Frisch, G. W. Trucks, H. B. Schlegel, G. E. Scuseria, 
 M. A. Robb, J. R. Cheeseman, G. Scalmani, V. Barone, 
 G. A. Petersson, H. Nakatsuji, X. Li, M. Caricato, A. V. Marenich, 
 J. Bloino, B. G. Janesko, R. Gomperts, B. Mennucci, H. P. Hratchian, 
 J. V. Ortiz, A. F. Izmaylov, J. L. Sonnenberg, D. Williams-Young, 
 F. Ding, F. Lipparini, F. Egidi, J. Goings, B. Peng, A. Petrone, 
 T. Henderson, D. Ranasinghe, V. G. Zakrzewski, J. Gao, N. Rega, 
 G. Zheng, W. Liang, M. Hada, M. Ehara, K. Toyota, R. Fukuda, 
 J. Hasegawa, M. Ishida, T. Nakajima, Y. Honda, O. Kitao, H. Nakai, 
 T. Vreven, K. Throssell, J. A. Montgomery, Jr., J. E. Peralta, 
 F. Ogliaro, M. J. Bearpark, J. J. Heyd, E. N. Brothers, K. N. Kudin, 
 V. N. Staroverov, T. A. Keith, R. Kobayashi, J. Normand, 
 K. Raghavachari, A. P. Rendell, J. C. Burant, S. S. Iyengar, 
 J. Tomasi, M. Cossi, J. M. Millam, M. Klene, C. Adamo, R. Cammi, 
 J. W. Ochterski, R. L. Martin, K. Morokuma, O. Farkas, 
 J. B. Foresman, and D. J. Fox, Gaussian, Inc., Wallingford CT, 2019.
 
 ******************************************
 Gaussian 16:  ES64L-G16RevC.01  3-Jul-2019
                22-Jun-2023 
 ******************************************
 %mem=16Gb
 %NProc=8
 Will use up to    8 processors via shared memory.
 %chk=paoh5-bp86-cosmors-deftzvp-klamt.chk
 ----------------------------------------------------------------------
 #p BP86/GEN Pseudo=Read GFInput GFPrint IOP(6/7=3) Symm=(Loose) Int=(U
 ltraFine) Guess=(Harris) SCRF=(COSMORS) Scf=(NoVarAcc,MaxCycle=100,con
 ver=8)
 ----------------------------------------------------------------------
 1/38=1,172=1/1;
 2/12=2,17=4,18=3,40=1/2;
 3/5=7,11=2,16=1,17=8,24=110,25=1,30=1,70=12101,74=404,75=-5/1,2,3;
 4/11=8/1;
 5/5=2,6=8,7=100,38=1/2;
 6/7=3,8=2,9=2,10=2,28=1/1;
 99/5=1,9=1/99;
 Leave Link    1 at Thu Jun 22 10:35:53 2023, MaxMem=  2147483648 cpu:               0.7 elap:               0.1
 (Enter /home/pcmt/gaussian/g16.C.01/g16/l101.exe)
 -----------------------------------------------------------
 paoh5-bp86-cosmors-deftzvp-klamt.com SGP in PCM calculation
 -----------------------------------------------------------
 Symbolic Z-matrix:
 Charge =  0 Multiplicity = 1
 Pa                    0.57345  -0.1758   -0.0185 
 O                     1.51312   1.42559  -1.06292 
 H                     1.46261   1.73255  -1.97669 
 O                    -1.20125   0.92809   0.41825 
 H                    -1.48927   1.81976   0.19365 
 O                    -0.08651  -0.9682   -1.88867 
 H                    -0.67448  -1.68365  -2.15901 
 O                    -0.13326  -1.93793   0.95586 
 H                    -0.15772  -2.20506   1.88298 
 O                     1.64597   0.37026   1.74562 
 H                     2.10696   1.16678   2.03525 
 
 ITRead=  0  0  0  0  0  0  0  0  0  0  0
 MicOpt= -1 -1 -1 -1 -1 -1 -1 -1 -1 -1 -1
 NAtoms=     11 NQM=       11 NQMF=       0 NMMI=      0 NMMIF=      0
                NMic=       0 NMicF=      0.
                    Isotopes and Nuclear Properties:
 (Nuclear quadrupole moments (NQMom) in fm**2, nuclear magnetic moments (NMagM)
  in nuclear magnetons)

  Atom         1           2           3           4           5           6           7           8           9          10
 IAtWgt=         231          16           1          16           1          16           1          16           1          16
 AtmWgt= 231.0359000  15.9949146   1.0078250  15.9949146   1.0078250  15.9949146   1.0078250  15.9949146   1.0078250  15.9949146
 NucSpn=           3           0           1           0           1           0           1           0           1           0
 AtZEff=  -0.0000000  -0.0000000  -0.0000000  -0.0000000  -0.0000000  -0.0000000  -0.0000000  -0.0000000  -0.0000000  -0.0000000
 NQMom= -172.0000000   0.0000000   0.0000000   0.0000000   0.0000000   0.0000000   0.0000000   0.0000000   0.0000000   0.0000000
 NMagM=    2.0100000   0.0000000   2.7928460   0.0000000   2.7928460   0.0000000   2.7928460   0.0000000   2.7928460   0.0000000
 AtZNuc=  91.0000000   8.0000000   1.0000000   8.0000000   1.0000000   8.0000000   1.0000000   8.0000000   1.0000000   8.0000000

  Atom        11
 IAtWgt=           1
 AtmWgt=   1.0078250
 NucSpn=           1
 AtZEff=  -0.0000000
 NQMom=    0.0000000
 NMagM=    2.7928460
 AtZNuc=   1.0000000
 Leave Link  101 at Thu Jun 22 10:35:53 2023, MaxMem=  2147483648 cpu:               1.3 elap:               0.2
 (Enter /home/pcmt/gaussian/g16.C.01/g16/l202.exe)
                          Input orientation:                          
 ---------------------------------------------------------------------
 Center     Atomic      Atomic             Coordinates (Angstroms)
 Number     Number       Type             X           Y           Z
 ---------------------------------------------------------------------
      1         91           0        0.573446   -0.175803   -0.018495
      2          8           0        1.513123    1.425590   -1.062923
      3          1           0        1.462605    1.732554   -1.976694
      4          8           0       -1.201249    0.928089    0.418248
      5          1           0       -1.489270    1.819759    0.193650
      6          8           0       -0.086506   -0.968202   -1.888671
      7          1           0       -0.674476   -1.683650   -2.159009
      8          8           0       -0.133258   -1.937931    0.955862
      9          1           0       -0.157718   -2.205061    1.882979
     10          8           0        1.645968    0.370258    1.745616
     11          1           0        2.106962    1.166776    2.035252
 ---------------------------------------------------------------------
                    Distance matrix (angstroms):
                    1          2          3          4          5
     1  Pa   0.000000
     2  O    2.130324   0.000000
     3  H    2.875234   0.965275   0.000000
     4  O    2.135150   3.131962   3.671380   0.000000
     5  H    2.877858   3.278522   3.664910   0.963574   0.000000
     6  O    2.135647   2.995148   3.114736   3.187546   3.751870
     7  H    2.900468   3.956560   4.033709   3.706876   4.297995
     8  O    2.133986   4.254331   4.961766   3.105432   4.066936
     9  H    2.875429   4.965045   5.746941   3.612619   4.563555
    10  O    2.135550   3.003209   3.968005   3.190568   3.786736
    11  H    2.893452   3.165172   4.102561   3.689977   4.092770
                    6          7          8          9         10
     6  O    0.000000
     7  H    0.964706   0.000000
     8  O    3.005649   3.171751   0.000000
     9  H    3.969915   4.108111   0.965143   0.000000
    10  O    4.242756   4.984887   3.019451   3.147128   0.000000
    11  H    4.976605   5.783870   3.977797   4.064633   0.964803
                   11
    11  H    0.000000
 Stoichiometry    H5O5Pa
 Framework group  C1[X(H5O5Pa)]
 Deg. of freedom    27
 Full point group                 C1      NOp   1
 Largest Abelian subgroup         C1      NOp   1
 Largest concise Abelian subgroup C1      NOp   1
                         Standard orientation:                         
 ---------------------------------------------------------------------
 Center     Atomic      Atomic             Coordinates (Angstroms)
 Number     Number       Type             X           Y           Z
 ---------------------------------------------------------------------
      1         91           0       -0.007522    0.000060   -0.095904
      2          8           0        2.073963   -0.402412   -0.304994
      3          1           0        2.855463    0.164167   -0.304125
      4          8           0        0.034165   -0.008779    2.038820
      5          1           0        0.745630   -0.120104    2.679054
      6          8           0        0.401458    2.082037   -0.339001
      7          1           0       -0.114068    2.893805   -0.262041
      8          8           0       -2.098058    0.420614   -0.177698
      9          1           0       -2.879568   -0.139340   -0.092877
     10          8           0       -0.415853   -2.081249   -0.344890
     11          1           0        0.111655   -2.885653   -0.270621
 ---------------------------------------------------------------------
 Rotational constants (GHZ):           2.0833268           2.0758943           1.5661088
 Leave Link  202 at Thu Jun 22 10:35:53 2023, MaxMem=  2147483648 cpu:               0.1 elap:               0.1
 (Enter /home/pcmt/gaussian/g16.C.01/g16/l301.exe)
 General basis read from cards:  (5D, 7F)
 Centers:       1
 S 3 1.00
     Exponent=  1.2047376000D+04 Coefficients=  3.4500000000D-04
     Exponent=  1.8116841000D+03 Coefficients=  2.7420000000D-03
     Exponent=  3.4770104000D+02 Coefficients=  1.0053000000D-02
 S 1 1.00
     Exponent=  9.8678010000D+01 Coefficients=  1.0000000000D+00
 S 3 1.00
     Exponent=  5.7507376000D+01 Coefficients=  5.1528000000D-02
     Exponent=  3.3502601000D+01 Coefficients= -2.3692400000D-01
     Exponent=  1.9554451000D+01 Coefficients=  7.1904800000D-01
 S 1 1.00
     Exponent=  9.7164210000D+00 Coefficients=  1.0000000000D+00
 S 1 1.00
     Exponent=  2.6920960000D+00 Coefficients=  1.0000000000D+00
 S 1 1.00
     Exponent=  1.4538470000D+00 Coefficients=  1.0000000000D+00
 S 1 1.00
     Exponent=  5.7435200000D-01 Coefficients=  1.0000000000D+00
 S 1 1.00
     Exponent=  2.6346800000D-01 Coefficients=  1.0000000000D+00
 S 1 1.00
     Exponent=  5.6557000000D-02 Coefficients=  1.0000000000D+00
 S 1 1.00
     Exponent=  2.3169000000D-02 Coefficients=  1.0000000000D+00
 P 5 1.00
     Exponent=  2.9033676000D+03 Coefficients=  3.5000000000D-05
     Exponent=  6.4486356000D+02 Coefficients=  2.0500000000D-04
     Exponent=  2.2025896000D+02 Coefficients=  1.2510000000D-03
     Exponent=  8.0276401000D+01 Coefficients=  2.4570000000D-03
     Exponent=  2.4080211000D+01 Coefficients=  1.1190000000D-02
 P 1 1.00
     Exponent=  1.4077580000D+01 Coefficients=  1.0000000000D+00
 P 1 1.00
     Exponent=  8.2658460000D+00 Coefficients=  1.0000000000D+00
 P 1 1.00
     Exponent=  3.5948000000D+00 Coefficients=  1.0000000000D+00
 P 1 1.00
     Exponent=  1.7531110000D+00 Coefficients=  1.0000000000D+00
 P 1 1.00
     Exponent=  6.5776700000D-01 Coefficients=  1.0000000000D+00
 P 1 1.00
     Exponent=  2.8463900000D-01 Coefficients=  1.0000000000D+00
 P 1 1.00
     Exponent=  1.0054300000D-01 Coefficients=  1.0000000000D+00
 P 1 1.00
     Exponent=  3.0190000000D-02 Coefficients=  1.0000000000D+00
 D 6 1.00
     Exponent=  4.4814991000D+02 Coefficients=  2.6000000000D-05
     Exponent=  1.5446145000D+02 Coefficients=  2.2800000000D-04
     Exponent=  6.0925377000D+01 Coefficients=  9.0400000000D-04
     Exponent=  1.7032091000D+01 Coefficients=  2.5647000000D-02
     Exponent=  1.0018877000D+01 Coefficients= -1.0575100000D-01
     Exponent=  3.4091930000D+00 Coefficients=  4.4743200000D-01
 D 1 1.00
     Exponent=  1.6702130000D+00 Coefficients=  1.0000000000D+00
 D 1 1.00
     Exponent=  7.4109500000D-01 Coefficients=  1.0000000000D+00
 D 1 1.00
     Exponent=  2.6139300000D-01 Coefficients=  1.0000000000D+00
 D 1 1.00
     Exponent=  8.2811000000D-02 Coefficients=  1.0000000000D+00
 F 5 1.00
     Exponent=  8.7991327000D+01 Coefficients=  2.2600000000D-04
     Exponent=  2.8340195000D+01 Coefficients=  2.3230000000D-03
     Exponent=  1.2440994000D+01 Coefficients=  4.5850000000D-03
     Exponent=  3.9572960000D+00 Coefficients=  1.5696100000D-01
     Exponent=  1.8759440000D+00 Coefficients=  3.4497700000D-01
 F 1 1.00
     Exponent=  8.2758900000D-01 Coefficients=  1.0000000000D+00
 F 1 1.00
     Exponent=  3.3274800000D-01 Coefficients=  1.0000000000D+00
 F 1 1.00
     Exponent=  1.1468500000D-01 Coefficients=  1.0000000000D+00
 G 1 1.00
     Exponent=  3.5000000000D-01 Coefficients=  1.0000000000D+00
 ****
 Centers:       2      4      6      8     10
 Def2TZVP
 ****
 Centers:       3      5      7      9     11
 Def2TZVP
 ****
 ======================================================================================================
                                       Pseudopotential Parameters
 ======================================================================================================
  Center     Atomic      Valence      Angular      Power
  Number     Number     Electrons     Momentum     of R      Exponent        Coefficient   SO-Coeffient
 ======================================================================================================
    1         91           31
                                      H and up 
                                                     2        1.0000000        0.00000000    0.00000000
                                      S - H
                                                     2       15.2691737      475.47573283    0.00000000
                                      P - H
                                                     2        9.9577370      207.66485962    0.00000000
                                      D - H
                                                     2        8.9431413      156.67411988    0.00000000
                                      F - H
                                                     2        7.0104666       67.98223685    0.00000000
                                      G - H
                                                     2       12.2010560      -57.63059989    0.00000000
    2          8
                                   No pseudopotential on this center.
    3          1
                                   No pseudopotential on this center.
    4          8
                                   No pseudopotential on this center.
    5          1
                                   No pseudopotential on this center.
    6          8
                                   No pseudopotential on this center.
    7          1
                                   No pseudopotential on this center.
    8          8
                                   No pseudopotential on this center.
    9          1
                                   No pseudopotential on this center.
   10          8
                                   No pseudopotential on this center.
   11          1
                                   No pseudopotential on this center.
 ======================================================================================================
 Ernie: Thresh=  0.10000D-02 Tol=  0.10000D-05 Strict=F.
 AO basis set in the form of general basis input (Overlap normalization):
      1 0
 S   3 1.00       0.000000000000
      0.1204737600D+05  0.2857094961D-01
      0.1811684100D+04  0.2270769386D+00
      0.3477010400D+03  0.8325326273D+00
 S   3 1.00       0.000000000000
      0.5750737600D+02  0.9569327984D-01
      0.3350260100D+02 -0.4399944619D+00
      0.1955445100D+02  0.1335352847D+01
 S   1 1.00       0.000000000000
      0.9867801000D+02  0.1000000000D+01
 S   1 1.00       0.000000000000
      0.9716421000D+01  0.1000000000D+01
 S   1 1.00       0.000000000000
      0.2692096000D+01  0.1000000000D+01
 S   1 1.00       0.000000000000
      0.1453847000D+01  0.1000000000D+01
 S   1 1.00       0.000000000000
      0.5743520000D+00  0.1000000000D+01
 S   1 1.00       0.000000000000
      0.2634680000D+00  0.1000000000D+01
 S   1 1.00       0.000000000000
      0.5655700000D-01  0.1000000000D+01
 S   1 1.00       0.000000000000
      0.2316900000D-01  0.1000000000D+01
 P   5 1.00       0.000000000000
      0.2903367600D+04  0.2594222647D-02
      0.6448635600D+03  0.1519473264D-01
      0.2202589600D+03  0.9272492945D-01
      0.8027640100D+02  0.1821144298D+00
      0.2408021100D+02  0.8294100404D+00
 P   1 1.00       0.000000000000
      0.1407758000D+02  0.1000000000D+01
 P   1 1.00       0.000000000000
      0.8265846000D+01  0.1000000000D+01
 P   1 1.00       0.000000000000
      0.3594800000D+01  0.1000000000D+01
 P   1 1.00       0.000000000000
      0.1753111000D+01  0.1000000000D+01
 P   1 1.00       0.000000000000
      0.6577670000D+00  0.1000000000D+01
 P   1 1.00       0.000000000000
      0.2846390000D+00  0.1000000000D+01
 P   1 1.00       0.000000000000
      0.1005430000D+00  0.1000000000D+01
 P   1 1.00       0.000000000000
      0.3019000000D-01  0.1000000000D+01
 D   6 1.00       0.000000000000
      0.4481499100D+03  0.6556927566D-04
      0.1544614500D+03  0.5749921096D-03
      0.6092537700D+02  0.2279793277D-02
      0.1703209100D+02  0.6467904664D-01
      0.1001887700D+02 -0.2666929411D+00
      0.3409193000D+01  0.1128376621D+01
 D   1 1.00       0.000000000000
      0.1670213000D+01  0.1000000000D+01
 D   1 1.00       0.000000000000
      0.7410950000D+00  0.1000000000D+01
 D   1 1.00       0.000000000000
      0.2613930000D+00  0.1000000000D+01
 D   1 1.00       0.000000000000
      0.8281100000D-01  0.1000000000D+01
 F   5 1.00       0.000000000000
      0.8799132700D+02  0.4766318191D-03
      0.2834019500D+02  0.4899184583D-02
      0.1244099400D+02  0.9669720755D-02
      0.3957296000D+01  0.3310292343D+00
      0.1875944000D+01  0.7275531640D+00
 F   1 1.00       0.000000000000
      0.8275890000D+00  0.1000000000D+01
 F   1 1.00       0.000000000000
      0.3327480000D+00  0.1000000000D+01
 F   1 1.00       0.000000000000
      0.1146850000D+00  0.1000000000D+01
 G   1 1.00       0.000000000000
      0.3500000000D+00  0.1000000000D+01
 ****
      2 0
 S   6 1.00       0.000000000000
      0.2703238263D+05  0.5722733521D-03
      0.4052387139D+04  0.4435323349D-02
      0.9223272271D+03  0.2302010771D-01
      0.2612407099D+03  0.9282249067D-01
      0.8535464135D+02  0.2937850001D+00
      0.3103503524D+02  0.6740160450D+00
 S   2 1.00       0.000000000000
      0.1226086073D+02  0.6383993703D+00
      0.4998707601D+01  0.3953458713D+00
 S   1 1.00       0.000000000000
      0.1170310816D+01  0.1000000000D+01
 S   1 1.00       0.000000000000
      0.4647474099D+00  0.1000000000D+01
 S   1 1.00       0.000000000000
      0.1850453636D+00  0.1000000000D+01
 P   4 1.00       0.000000000000
      0.6327495480D+02  0.1201833222D-01
      0.1462704938D+02  0.8300542179D-01
      0.4450122346D+01  0.3199174393D+00
      0.1527579965D+01  0.7071554292D+00
 P   1 1.00       0.000000000000
      0.5293511794D+00  0.1000000000D+01
 P   1 1.00       0.000000000000
      0.1747842127D+00  0.1000000000D+01
 D   1 1.00       0.000000000000
      0.2314000000D+01  0.1000000000D+01
 D   1 1.00       0.000000000000
      0.6450000000D+00  0.1000000000D+01
 F   1 1.00       0.000000000000
      0.1428000000D+01  0.1000000000D+01
 ****
      3 0
 S   3 1.00       0.000000000000
      0.3406134100D+02  0.2543930721D-01
      0.5123574600D+01  0.1900859489D+00
      0.1164662600D+01  0.8524411301D+00
 S   1 1.00       0.000000000000
      0.3272304100D+00  0.1000000000D+01
 S   1 1.00       0.000000000000
      0.1030724100D+00  0.1000000000D+01
 P   1 1.00       0.000000000000
      0.8000000000D+00  0.1000000000D+01
 ****
      4 0
 S   6 1.00       0.000000000000
      0.2703238263D+05  0.5722733521D-03
      0.4052387139D+04  0.4435323349D-02
      0.9223272271D+03  0.2302010771D-01
      0.2612407099D+03  0.9282249067D-01
      0.8535464135D+02  0.2937850001D+00
      0.3103503524D+02  0.6740160450D+00
 S   2 1.00       0.000000000000
      0.1226086073D+02  0.6383993703D+00
      0.4998707601D+01  0.3953458713D+00
 S   1 1.00       0.000000000000
      0.1170310816D+01  0.1000000000D+01
 S   1 1.00       0.000000000000
      0.4647474099D+00  0.1000000000D+01
 S   1 1.00       0.000000000000
      0.1850453636D+00  0.1000000000D+01
 P   4 1.00       0.000000000000
      0.6327495480D+02  0.1201833222D-01
      0.1462704938D+02  0.8300542179D-01
      0.4450122346D+01  0.3199174393D+00
      0.1527579965D+01  0.7071554292D+00
 P   1 1.00       0.000000000000
      0.5293511794D+00  0.1000000000D+01
 P   1 1.00       0.000000000000
      0.1747842127D+00  0.1000000000D+01
 D   1 1.00       0.000000000000
      0.2314000000D+01  0.1000000000D+01
 D   1 1.00       0.000000000000
      0.6450000000D+00  0.1000000000D+01
 F   1 1.00       0.000000000000
      0.1428000000D+01  0.1000000000D+01
 ****
      5 0
 S   3 1.00       0.000000000000
      0.3406134100D+02  0.2543930721D-01
      0.5123574600D+01  0.1900859489D+00
      0.1164662600D+01  0.8524411301D+00
 S   1 1.00       0.000000000000
      0.3272304100D+00  0.1000000000D+01
 S   1 1.00       0.000000000000
      0.1030724100D+00  0.1000000000D+01
 P   1 1.00       0.000000000000
      0.8000000000D+00  0.1000000000D+01
 ****
      6 0
 S   6 1.00       0.000000000000
      0.2703238263D+05  0.5722733521D-03
      0.4052387139D+04  0.4435323349D-02
      0.9223272271D+03  0.2302010771D-01
      0.2612407099D+03  0.9282249067D-01
      0.8535464135D+02  0.2937850001D+00
      0.3103503524D+02  0.6740160450D+00
 S   2 1.00       0.000000000000
      0.1226086073D+02  0.6383993703D+00
      0.4998707601D+01  0.3953458713D+00
 S   1 1.00       0.000000000000
      0.1170310816D+01  0.1000000000D+01
 S   1 1.00       0.000000000000
      0.4647474099D+00  0.1000000000D+01
 S   1 1.00       0.000000000000
      0.1850453636D+00  0.1000000000D+01
 P   4 1.00       0.000000000000
      0.6327495480D+02  0.1201833222D-01
      0.1462704938D+02  0.8300542179D-01
      0.4450122346D+01  0.3199174393D+00
      0.1527579965D+01  0.7071554292D+00
 P   1 1.00       0.000000000000
      0.5293511794D+00  0.1000000000D+01
 P   1 1.00       0.000000000000
      0.1747842127D+00  0.1000000000D+01
 D   1 1.00       0.000000000000
      0.2314000000D+01  0.1000000000D+01
 D   1 1.00       0.000000000000
      0.6450000000D+00  0.1000000000D+01
 F   1 1.00       0.000000000000
      0.1428000000D+01  0.1000000000D+01
 ****
      7 0
 S   3 1.00       0.000000000000
      0.3406134100D+02  0.2543930721D-01
      0.5123574600D+01  0.1900859489D+00
      0.1164662600D+01  0.8524411301D+00
 S   1 1.00       0.000000000000
      0.3272304100D+00  0.1000000000D+01
 S   1 1.00       0.000000000000
      0.1030724100D+00  0.1000000000D+01
 P   1 1.00       0.000000000000
      0.8000000000D+00  0.1000000000D+01
 ****
      8 0
 S   6 1.00       0.000000000000
      0.2703238263D+05  0.5722733521D-03
      0.4052387139D+04  0.4435323349D-02
      0.9223272271D+03  0.2302010771D-01
      0.2612407099D+03  0.9282249067D-01
      0.8535464135D+02  0.2937850001D+00
      0.3103503524D+02  0.6740160450D+00
 S   2 1.00       0.000000000000
      0.1226086073D+02  0.6383993703D+00
      0.4998707601D+01  0.3953458713D+00
 S   1 1.00       0.000000000000
      0.1170310816D+01  0.1000000000D+01
 S   1 1.00       0.000000000000
      0.4647474099D+00  0.1000000000D+01
 S   1 1.00       0.000000000000
      0.1850453636D+00  0.1000000000D+01
 P   4 1.00       0.000000000000
      0.6327495480D+02  0.1201833222D-01
      0.1462704938D+02  0.8300542179D-01
      0.4450122346D+01  0.3199174393D+00
      0.1527579965D+01  0.7071554292D+00
 P   1 1.00       0.000000000000
      0.5293511794D+00  0.1000000000D+01
 P   1 1.00       0.000000000000
      0.1747842127D+00  0.1000000000D+01
 D   1 1.00       0.000000000000
      0.2314000000D+01  0.1000000000D+01
 D   1 1.00       0.000000000000
      0.6450000000D+00  0.1000000000D+01
 F   1 1.00       0.000000000000
      0.1428000000D+01  0.1000000000D+01
 ****
      9 0
 S   3 1.00       0.000000000000
      0.3406134100D+02  0.2543930721D-01
      0.5123574600D+01  0.1900859489D+00
      0.1164662600D+01  0.8524411301D+00
 S   1 1.00       0.000000000000
      0.3272304100D+00  0.1000000000D+01
 S   1 1.00       0.000000000000
      0.1030724100D+00  0.1000000000D+01
 P   1 1.00       0.000000000000
      0.8000000000D+00  0.1000000000D+01
 ****
     10 0
 S   6 1.00       0.000000000000
      0.2703238263D+05  0.5722733521D-03
      0.4052387139D+04  0.4435323349D-02
      0.9223272271D+03  0.2302010771D-01
      0.2612407099D+03  0.9282249067D-01
      0.8535464135D+02  0.2937850001D+00
      0.3103503524D+02  0.6740160450D+00
 S   2 1.00       0.000000000000
      0.1226086073D+02  0.6383993703D+00
      0.4998707601D+01  0.3953458713D+00
 S   1 1.00       0.000000000000
      0.1170310816D+01  0.1000000000D+01
 S   1 1.00       0.000000000000
      0.4647474099D+00  0.1000000000D+01
 S   1 1.00       0.000000000000
      0.1850453636D+00  0.1000000000D+01
 P   4 1.00       0.000000000000
      0.6327495480D+02  0.1201833222D-01
      0.1462704938D+02  0.8300542179D-01
      0.4450122346D+01  0.3199174393D+00
      0.1527579965D+01  0.7071554292D+00
 P   1 1.00       0.000000000000
      0.5293511794D+00  0.1000000000D+01
 P   1 1.00       0.000000000000
      0.1747842127D+00  0.1000000000D+01
 D   1 1.00       0.000000000000
      0.2314000000D+01  0.1000000000D+01
 D   1 1.00       0.000000000000
      0.6450000000D+00  0.1000000000D+01
 F   1 1.00       0.000000000000
      0.1428000000D+01  0.1000000000D+01
 ****
     11 0
 S   3 1.00       0.000000000000
      0.3406134100D+02  0.2543930721D-01
      0.5123574600D+01  0.1900859489D+00
      0.1164662600D+01  0.8524411301D+00
 S   1 1.00       0.000000000000
      0.3272304100D+00  0.1000000000D+01
 S   1 1.00       0.000000000000
      0.1030724100D+00  0.1000000000D+01
 P   1 1.00       0.000000000000
      0.8000000000D+00  0.1000000000D+01
 ****

 AO basis set (Overlap normalization):
 Atom Pa1      Shell     1 S   3     bf    1 -     1         -0.014214681371          0.000112895585         -0.181232892302
      0.1204737600D+05  0.2857094961D-01
      0.1811684100D+04  0.2270769386D+00
      0.3477010400D+03  0.8325326273D+00
 Atom Pa1      Shell     2 S   3     bf    2 -     2         -0.014214681371          0.000112895585         -0.181232892302
      0.5750737600D+02  0.9569327984D-01
      0.3350260100D+02 -0.4399944619D+00
      0.1955445100D+02  0.1335352847D+01
 Atom Pa1      Shell     3 S   1     bf    3 -     3         -0.014214681371          0.000112895585         -0.181232892302
      0.9867801000D+02  0.1000000000D+01
 Atom Pa1      Shell     4 S   1     bf    4 -     4         -0.014214681371          0.000112895585         -0.181232892302
      0.9716421000D+01  0.1000000000D+01
 Atom Pa1      Shell     5 S   1     bf    5 -     5         -0.014214681371          0.000112895585         -0.181232892302
      0.2692096000D+01  0.1000000000D+01
 Atom Pa1      Shell     6 S   1     bf    6 -     6         -0.014214681371          0.000112895585         -0.181232892302
      0.1453847000D+01  0.1000000000D+01
 Atom Pa1      Shell     7 S   1     bf    7 -     7         -0.014214681371          0.000112895585         -0.181232892302
      0.5743520000D+00  0.1000000000D+01
 Atom Pa1      Shell     8 S   1     bf    8 -     8         -0.014214681371          0.000112895585         -0.181232892302
      0.2634680000D+00  0.1000000000D+01
 Atom Pa1      Shell     9 S   1     bf    9 -     9         -0.014214681371          0.000112895585         -0.181232892302
      0.5655700000D-01  0.1000000000D+01
 Atom Pa1      Shell    10 S   1     bf   10 -    10         -0.014214681371          0.000112895585         -0.181232892302
      0.2316900000D-01  0.1000000000D+01
 Atom Pa1      Shell    11 P   5     bf   11 -    13         -0.014214681371          0.000112895585         -0.181232892302
      0.2903367600D+04  0.2594222647D-02
      0.6448635600D+03  0.1519473264D-01
      0.2202589600D+03  0.9272492945D-01
      0.8027640100D+02  0.1821144298D+00
      0.2408021100D+02  0.8294100404D+00
 Atom Pa1      Shell    12 P   1     bf   14 -    16         -0.014214681371          0.000112895585         -0.181232892302
      0.1407758000D+02  0.1000000000D+01
 Atom Pa1      Shell    13 P   1     bf   17 -    19         -0.014214681371          0.000112895585         -0.181232892302
      0.8265846000D+01  0.1000000000D+01
 Atom Pa1      Shell    14 P   1     bf   20 -    22         -0.014214681371          0.000112895585         -0.181232892302
      0.3594800000D+01  0.1000000000D+01
 Atom Pa1      Shell    15 P   1     bf   23 -    25         -0.014214681371          0.000112895585         -0.181232892302
      0.1753111000D+01  0.1000000000D+01
 Atom Pa1      Shell    16 P   1     bf   26 -    28         -0.014214681371          0.000112895585         -0.181232892302
      0.6577670000D+00  0.1000000000D+01
 Atom Pa1      Shell    17 P   1     bf   29 -    31         -0.014214681371          0.000112895585         -0.181232892302
      0.2846390000D+00  0.1000000000D+01
 Atom Pa1      Shell    18 P   1     bf   32 -    34         -0.014214681371          0.000112895585         -0.181232892302
      0.1005430000D+00  0.1000000000D+01
 Atom Pa1      Shell    19 P   1     bf   35 -    37         -0.014214681371          0.000112895585         -0.181232892302
      0.3019000000D-01  0.1000000000D+01
 Atom Pa1      Shell    20 D   6     bf   38 -    42         -0.014214681371          0.000112895585         -0.181232892302
      0.4481499100D+03  0.6556927566D-04
      0.1544614500D+03  0.5749921096D-03
      0.6092537700D+02  0.2279793277D-02
      0.1703209100D+02  0.6467904664D-01
      0.1001887700D+02 -0.2666929411D+00
      0.3409193000D+01  0.1128376621D+01
 Atom Pa1      Shell    21 D   1     bf   43 -    47         -0.014214681371          0.000112895585         -0.181232892302
      0.1670213000D+01  0.1000000000D+01
 Atom Pa1      Shell    22 D   1     bf   48 -    52         -0.014214681371          0.000112895585         -0.181232892302
      0.7410950000D+00  0.1000000000D+01
 Atom Pa1      Shell    23 D   1     bf   53 -    57         -0.014214681371          0.000112895585         -0.181232892302
      0.2613930000D+00  0.1000000000D+01
 Atom Pa1      Shell    24 D   1     bf   58 -    62         -0.014214681371          0.000112895585         -0.181232892302
      0.8281100000D-01  0.1000000000D+01
 Atom Pa1      Shell    25 F   5     bf   63 -    69         -0.014214681371          0.000112895585         -0.181232892302
      0.8799132700D+02  0.4766318191D-03
      0.2834019500D+02  0.4899184583D-02
      0.1244099400D+02  0.9669720755D-02
      0.3957296000D+01  0.3310292343D+00
      0.1875944000D+01  0.7275531640D+00
 Atom Pa1      Shell    26 F   1     bf   70 -    76         -0.014214681371          0.000112895585         -0.181232892302
      0.8275890000D+00  0.1000000000D+01
 Atom Pa1      Shell    27 F   1     bf   77 -    83         -0.014214681371          0.000112895585         -0.181232892302
      0.3327480000D+00  0.1000000000D+01
 Atom Pa1      Shell    28 F   1     bf   84 -    90         -0.014214681371          0.000112895585         -0.181232892302
      0.1146850000D+00  0.1000000000D+01
 Atom Pa1      Shell    29 G   1     bf   91 -    99         -0.014214681371          0.000112895585         -0.181232892302
      0.3500000000D+00  0.1000000000D+01
 Atom O2       Shell    30 S   6     bf  100 -   100          3.919221702116         -0.760448956340         -0.576354682427
      0.2703238263D+05  0.5722733521D-03
      0.4052387139D+04  0.4435323349D-02
      0.9223272271D+03  0.2302010771D-01
      0.2612407099D+03  0.9282249067D-01
      0.8535464135D+02  0.2937850001D+00
      0.3103503524D+02  0.6740160450D+00
 Atom O2       Shell    31 S   2     bf  101 -   101          3.919221702116         -0.760448956340         -0.576354682427
      0.1226086073D+02  0.6383993703D+00
      0.4998707601D+01  0.3953458713D+00
 Atom O2       Shell    32 S   1     bf  102 -   102          3.919221702116         -0.760448956340         -0.576354682427
      0.1170310816D+01  0.1000000000D+01
 Atom O2       Shell    33 S   1     bf  103 -   103          3.919221702116         -0.760448956340         -0.576354682427
      0.4647474099D+00  0.1000000000D+01
 Atom O2       Shell    34 S   1     bf  104 -   104          3.919221702116         -0.760448956340         -0.576354682427
      0.1850453636D+00  0.1000000000D+01
 Atom O2       Shell    35 P   4     bf  105 -   107          3.919221702116         -0.760448956340         -0.576354682427
      0.6327495480D+02  0.1201833222D-01
      0.1462704938D+02  0.8300542179D-01
      0.4450122346D+01  0.3199174393D+00
      0.1527579965D+01  0.7071554292D+00
 Atom O2       Shell    36 P   1     bf  108 -   110          3.919221702116         -0.760448956340         -0.576354682427
      0.5293511794D+00  0.1000000000D+01
 Atom O2       Shell    37 P   1     bf  111 -   113          3.919221702116         -0.760448956340         -0.576354682427
      0.1747842127D+00  0.1000000000D+01
 Atom O2       Shell    38 D   1     bf  114 -   118          3.919221702116         -0.760448956340         -0.576354682427
      0.2314000000D+01  0.1000000000D+01
 Atom O2       Shell    39 D   1     bf  119 -   123          3.919221702116         -0.760448956340         -0.576354682427
      0.6450000000D+00  0.1000000000D+01
 Atom O2       Shell    40 F   1     bf  124 -   130          3.919221702116         -0.760448956340         -0.576354682427
      0.1428000000D+01  0.1000000000D+01
 Atom H3       Shell    41 S   3     bf  131 -   131          5.396043350132          0.310231281581         -0.574713330236
      0.3406134100D+02  0.2543930721D-01
      0.5123574600D+01  0.1900859489D+00
      0.1164662600D+01  0.8524411301D+00
 Atom H3       Shell    42 S   1     bf  132 -   132          5.396043350132          0.310231281581         -0.574713330236
      0.3272304100D+00  0.1000000000D+01
 Atom H3       Shell    43 S   1     bf  133 -   133          5.396043350132          0.310231281581         -0.574713330236
      0.1030724100D+00  0.1000000000D+01
 Atom H3       Shell    44 P   1     bf  134 -   136          5.396043350132          0.310231281581         -0.574713330236
      0.8000000000D+00  0.1000000000D+01
 Atom O4       Shell    45 S   6     bf  137 -   137          0.064561848496         -0.016589244678          3.852812156512
      0.2703238263D+05  0.5722733521D-03
      0.4052387139D+04  0.4435323349D-02
      0.9223272271D+03  0.2302010771D-01
      0.2612407099D+03  0.9282249067D-01
      0.8535464135D+02  0.2937850001D+00
      0.3103503524D+02  0.6740160450D+00
 Atom O4       Shell    46 S   2     bf  138 -   138          0.064561848496         -0.016589244678          3.852812156512
      0.1226086073D+02  0.6383993703D+00
      0.4998707601D+01  0.3953458713D+00
 Atom O4       Shell    47 S   1     bf  139 -   139          0.064561848496         -0.016589244678          3.852812156512
      0.1170310816D+01  0.1000000000D+01
 Atom O4       Shell    48 S   1     bf  140 -   140          0.064561848496         -0.016589244678          3.852812156512
      0.4647474099D+00  0.1000000000D+01
 Atom O4       Shell    49 S   1     bf  141 -   141          0.064561848496         -0.016589244678          3.852812156512
      0.1850453636D+00  0.1000000000D+01
 Atom O4       Shell    50 P   4     bf  142 -   144          0.064561848496         -0.016589244678          3.852812156512
      0.6327495480D+02  0.1201833222D-01
      0.1462704938D+02  0.8300542179D-01
      0.4450122346D+01  0.3199174393D+00
      0.1527579965D+01  0.7071554292D+00
 Atom O4       Shell    51 P   1     bf  145 -   147          0.064561848496         -0.016589244678          3.852812156512
      0.5293511794D+00  0.1000000000D+01
 Atom O4       Shell    52 P   1     bf  148 -   150          0.064561848496         -0.016589244678          3.852812156512
      0.1747842127D+00  0.1000000000D+01
 Atom O4       Shell    53 D   1     bf  151 -   155          0.064561848496         -0.016589244678          3.852812156512
      0.2314000000D+01  0.1000000000D+01
 Atom O4       Shell    54 D   1     bf  156 -   160          0.064561848496         -0.016589244678          3.852812156512
      0.6450000000D+00  0.1000000000D+01
 Atom O4       Shell    55 F   1     bf  161 -   167          0.064561848496         -0.016589244678          3.852812156512
      0.1428000000D+01  0.1000000000D+01
 Atom H5       Shell    56 S   3     bf  168 -   168          1.409036459586         -0.226963102530          5.062677568076
      0.3406134100D+02  0.2543930721D-01
      0.5123574600D+01  0.1900859489D+00
      0.1164662600D+01  0.8524411301D+00
 Atom H5       Shell    57 S   1     bf  169 -   169          1.409036459586         -0.226963102530          5.062677568076
      0.3272304100D+00  0.1000000000D+01
 Atom H5       Shell    58 S   1     bf  170 -   170          1.409036459586         -0.226963102530          5.062677568076
      0.1030724100D+00  0.1000000000D+01
 Atom H5       Shell    59 P   1     bf  171 -   173          1.409036459586         -0.226963102530          5.062677568076
      0.8000000000D+00  0.1000000000D+01
 Atom O6       Shell    60 S   6     bf  174 -   174          0.758646360396          3.934479098092         -0.640619556664
      0.2703238263D+05  0.5722733521D-03
      0.4052387139D+04  0.4435323349D-02
      0.9223272271D+03  0.2302010771D-01
      0.2612407099D+03  0.9282249067D-01
      0.8535464135D+02  0.2937850001D+00
      0.3103503524D+02  0.6740160450D+00
 Atom O6       Shell    61 S   2     bf  175 -   175          0.758646360396          3.934479098092         -0.640619556664
      0.1226086073D+02  0.6383993703D+00
      0.4998707601D+01  0.3953458713D+00
 Atom O6       Shell    62 S   1     bf  176 -   176          0.758646360396          3.934479098092         -0.640619556664
      0.1170310816D+01  0.1000000000D+01
 Atom O6       Shell    63 S   1     bf  177 -   177          0.758646360396          3.934479098092         -0.640619556664
      0.4647474099D+00  0.1000000000D+01
 Atom O6       Shell    64 S   1     bf  178 -   178          0.758646360396          3.934479098092         -0.640619556664
      0.1850453636D+00  0.1000000000D+01
 Atom O6       Shell    65 P   4     bf  179 -   181          0.758646360396          3.934479098092         -0.640619556664
      0.6327495480D+02  0.1201833222D-01
      0.1462704938D+02  0.8300542179D-01
      0.4450122346D+01  0.3199174393D+00
      0.1527579965D+01  0.7071554292D+00
 Atom O6       Shell    66 P   1     bf  182 -   184          0.758646360396          3.934479098092         -0.640619556664
      0.5293511794D+00  0.1000000000D+01
 Atom O6       Shell    67 P   1     bf  185 -   187          0.758646360396          3.934479098092         -0.640619556664
      0.1747842127D+00  0.1000000000D+01
 Atom O6       Shell    68 D   1     bf  188 -   192          0.758646360396          3.934479098092         -0.640619556664
      0.2314000000D+01  0.1000000000D+01
 Atom O6       Shell    69 D   1     bf  193 -   197          0.758646360396          3.934479098092         -0.640619556664
      0.6450000000D+00  0.1000000000D+01
 Atom O6       Shell    70 F   1     bf  198 -   204          0.758646360396          3.934479098092         -0.640619556664
      0.1428000000D+01  0.1000000000D+01
 Atom H7       Shell    71 S   3     bf  205 -   205         -0.215557121615          5.468498191847         -0.495186131759
      0.3406134100D+02  0.2543930721D-01
      0.5123574600D+01  0.1900859489D+00
      0.1164662600D+01  0.8524411301D+00
 Atom H7       Shell    72 S   1     bf  206 -   206         -0.215557121615          5.468498191847         -0.495186131759
      0.3272304100D+00  0.1000000000D+01
 Atom H7       Shell    73 S   1     bf  207 -   207         -0.215557121615          5.468498191847         -0.495186131759
      0.1030724100D+00  0.1000000000D+01
 Atom H7       Shell    74 P   1     bf  208 -   210         -0.215557121615          5.468498191847         -0.495186131759
      0.8000000000D+00  0.1000000000D+01
 Atom O8       Shell    75 S   6     bf  211 -   211         -3.964755365128          0.794845556162         -0.335800011556
      0.2703238263D+05  0.5722733521D-03
      0.4052387139D+04  0.4435323349D-02
      0.9223272271D+03  0.2302010771D-01
      0.2612407099D+03  0.9282249067D-01
      0.8535464135D+02  0.2937850001D+00
      0.3103503524D+02  0.6740160450D+00
 Atom O8       Shell    76 S   2     bf  212 -   212         -3.964755365128          0.794845556162         -0.335800011556
      0.1226086073D+02  0.6383993703D+00
      0.4998707601D+01  0.3953458713D+00
 Atom O8       Shell    77 S   1     bf  213 -   213         -3.964755365128          0.794845556162         -0.335800011556
      0.1170310816D+01  0.1000000000D+01
 Atom O8       Shell    78 S   1     bf  214 -   214         -3.964755365128          0.794845556162         -0.335800011556
      0.4647474099D+00  0.1000000000D+01
 Atom O8       Shell    79 S   1     bf  215 -   215         -3.964755365128          0.794845556162         -0.335800011556
      0.1850453636D+00  0.1000000000D+01
 Atom O8       Shell    80 P   4     bf  216 -   218         -3.964755365128          0.794845556162         -0.335800011556
      0.6327495480D+02  0.1201833222D-01
      0.1462704938D+02  0.8300542179D-01
      0.4450122346D+01  0.3199174393D+00
      0.1527579965D+01  0.7071554292D+00
 Atom O8       Shell    81 P   1     bf  219 -   221         -3.964755365128          0.794845556162         -0.335800011556
      0.5293511794D+00  0.1000000000D+01
 Atom O8       Shell    82 P   1     bf  222 -   224         -3.964755365128          0.794845556162         -0.335800011556
      0.1747842127D+00  0.1000000000D+01
 Atom O8       Shell    83 D   1     bf  225 -   229         -3.964755365128          0.794845556162         -0.335800011556
      0.2314000000D+01  0.1000000000D+01
 Atom O8       Shell    84 D   1     bf  230 -   234         -3.964755365128          0.794845556162         -0.335800011556
      0.6450000000D+00  0.1000000000D+01
 Atom O8       Shell    85 F   1     bf  235 -   241         -3.964755365128          0.794845556162         -0.335800011556
      0.1428000000D+01  0.1000000000D+01
 Atom H9       Shell    86 S   3     bf  242 -   242         -5.441595243112         -0.263314653389         -0.175512159493
      0.3406134100D+02  0.2543930721D-01
      0.5123574600D+01  0.1900859489D+00
      0.1164662600D+01  0.8524411301D+00
 Atom H9       Shell    87 S   1     bf  243 -   243         -5.441595243112         -0.263314653389         -0.175512159493
      0.3272304100D+00  0.1000000000D+01
 Atom H9       Shell    88 S   1     bf  244 -   244         -5.441595243112         -0.263314653389         -0.175512159493
      0.1030724100D+00  0.1000000000D+01
 Atom H9       Shell    89 P   1     bf  245 -   247         -5.441595243112         -0.263314653389         -0.175512159493
      0.8000000000D+00  0.1000000000D+01
 Atom O10      Shell    90 S   6     bf  248 -   248         -0.785848140994         -3.932990475243         -0.651747046052
      0.2703238263D+05  0.5722733521D-03
      0.4052387139D+04  0.4435323349D-02
      0.9223272271D+03  0.2302010771D-01
      0.2612407099D+03  0.9282249067D-01
      0.8535464135D+02  0.2937850001D+00
      0.3103503524D+02  0.6740160450D+00
 Atom O10      Shell    91 S   2     bf  249 -   249         -0.785848140994         -3.932990475243         -0.651747046052
      0.1226086073D+02  0.6383993703D+00
      0.4998707601D+01  0.3953458713D+00
 Atom O10      Shell    92 S   1     bf  250 -   250         -0.785848140994         -3.932990475243         -0.651747046052
      0.1170310816D+01  0.1000000000D+01
 Atom O10      Shell    93 S   1     bf  251 -   251         -0.785848140994         -3.932990475243         -0.651747046052
      0.4647474099D+00  0.1000000000D+01
 Atom O10      Shell    94 S   1     bf  252 -   252         -0.785848140994         -3.932990475243         -0.651747046052
      0.1850453636D+00  0.1000000000D+01
 Atom O10      Shell    95 P   4     bf  253 -   255         -0.785848140994         -3.932990475243         -0.651747046052
      0.6327495480D+02  0.1201833222D-01
      0.1462704938D+02  0.8300542179D-01
      0.4450122346D+01  0.3199174393D+00
      0.1527579965D+01  0.7071554292D+00
 Atom O10      Shell    96 P   1     bf  256 -   258         -0.785848140994         -3.932990475243         -0.651747046052
      0.5293511794D+00  0.1000000000D+01
 Atom O10      Shell    97 P   1     bf  259 -   261         -0.785848140994         -3.932990475243         -0.651747046052
      0.1747842127D+00  0.1000000000D+01
 Atom O10      Shell    98 D   1     bf  262 -   266         -0.785848140994         -3.932990475243         -0.651747046052
      0.2314000000D+01  0.1000000000D+01
 Atom O10      Shell    99 D   1     bf  267 -   271         -0.785848140994         -3.932990475243         -0.651747046052
      0.6450000000D+00  0.1000000000D+01
 Atom O10      Shell   100 F   1     bf  272 -   278         -0.785848140994         -3.932990475243         -0.651747046052
      0.1428000000D+01  0.1000000000D+01
 Atom H11      Shell   101 S   3     bf  279 -   279          0.210997320647         -5.453093039653         -0.511399625575
      0.3406134100D+02  0.2543930721D-01
      0.5123574600D+01  0.1900859489D+00
      0.1164662600D+01  0.8524411301D+00
 Atom H11      Shell   102 S   1     bf  280 -   280          0.210997320647         -5.453093039653         -0.511399625575
      0.3272304100D+00  0.1000000000D+01
 Atom H11      Shell   103 S   1     bf  281 -   281          0.210997320647         -5.453093039653         -0.511399625575
      0.1030724100D+00  0.1000000000D+01
 Atom H11      Shell   104 P   1     bf  282 -   284          0.210997320647         -5.453093039653         -0.511399625575
      0.8000000000D+00  0.1000000000D+01
 Effective core potential in the form of general ECP input:
      1 0
 Pa1-ECP   5 60
 H component
  1
  2        1.0000000        0.00000000    0.00000000
 S-H projection
  1
  2       15.2691737      475.47573283    0.00000000
 P-H projection
  1
  2        9.9577370      207.66485962    0.00000000
 D-H projection
  1
  2        8.9431413      156.67411988    0.00000000
 F-H projection
  1
  2        7.0104666       67.98223685    0.00000000
 G-H projection
  1
  2       12.2010560      -57.63059989    0.00000000
 
 There are   332 symmetry adapted cartesian basis functions of A   symmetry.
 There are   284 symmetry adapted basis functions of A   symmetry.
   284 basis functions,   503 primitive gaussians,   332 cartesian basis functions
    38 alpha electrons       38 beta electrons
       nuclear repulsion energy       485.2761007580 Hartrees.
 IExCor=  404 DFT=T Ex=B Corr=P86 ExCW=0 ScaHFX=  0.000000
 ScaDFX=  1.000000  1.000000  1.000000  1.000000 ScalE2=  1.000000  1.000000
 IRadAn=      5 IRanWt=     -1 IRanGd=            0 ICorTp=0 IEmpDi=  4
 NAtoms=   11 NActive=   11 NUniq=   11 SFac= 1.00D+00 NAtFMM=   60 NAOKFM=F Big=F
 Integral buffers will be    131072 words long.
 Raffenetti 2 integral format.
 Two-electron integral symmetry is turned on.
 Warning! Using old PCM defaults because the COSMOthermo output has been requested.
 These settings can be overridden by following keywords.
 ------------------------------------------------------------------------------
 Polarizable Continuum Model (PCM)
 =================================
 Model                : C-PCM.
 Atomic radii         : Klamt.
 XCosmo               : -1.000 (infinite dielectric limit)
 Polarization charges : Electronic and nuclear charges.
 Charge compensation  : Type 3 (Electronic density weighted correction).
 Solution method      : On-the-fly selection.
 Cavity type          : VdW (van der Waals Surface) (Alpha=1.000).
 Cavity algorithm     : GePol (No added spheres)
                        Default sphere list used, NSphG=   11.
                        Tesserae with average area of 0.200 Ang**2.
                        Smoothing algorithm: None.
                        Polarization charges: point-like.
                        Self-potential: constant (ISelfS= 1).
                        Self-field    : global E.n sum rule (ISelfD= 3).
 Solvent              : Water, Eps=  78.355300 Eps(inf)=   1.777849
 ------------------------------------------------------------------------------
 Spheres list:
 ISph  on   Nord     Re0    Alpha      Xe            Ye            Ze
    1  Pa      1    2.0000  1.170     -0.007522      0.000060     -0.095904
    2   O      2    1.7200  1.000      2.073963     -0.402412     -0.304994
    3   H      3    1.3000  1.000      2.855463      0.164167     -0.304125
    4   O      4    1.7200  1.000      0.034165     -0.008779      2.038820
    5   H      5    1.3000  1.000      0.745630     -0.120104      2.679054
    6   O      6    1.7200  1.000      0.401458      2.082037     -0.339001
    7   H      7    1.3000  1.000     -0.114068      2.893805     -0.262041
    8   O      8    1.7200  1.000     -2.098058      0.420614     -0.177698
    9   H      9    1.3000  1.000     -2.879568     -0.139340     -0.092877
   10   O     10    1.7200  1.000     -0.415853     -2.081249     -0.344890
   11   H     11    1.3000  1.000      0.111655     -2.885653     -0.270621
 ------------------------------------------------------------------------------
 GePol: Number of generator spheres                  =      11
 GePol: Total number of spheres                      =      11
 GePol: Number of exposed spheres                    =      11 (100.00%)
 GePol: Number of tesserae                           =    1013
 GePol: Average area of tesserae                     =       0.15 Ang**2
 GePol: Minimum area of tessera                      =   0.10D-02 Ang**2
 GePol: Maximum area of tessera                      =    0.35817 Ang**2
 GePol: Number of small tesserae                     =      10
 GePol: Fraction of small tesserae (<1% of avg)      =       0.99%
 GePol: Total count of vertices                      =    3366
 GePol: Maximum number of vertices in a tessera      =       6
 GePol: Cavity surface area                          =    151.884 Ang**2
 GePol: Cavity volume                                =    123.391 Ang**3
 DisRep: Neglecting contributions from atom    1 of solute.
 Leave Link  301 at Thu Jun 22 10:35:53 2023, MaxMem=  2147483648 cpu:               1.2 elap:               0.2
 (Enter /home/pcmt/gaussian/g16.C.01/g16/l302.exe)
 NPDir=0 NMtPBC=     1 NCelOv=     1 NCel=       1 NClECP=     1 NCelD=      1
         NCelK=      1 NCelE2=     1 NClLst=     1 CellRange=     0.0.
 One-electron integrals computed using PRISM.
 One-electron integral symmetry used in STVInt
   1 Symmetry operations used in ECPInt.
 ECPInt:  NShTT=    5460 NPrTT=   15742 LenC2=    5289 LenP2D=   11912.
 LDataN:  DoStor=T MaxTD1= 9 Len=  602
 NBasis=   284 RedAO= T EigKep=  6.96D-04  NBF=   284
 NBsUse=   284 1.00D-06 EigRej= -1.00D+00 NBFU=   284
 Precomputing XC quadrature grid using
 IXCGrd= 4 IRadAn=           5 IRanWt=          -1 IRanGd=           0 AccXCQ= 0.00D+00.
 Defaulting to unpruned grid for atomic number  91.
 Generated NRdTot=       0 NPtTot=           0 NUsed=           0 NTot=          32
 NSgBfM=   328   328   328   328   328 MxSgAt=    11 MxSgA2=    11.
 Leave Link  302 at Thu Jun 22 10:35:54 2023, MaxMem=  2147483648 cpu:               6.0 elap:               0.8
 (Enter /home/pcmt/gaussian/g16.C.01/g16/l303.exe)
 DipDrv:  MaxL=1.
 Leave Link  303 at Thu Jun 22 10:35:54 2023, MaxMem=  2147483648 cpu:               0.4 elap:               0.1
 (Enter /home/pcmt/gaussian/g16.C.01/g16/l401.exe)
 ExpMin= 2.32D-02 ExpMax= 2.70D+04 ExpMxC= 1.20D+04 IAcc=3 IRadAn=         5 AccDes= 0.00D+00
 Harris functional with IExCor=  404 and IRadAn=       5 diagonalized for initial guess.
 HarFok:  IExCor=  404 AccDes= 0.00D+00 IRadAn=         5 IDoV= 1 UseB2=F ITyADJ=14
 ICtDFT=  3500011 ScaDFX=  1.000000  1.000000  1.000000  1.000000
 Defaulting to unpruned grid for atomic number  91.
 FoFCou: FMM=F IPFlag=           0 FMFlag=      100000 FMFlg1=           0
         NFxFlg=           0 DoJE=T BraDBF=F KetDBF=T FulRan=T
         wScrn=  0.000000 ICntrl=       500 IOpCl=  0 I1Cent=   200000004 NGrid=           0
         NMat0=    1 NMatS0=      1 NMatT0=    0 NMatD0=    1 NMtDS0=    0 NMtDT0=    0
 Petite list used in FoFCou.
 Harris En= -822.714034315135    
 JPrj=0 DoOrth=F DoCkMO=F.
 Leave Link  401 at Thu Jun 22 10:35:56 2023, MaxMem=  2147483648 cpu:              14.6 elap:               1.9
 (Enter /home/pcmt/gaussian/g16.C.01/g16/l502.exe)
 Keep J ints in memory in canonical form, NReq=837395291.
 FoFCou: FMM=F IPFlag=           0 FMFlag=           0 FMFlg1=           0
         NFxFlg=           0 DoJE=F BraDBF=F KetDBF=F FulRan=T
         wScrn=  0.000000 ICntrl=       600 IOpCl=  0 I1Cent=           0 NGrid=           0
         NMat0=    1 NMatS0=  40470 NMatT0=    0 NMatD0=    1 NMtDS0=    0 NMtDT0=    0
 Symmetry not used in FoFCou.
 Two-electron integral symmetry not used.
 Closed shell SCF:
 Using DIIS extrapolation, IDIIS=  1040.
 NGot=  2147483648 LenX=  1328326697 LenY=  1328216032
 Requested convergence on RMS density matrix=1.00D-08 within 100 cycles.
 Requested convergence on MAX density matrix=1.00D-06.
 Requested convergence on             energy=1.00D-06.
 No special actions if energy rises.

 Cycle   1  Pass 1  IDiag  1:
 Defaulting to unpruned grid for atomic number  91.
 Defaulting to unpruned grid for atomic number  91.
 Defaulting to unpruned grid for atomic number  91.
 Defaulting to unpruned grid for atomic number  91.
 Defaulting to unpruned grid for atomic number  91.
 Defaulting to unpruned grid for atomic number  91.
 Defaulting to unpruned grid for atomic number  91.
 Defaulting to unpruned grid for atomic number  91.
 Inv3:  Mode=1 IEnd=     3078507.
 Iteration    1 A*A^-1 deviation from unit magnitude is 5.11D-15 for    988.
 Iteration    1 A*A^-1 deviation from orthogonality  is 2.19D-15 for   1000    499.
 Iteration    1 A^-1*A deviation from unit magnitude is 5.11D-15 for    988.
 Iteration    1 A^-1*A deviation from orthogonality  is 2.22D-15 for   1013    992.
 E= -820.164762064974    
 DIIS: error= 5.36D-02 at cycle   1 NSaved=   1.
 NSaved= 1 IEnMin= 1 EnMin= -820.164762064974     IErMin= 1 ErrMin= 5.36D-02
 ErrMax= 5.36D-02  0.00D+00 EMaxC= 1.00D-01 BMatC= 1.56D+00 BMatP= 1.56D+00
 IDIUse=3 WtCom= 4.64D-01 WtEn= 5.36D-01
 Coeff-Com:  0.100D+01
 Coeff-En:   0.100D+01
 Coeff:      0.100D+01
 Gap=     0.061 Goal=   None    Shift=    0.000
 GapD=    0.061 DampG=0.500 DampE=0.250 DampFc=0.1250 IDamp=-1.
 Damping current iteration by 1.25D-01
 RMSDP=1.42D-02 MaxDP=1.36D+00              OVMax= 9.98D-01

 Cycle   2  Pass 1  IDiag  1:
 E= -820.241824351691     Delta-E=       -0.077062286718 Rises=F Damp=T
 DIIS: error= 2.06D-02 at cycle   2 NSaved=   2.
 NSaved= 2 IEnMin= 2 EnMin= -820.241824351691     IErMin= 2 ErrMin= 2.06D-02
 ErrMax= 2.06D-02  0.00D+00 EMaxC= 1.00D-01 BMatC= 2.07D-01 BMatP= 1.56D+00
 IDIUse=3 WtCom= 7.94D-01 WtEn= 2.06D-01
 Coeff-Com: -0.655D-01 0.107D+01
 Coeff-En:   0.466D+00 0.534D+00
 Coeff:      0.443D-01 0.956D+00
 Gap=     0.076 Goal=   None    Shift=    0.000
 RMSDP=4.67D-03 MaxDP=1.27D-01 DE=-7.71D-02 OVMax= 9.75D-01

 Cycle   3  Pass 1  IDiag  1:
 E= -820.510194031061     Delta-E=       -0.268369679369 Rises=F Damp=F
 DIIS: error= 4.74D-02 at cycle   3 NSaved=   3.
 NSaved= 3 IEnMin= 3 EnMin= -820.510194031061     IErMin= 2 ErrMin= 2.06D-02
 ErrMax= 4.74D-02  0.00D+00 EMaxC= 1.00D-01 BMatC= 8.77D-01 BMatP= 2.07D-01
 IDIUse=2 WtCom= 0.00D+00 WtEn= 1.00D+00
 EnCoef did     2 forward-backward iterations
 Coeff-En:   0.128D+00 0.340D+00 0.532D+00
 Coeff:      0.128D+00 0.340D+00 0.532D+00
 Gap=     0.279 Goal=   None    Shift=    0.000
 RMSDP=9.18D-03 MaxDP=5.46D-01 DE=-2.68D-01 OVMax= 8.98D-01

 Cycle   4  Pass 1  IDiag  1:
 E= -795.702316051490     Delta-E=       24.807877979571 Rises=F Damp=F
 DIIS: error= 5.70D-01 at cycle   4 NSaved=   4.
 NSaved= 4 IEnMin= 3 EnMin= -820.510194031061     IErMin= 2 ErrMin= 2.06D-02
 ErrMax= 5.70D-01  0.00D+00 EMaxC= 1.00D-01 BMatC= 5.23D+01 BMatP= 2.07D-01
 IDIUse=2 WtCom= 0.00D+00 WtEn= 1.00D+00
 EnCoef did   100 forward-backward iterations
 Coeff-En:   0.403D+00 0.122D-01 0.500D+00 0.849D-01
 Coeff:      0.403D+00 0.122D-01 0.500D+00 0.849D-01
 Gap=    -0.012 Goal=   None    Shift=    0.000
 RMSDP=4.91D-03 MaxDP=2.85D-01 DE= 2.48D+01 OVMax= 9.26D-01

 Cycle   5  Pass 1  IDiag  1:
 E= -820.170253452382     Delta-E=      -24.467937400892 Rises=F Damp=F
 DIIS: error= 1.26D-01 at cycle   5 NSaved=   5.
 NSaved= 5 IEnMin= 3 EnMin= -820.510194031061     IErMin= 2 ErrMin= 2.06D-02
 ErrMax= 1.26D-01  0.00D+00 EMaxC= 1.00D-01 BMatC= 1.88D+00 BMatP= 2.07D-01
 IDIUse=2 WtCom= 0.00D+00 WtEn= 1.00D+00
 EnCoef did     3 forward-backward iterations
 Coeff-En:   0.283D+00 0.000D+00 0.302D+00 0.000D+00 0.416D+00
 Coeff:      0.283D+00 0.000D+00 0.302D+00 0.000D+00 0.416D+00
 Gap=     0.174 Goal=   None    Shift=    0.000
 RMSDP=2.55D-03 MaxDP=1.68D-01 DE=-2.45D+01 OVMax= 2.82D-01

 Cycle   6  Pass 1  IDiag  1:
 E= -821.196683139794     Delta-E=       -1.026429687412 Rises=F Damp=F
 DIIS: error= 1.65D-02 at cycle   6 NSaved=   6.
 NSaved= 6 IEnMin= 6 EnMin= -821.196683139794     IErMin= 6 ErrMin= 1.65D-02
 ErrMax= 1.65D-02  0.00D+00 EMaxC= 1.00D-01 BMatC= 5.82D-02 BMatP= 2.07D-01
 IDIUse=3 WtCom= 8.35D-01 WtEn= 1.65D-01
 Coeff-Com: -0.113D+00 0.205D+00 0.857D-01-0.966D-02 0.111D+00 0.721D+00
 Coeff-En:   0.000D+00 0.000D+00 0.000D+00 0.000D+00 0.117D+00 0.883D+00
 Coeff:     -0.944D-01 0.171D+00 0.715D-01-0.806D-02 0.112D+00 0.748D+00
 Gap=     0.155 Goal=   None    Shift=    0.000
 RMSDP=4.36D-04 MaxDP=2.40D-02 DE=-1.03D+00 OVMax= 5.45D-02

 Cycle   7  Pass 1  IDiag  1:
 E= -821.238295204505     Delta-E=       -0.041612064711 Rises=F Damp=F
 DIIS: error= 4.62D-03 at cycle   7 NSaved=   7.
 NSaved= 7 IEnMin= 7 EnMin= -821.238295204505     IErMin= 7 ErrMin= 4.62D-03
 ErrMax= 4.62D-03  0.00D+00 EMaxC= 1.00D-01 BMatC= 1.30D-02 BMatP= 5.82D-02
 IDIUse=3 WtCom= 9.54D-01 WtEn= 4.62D-02
 Coeff-Com: -0.751D-01 0.870D-01 0.129D-01-0.387D-02 0.699D-01 0.487D+00
 Coeff-Com:  0.422D+00
 Coeff-En:   0.000D+00 0.000D+00 0.000D+00 0.000D+00 0.000D+00 0.000D+00
 Coeff-En:   0.100D+01
 Coeff:     -0.716D-01 0.830D-01 0.123D-01-0.369D-02 0.667D-01 0.465D+00
 Coeff:      0.448D+00
 Gap=     0.154 Goal=   None    Shift=    0.000
 RMSDP=3.19D-04 MaxDP=1.92D-02 DE=-4.16D-02 OVMax= 2.46D-02

 Cycle   8  Pass 1  IDiag  1:
 E= -821.246512959968     Delta-E=       -0.008217755463 Rises=F Damp=F
 DIIS: error= 2.08D-03 at cycle   8 NSaved=   8.
 NSaved= 8 IEnMin= 8 EnMin= -821.246512959968     IErMin= 8 ErrMin= 2.08D-03
 ErrMax= 2.08D-03  0.00D+00 EMaxC= 1.00D-01 BMatC= 2.81D-03 BMatP= 1.30D-02
 IDIUse=3 WtCom= 9.79D-01 WtEn= 2.08D-02
 Coeff-Com: -0.949D-02-0.120D-01-0.297D-01 0.568D-03 0.180D-01 0.392D-01
 Coeff-Com:  0.355D+00 0.639D+00
 Coeff-En:   0.000D+00 0.000D+00 0.000D+00 0.000D+00 0.000D+00 0.000D+00
 Coeff-En:   0.000D+00 0.100D+01
 Coeff:     -0.930D-02-0.117D-01-0.291D-01 0.556D-03 0.176D-01 0.384D-01
 Coeff:      0.347D+00 0.646D+00
 Gap=     0.135 Goal=   None    Shift=    0.000
 RMSDP=3.11D-04 MaxDP=2.33D-02 DE=-8.22D-03 OVMax= 2.38D-02

 Cycle   9  Pass 1  IDiag  1:
 E= -821.249108123352     Delta-E=       -0.002595163384 Rises=F Damp=F
 DIIS: error= 2.55D-03 at cycle   9 NSaved=   9.
 NSaved= 9 IEnMin= 9 EnMin= -821.249108123352     IErMin= 8 ErrMin= 2.08D-03
 ErrMax= 2.55D-03  0.00D+00 EMaxC= 1.00D-01 BMatC= 2.42D-03 BMatP= 2.81D-03
 IDIUse=3 WtCom= 9.79D-01 WtEn= 2.08D-02
 Coeff-Com:  0.367D-01-0.319D-01-0.116D-01 0.159D-02-0.240D-01-0.192D+00
 Coeff-Com:  0.762D-01 0.444D+00 0.701D+00
 Coeff-En:   0.000D+00 0.000D+00 0.000D+00 0.000D+00 0.000D+00 0.000D+00
 Coeff-En:   0.000D+00 0.786D-01 0.921D+00
 Coeff:      0.359D-01-0.312D-01-0.114D-01 0.156D-02-0.235D-01-0.188D+00
 Coeff:      0.746D-01 0.437D+00 0.705D+00
 Gap=     0.135 Goal=   None    Shift=    0.000
 RMSDP=2.96D-04 MaxDP=1.85D-02 DE=-2.60D-03 OVMax= 3.47D-02

 Cycle  10  Pass 1  IDiag  1:
 E= -821.248488848457     Delta-E=        0.000619274895 Rises=F Damp=F
 DIIS: error= 4.05D-03 at cycle  10 NSaved=  10.
 NSaved=10 IEnMin= 9 EnMin= -821.249108123352     IErMin= 8 ErrMin= 2.08D-03
 ErrMax= 4.05D-03  0.00D+00 EMaxC= 1.00D-01 BMatC= 6.12D-03 BMatP= 2.42D-03
 IDIUse=3 WtCom= 9.79D-01 WtEn= 2.08D-02
 EnCoef did     3 forward-backward iterations
 Coeff-Com:  0.280D-01-0.151D-01-0.745D-02 0.112D-02-0.173D-01-0.152D+00
 Coeff-Com:  0.141D+00 0.458D+00 0.293D+00 0.271D+00
 Coeff-En:   0.000D+00 0.000D+00 0.000D+00 0.000D+00 0.000D+00 0.000D+00
 Coeff-En:   0.000D+00 0.105D+00 0.629D+00 0.266D+00
 Coeff:      0.275D-01-0.148D-01-0.730D-02 0.110D-02-0.170D-01-0.149D+00
 Coeff:      0.138D+00 0.450D+00 0.300D+00 0.271D+00
 Gap=     0.152 Goal=   None    Shift=    0.000
 RMSDP=2.01D-04 MaxDP=1.56D-02 DE= 6.19D-04 OVMax= 2.39D-02

 Cycle  11  Pass 1  IDiag  1:
 E= -821.250665383264     Delta-E=       -0.002176534807 Rises=F Damp=F
 DIIS: error= 1.42D-03 at cycle  11 NSaved=  11.
 NSaved=11 IEnMin=11 EnMin= -821.250665383264     IErMin=11 ErrMin= 1.42D-03
 ErrMax= 1.42D-03  0.00D+00 EMaxC= 1.00D-01 BMatC= 7.43D-04 BMatP= 2.42D-03
 IDIUse=3 WtCom= 9.86D-01 WtEn= 1.42D-02
 Coeff-Com:  0.245D-02 0.978D-03 0.318D-02-0.276D-04-0.279D-02-0.124D-01
 Coeff-Com:  0.328D-01-0.257D-01-0.943D+00 0.113D-02 0.194D+01
 Coeff-En:   0.000D+00 0.000D+00 0.000D+00 0.000D+00 0.000D+00 0.000D+00
 Coeff-En:   0.000D+00 0.000D+00 0.000D+00 0.000D+00 0.100D+01
 Coeff:      0.241D-02 0.964D-03 0.314D-02-0.272D-04-0.276D-02-0.122D-01
 Coeff:      0.323D-01-0.253D-01-0.930D+00 0.111D-02 0.193D+01
 Gap=     0.143 Goal=   None    Shift=    0.000
 RMSDP=1.71D-04 MaxDP=1.05D-02 DE=-2.18D-03 OVMax= 2.16D-02

 Cycle  12  Pass 1  IDiag  1:
 E= -821.250974479181     Delta-E=       -0.000309095917 Rises=F Damp=F
 DIIS: error= 9.08D-04 at cycle  12 NSaved=  12.
 NSaved=12 IEnMin=12 EnMin= -821.250974479181     IErMin=12 ErrMin= 9.08D-04
 ErrMax= 9.08D-04  0.00D+00 EMaxC= 1.00D-01 BMatC= 1.89D-04 BMatP= 7.43D-04
 IDIUse=3 WtCom= 9.91D-01 WtEn= 9.08D-03
 Coeff-Com: -0.581D-03 0.173D-02 0.487D-03-0.660D-04 0.874D-03-0.269D-02
 Coeff-Com:  0.329D-01 0.582D-02-0.574D+00-0.110D+00 0.128D+01 0.363D+00
 Coeff-En:   0.000D+00 0.000D+00 0.000D+00 0.000D+00 0.000D+00 0.000D+00
 Coeff-En:   0.000D+00 0.000D+00 0.000D+00 0.000D+00 0.206D+00 0.794D+00
 Coeff:     -0.575D-03 0.172D-02 0.483D-03-0.654D-04 0.866D-03-0.267D-02
 Coeff:      0.326D-01 0.576D-02-0.568D+00-0.109D+00 0.127D+01 0.367D+00
 Gap=     0.138 Goal=   None    Shift=    0.000
 RMSDP=6.84D-05 MaxDP=3.93D-03 DE=-3.09D-04 OVMax= 8.66D-03

 Cycle  13  Pass 1  IDiag  1:
 E= -821.251215324359     Delta-E=       -0.000240845178 Rises=F Damp=F
 DIIS: error= 1.43D-04 at cycle  13 NSaved=  13.
 NSaved=13 IEnMin=13 EnMin= -821.251215324359     IErMin=13 ErrMin= 1.43D-04
 ErrMax= 1.43D-04  0.00D+00 EMaxC= 1.00D-01 BMatC= 7.33D-06 BMatP= 1.89D-04
 IDIUse=3 WtCom= 9.99D-01 WtEn= 1.43D-03
 Coeff-Com: -0.499D-03 0.126D-02-0.358D-04-0.506D-04 0.930D-03-0.278D-02
 Coeff-Com:  0.197D-01 0.838D-02-0.311D+00-0.745D-01 0.731D+00 0.232D+00
 Coeff-Com:  0.395D+00
 Coeff-En:   0.000D+00 0.000D+00 0.000D+00 0.000D+00 0.000D+00 0.000D+00
 Coeff-En:   0.000D+00 0.000D+00 0.000D+00 0.000D+00 0.000D+00 0.000D+00
 Coeff-En:   0.100D+01
 Coeff:     -0.498D-03 0.126D-02-0.358D-04-0.506D-04 0.929D-03-0.278D-02
 Coeff:      0.197D-01 0.837D-02-0.310D+00-0.744D-01 0.730D+00 0.232D+00
 Coeff:      0.396D+00
 Gap=     0.137 Goal=   None    Shift=    0.000
 RMSDP=8.82D-06 MaxDP=5.17D-04 DE=-2.41D-04 OVMax= 1.11D-03

 Cycle  14  Pass 1  IDiag  1:
 E= -821.251220483740     Delta-E=       -0.000005159381 Rises=F Damp=F
 DIIS: error= 1.39D-04 at cycle  14 NSaved=  14.
 NSaved=14 IEnMin=14 EnMin= -821.251220483740     IErMin=14 ErrMin= 1.39D-04
 ErrMax= 1.39D-04  0.00D+00 EMaxC= 1.00D-01 BMatC= 4.26D-06 BMatP= 7.33D-06
 IDIUse=3 WtCom= 9.99D-01 WtEn= 1.39D-03
 Coeff-Com:  0.111D-03 0.324D-03-0.110D-03-0.128D-04 0.221D-03-0.368D-02
 Coeff-Com:  0.126D-02 0.193D-02-0.449D-01-0.129D-01 0.147D+00 0.443D-01
 Coeff-Com:  0.256D+00 0.611D+00
 Coeff-En:   0.000D+00 0.000D+00 0.000D+00 0.000D+00 0.000D+00 0.000D+00
 Coeff-En:   0.000D+00 0.000D+00 0.000D+00 0.000D+00 0.000D+00 0.000D+00
 Coeff-En:   0.000D+00 0.100D+01
 Coeff:      0.111D-03 0.323D-03-0.110D-03-0.128D-04 0.220D-03-0.368D-02
 Coeff:      0.126D-02 0.192D-02-0.448D-01-0.129D-01 0.146D+00 0.442D-01
 Coeff:      0.255D+00 0.612D+00
 Gap=     0.137 Goal=   None    Shift=    0.000
 RMSDP=5.05D-06 MaxDP=4.40D-04 DE=-5.16D-06 OVMax= 3.71D-04

 Cycle  15  Pass 1  IDiag  1:
 E= -821.251223313493     Delta-E=       -0.000002829753 Rises=F Damp=F
 DIIS: error= 2.19D-05 at cycle  15 NSaved=  15.
 NSaved=15 IEnMin=15 EnMin= -821.251223313493     IErMin=15 ErrMin= 2.19D-05
 ErrMax= 2.19D-05  0.00D+00 EMaxC= 1.00D-01 BMatC= 1.37D-07 BMatP= 4.26D-06
 IDIUse=1 WtCom= 1.00D+00 WtEn= 0.00D+00
 Coeff-Com:  0.397D-04 0.627D-04-0.549D-05-0.179D-05 0.211D-04-0.882D-03
 Coeff-Com: -0.170D-03 0.114D-02 0.133D-02-0.358D-02 0.957D-02-0.974D-02
 Coeff-Com: -0.485D-01 0.990D-02 0.104D+01
 Coeff:      0.397D-04 0.627D-04-0.549D-05-0.179D-05 0.211D-04-0.882D-03
 Coeff:     -0.170D-03 0.114D-02 0.133D-02-0.358D-02 0.957D-02-0.974D-02
 Coeff:     -0.485D-01 0.990D-02 0.104D+01
 Gap=     0.137 Goal=   None    Shift=    0.000
 RMSDP=2.67D-06 MaxDP=1.55D-04 DE=-2.83D-06 OVMax= 3.41D-04

 Cycle  16  Pass 1  IDiag  1:
 E= -821.251223643090     Delta-E=       -0.000000329597 Rises=F Damp=F
 DIIS: error= 7.80D-06 at cycle  16 NSaved=  16.
 NSaved=16 IEnMin=16 EnMin= -821.251223643090     IErMin=16 ErrMin= 7.80D-06
 ErrMax= 7.80D-06  0.00D+00 EMaxC= 1.00D-01 BMatC= 1.50D-08 BMatP= 1.37D-07
 IDIUse=1 WtCom= 1.00D+00 WtEn= 0.00D+00
 Coeff-Com:  0.781D-05 0.113D-04 0.695D-05-0.336D-06-0.173D-05-0.169D-03
 Coeff-Com: -0.117D-03 0.245D-03 0.189D-02 0.265D-03-0.333D-02-0.666D-02
 Coeff-Com: -0.370D-01-0.388D-01 0.372D+00 0.712D+00
 Coeff:      0.781D-05 0.113D-04 0.695D-05-0.336D-06-0.173D-05-0.169D-03
 Coeff:     -0.117D-03 0.245D-03 0.189D-02 0.265D-03-0.333D-02-0.666D-02
 Coeff:     -0.370D-01-0.388D-01 0.372D+00 0.712D+00
 Gap=     0.137 Goal=   None    Shift=    0.000
 RMSDP=2.57D-07 MaxDP=2.10D-05 DE=-3.30D-07 OVMax= 1.92D-05

 Cycle  17  Pass 1  IDiag  1:
 E= -821.251223671514     Delta-E=       -0.000000028424 Rises=F Damp=F
 DIIS: error= 1.52D-06 at cycle  17 NSaved=  17.
 NSaved=17 IEnMin=17 EnMin= -821.251223671514     IErMin=17 ErrMin= 1.52D-06
 ErrMax= 1.52D-06  0.00D+00 EMaxC= 1.00D-01 BMatC= 9.85D-10 BMatP= 1.50D-08
 IDIUse=1 WtCom= 1.00D+00 WtEn= 0.00D+00
 Coeff-Com: -0.321D-06 0.398D-05 0.454D-05-0.836D-07-0.967D-06-0.357D-04
 Coeff-Com: -0.531D-04 0.101D-03 0.135D-02 0.577D-03-0.368D-02-0.419D-02
 Coeff-Com: -0.244D-01-0.323D-01 0.189D+00 0.508D+00 0.366D+00
 Coeff:     -0.321D-06 0.398D-05 0.454D-05-0.836D-07-0.967D-06-0.357D-04
 Coeff:     -0.531D-04 0.101D-03 0.135D-02 0.577D-03-0.368D-02-0.419D-02
 Coeff:     -0.244D-01-0.323D-01 0.189D+00 0.508D+00 0.366D+00
 Gap=     0.137 Goal=   None    Shift=    0.000
 RMSDP=6.55D-08 MaxDP=4.09D-06 DE=-2.84D-08 OVMax= 7.12D-06

 Cycle  18  Pass 1  IDiag  1:
 E= -821.251223675086     Delta-E=       -0.000000003572 Rises=F Damp=F
 DIIS: error= 6.22D-07 at cycle  18 NSaved=  18.
 NSaved=18 IEnMin=18 EnMin= -821.251223675086     IErMin=18 ErrMin= 6.22D-07
 ErrMax= 6.22D-07  0.00D+00 EMaxC= 1.00D-01 BMatC= 2.11D-10 BMatP= 9.85D-10
 IDIUse=1 WtCom= 1.00D+00 WtEn= 0.00D+00
 Coeff-Com: -0.494D-06 0.104D-05 0.182D-05-0.252D-07-0.478D-06-0.104D-04
 Coeff-Com: -0.250D-04 0.231D-04 0.591D-03 0.408D-03-0.185D-02-0.174D-02
 Coeff-Com: -0.103D-01-0.148D-01 0.711D-01 0.230D+00 0.251D+00 0.476D+00
 Coeff:     -0.494D-06 0.104D-05 0.182D-05-0.252D-07-0.478D-06-0.104D-04
 Coeff:     -0.250D-04 0.231D-04 0.591D-03 0.408D-03-0.185D-02-0.174D-02
 Coeff:     -0.103D-01-0.148D-01 0.711D-01 0.230D+00 0.251D+00 0.476D+00
 Gap=     0.137 Goal=   None    Shift=    0.000
 RMSDP=4.20D-08 MaxDP=2.78D-06 DE=-3.57D-09 OVMax= 4.69D-06

 Cycle  19  Pass 1  IDiag  1:
 E= -821.251223676605     Delta-E=       -0.000000001519 Rises=F Damp=F
 DIIS: error= 1.36D-07 at cycle  19 NSaved=  19.
 NSaved=19 IEnMin=19 EnMin= -821.251223676605     IErMin=19 ErrMin= 1.36D-07
 ErrMax= 1.36D-07  0.00D+00 EMaxC= 1.00D-01 BMatC= 7.13D-12 BMatP= 2.11D-10
 IDIUse=1 WtCom= 1.00D+00 WtEn= 0.00D+00
 Coeff-Com: -0.103D-06 0.865D-08 0.134D-06-0.193D-08-0.539D-07-0.155D-05
 Coeff-Com: -0.601D-05-0.212D-05 0.106D-03 0.122D-03-0.384D-03-0.220D-03
 Coeff-Com: -0.147D-02-0.250D-02 0.753D-02 0.365D-01 0.688D-01 0.211D+00
 Coeff-Com:  0.681D+00
 Coeff:     -0.103D-06 0.865D-08 0.134D-06-0.193D-08-0.539D-07-0.155D-05
 Coeff:     -0.601D-05-0.212D-05 0.106D-03 0.122D-03-0.384D-03-0.220D-03
 Coeff:     -0.147D-02-0.250D-02 0.753D-02 0.365D-01 0.688D-01 0.211D+00
 Coeff:      0.681D+00
 Gap=     0.137 Goal=   None    Shift=    0.000
 RMSDP=1.10D-08 MaxDP=8.26D-07 DE=-1.52D-09 OVMax= 1.12D-06

 Cycle  20  Pass 1  IDiag  1:
 E= -821.251223677036     Delta-E=       -0.000000000431 Rises=F Damp=F
 DIIS: error= 4.42D-08 at cycle  20 NSaved=  20.
 NSaved=20 IEnMin=20 EnMin= -821.251223677036     IErMin=20 ErrMin= 4.42D-08
 ErrMax= 4.42D-08  0.00D+00 EMaxC= 1.00D-01 BMatC= 6.35D-13 BMatP= 7.13D-12
 IDIUse=1 WtCom= 1.00D+00 WtEn= 0.00D+00
 Coeff-Com: -0.583D-08-0.108D-07-0.629D-08 0.354D-09-0.238D-07-0.113D-06
 Coeff-Com: -0.129D-05-0.516D-06 0.210D-04 0.221D-04-0.733D-04-0.224D-04
 Coeff-Com: -0.206D-03-0.416D-03 0.181D-03 0.542D-02 0.153D-01 0.602D-01
 Coeff-Com:  0.255D+00 0.665D+00
 Coeff:     -0.583D-08-0.108D-07-0.629D-08 0.354D-09-0.238D-07-0.113D-06
 Coeff:     -0.129D-05-0.516D-06 0.210D-04 0.221D-04-0.733D-04-0.224D-04
 Coeff:     -0.206D-03-0.416D-03 0.181D-03 0.542D-02 0.153D-01 0.602D-01
 Coeff:      0.255D+00 0.665D+00
 Gap=     0.137 Goal=   None    Shift=    0.000
 RMSDP=3.23D-09 MaxDP=1.86D-07 DE=-4.31D-10 OVMax= 4.11D-07

 Error on nuclear    polarization charges =  0.00959
 Error on electronic polarization charges = -0.03909
 SCF Done:  E(RB-P86) =  -821.251223677     A.U. after   20 cycles
            NFock= 20  Conv=0.32D-08     -V/T= 2.5126
 KE= 5.429560586321D+02 PE=-2.789814778193D+03 EE= 9.403313951256D+02
 --------------------------------------------------------------------
 Variational C-PCM results
 =========================
 <psi(f)|   H    |psi(f)>                     (a.u.) =    -821.217453
 <psi(f)|H+V(f)/2|psi(f)>                     (a.u.) =    -821.251224
 Total free energy in solution:
 - with all non electrostatic terms           (a.u.) =    -821.234364
 --------------------------------------------------------------------
 (Polarized solute)-Solvent               (kcal/mol) =     -21.19
 --------------------------------------------------------------------
 Cavitation energy                        (kcal/mol) =      20.13
 Dispersion energy                        (kcal/mol) =     -10.73
 Repulsion energy                         (kcal/mol) =       1.19
 Total non electrostatic                  (kcal/mol) =      10.58
 --------------------------------------------------------------------
 Partition over spheres:
 Sphere  on Atom  Surface  Charge   GEl     GCav    GDR
    1     Pa1      18.60  -0.272   -4.20    1.00   -0.20
    2      O2      17.43   0.168   -1.31    2.50   -1.02
    3      H3       9.19  -0.121   -1.71    1.30   -0.82
    4      O4      17.49   0.190   -3.20    2.59   -1.04
    5      H5       9.18  -0.118   -1.32    1.30   -0.85
    6      O6      17.48   0.173   -1.51    2.52   -1.05
    7      H7       9.19  -0.120   -1.38    1.30   -0.83
    8      O8      17.47   0.170   -2.04    2.51   -1.04
    9      H9       9.19  -0.120   -1.28    1.30   -0.82
   10      O10     17.48   0.171   -1.73    2.53   -1.04
   11      H11      9.19  -0.120   -1.51    1.30   -0.83
 --------------------------------------------------------------------
 - cavitation energy not included in the total energy.
 - dispersion energy not included in the total energy.
 - repulsion  energy not included in the total energy.
 After PCM corrections, the energy is  -821.251223677     a.u.
 --------------------------------------------------------------------
 Writing COSMO formatted file "paoh5-bp86-cosmors-deftzvp-klamt.cosmo"
 Recomputed dielectric energy= -0.033983 old= -0.033771 diff=-2.13D-04
 Leave Link  502 at Thu Jun 22 10:37:44 2023, MaxMem=  2147483648 cpu:             642.6 elap:             107.6
 (Enter /home/pcmt/gaussian/g16.C.01/g16/l601.exe)
 Copying SCF densities to generalized density rwf, IOpCl= 0 IROHF=0.

 **********************************************************************

            Population analysis using the SCF Density.

 **********************************************************************

 Orbital symmetries:
       Occupied  (A) (A) (A) (A) (A) (A) (A) (A) (A) (A) (A) (A)
                 (A) (A) (A) (A) (A) (A) (A) (A) (A) (A) (A) (A)
                 (A) (A) (A) (A) (A) (A) (A) (A) (A) (A) (A) (A)
                 (A) (A)
       Virtual   (A) (A) (A) (A) (A) (A) (A) (A) (A) (A) (A) (A)
                 (A) (A) (A) (A) (A) (A) (A) (A) (A) (A) (A) (A)
                 (A) (A) (A) (A) (A) (A) (A) (A) (A) (A) (A) (A)
                 (A) (A) (A) (A) (A) (A) (A) (A) (A) (A) (A) (A)
                 (A) (A) (A) (A) (A) (A) (A) (A) (A) (A) (A) (A)
                 (A) (A) (A) (A) (A) (A) (A) (A) (A) (A) (A) (A)
                 (A) (A) (A) (A) (A) (A) (A) (A) (A) (A) (A) (A)
                 (A) (A) (A) (A) (A) (A) (A) (A) (A) (A) (A) (A)
                 (A) (A) (A) (A) (A) (A) (A) (A) (A) (A) (A) (A)
                 (A) (A) (A) (A) (A) (A) (A) (A) (A) (A) (A) (A)
                 (A) (A) (A) (A) (A) (A) (A) (A) (A) (A) (A) (A)
                 (A) (A) (A) (A) (A) (A) (A) (A) (A) (A) (A) (A)
                 (A) (A) (A) (A) (A) (A) (A) (A) (A) (A) (A) (A)
                 (A) (A) (A) (A) (A) (A) (A) (A) (A) (A) (A) (A)
                 (A) (A) (A) (A) (A) (A) (A) (A) (A) (A) (A) (A)
                 (A) (A) (A) (A) (A) (A) (A) (A) (A) (A) (A) (A)
                 (A) (A) (A) (A) (A) (A) (A) (A) (A) (A) (A) (A)
                 (A) (A) (A) (A) (A) (A) (A) (A) (A) (A) (A) (A)
                 (A) (A) (A) (A) (A) (A) (A) (A) (A) (A) (A) (A)
                 (A) (A) (A) (A) (A) (A) (A) (A) (A) (A) (A) (A)
                 (A) (A) (A) (A) (A) (A)
 The electronic state is 1-A.
 Alpha  occ. eigenvalues --  -18.75764 -18.75632 -18.75567 -18.75545 -18.75248
 Alpha  occ. eigenvalues --  -11.10313  -7.16805  -7.16457  -7.16428  -3.52250
 Alpha  occ. eigenvalues --   -3.52218  -3.52193  -3.52107  -3.51875  -1.71638
 Alpha  occ. eigenvalues --   -0.94089  -0.93839  -0.91629  -0.88037  -0.87673
 Alpha  occ. eigenvalues --   -0.79191  -0.77434  -0.77369  -0.45161  -0.42944
 Alpha  occ. eigenvalues --   -0.41404  -0.38894  -0.38760  -0.31872  -0.30228
 Alpha  occ. eigenvalues --   -0.29836  -0.28116  -0.27857  -0.27210  -0.27140
 Alpha  occ. eigenvalues --   -0.26683  -0.25883  -0.25647
 Alpha virt. eigenvalues --   -0.11908  -0.11415  -0.10466  -0.10134  -0.09100
 Alpha virt. eigenvalues --   -0.08463  -0.06816  -0.06612  -0.01998   0.01671
 Alpha virt. eigenvalues --    0.01843   0.02026   0.02820   0.03040   0.04189
 Alpha virt. eigenvalues --    0.05301   0.07340   0.11016   0.12210   0.13016
 Alpha virt. eigenvalues --    0.13983   0.18809   0.19908   0.25190   0.25824
 Alpha virt. eigenvalues --    0.27216   0.27662   0.28072   0.29545   0.31537
 Alpha virt. eigenvalues --    0.32067   0.32543   0.34380   0.34691   0.39291
 Alpha virt. eigenvalues --    0.39896   0.41410   0.41901   0.42923   0.45022
 Alpha virt. eigenvalues --    0.47500   0.48993   0.49071   0.50452   0.52062
 Alpha virt. eigenvalues --    0.53267   0.53676   0.55815   0.56513   0.58576
 Alpha virt. eigenvalues --    0.59204   0.61456   0.64839   0.65870   0.67631
 Alpha virt. eigenvalues --    0.68905   0.72216   0.76156   0.77935   0.84353
 Alpha virt. eigenvalues --    0.85258   0.90066   0.93529   0.94824   1.04647
 Alpha virt. eigenvalues --    1.06513   1.08881   1.09869   1.10771   1.12631
 Alpha virt. eigenvalues --    1.13431   1.14658   1.15169   1.16175   1.17430
 Alpha virt. eigenvalues --    1.19828   1.22576   1.25661   1.26122   1.26713
 Alpha virt. eigenvalues --    1.28303   1.29851   1.34839   1.35844   1.37633
 Alpha virt. eigenvalues --    1.38001   1.39923   1.42216   1.51545   1.53597
 Alpha virt. eigenvalues --    1.53693   1.56657   1.58004   1.58507   1.59358
 Alpha virt. eigenvalues --    1.60147   1.68164   1.70089   1.70469   1.72100
 Alpha virt. eigenvalues --    1.74599   1.75527   1.77766   1.82345   1.84278
 Alpha virt. eigenvalues --    1.85552   1.88347   1.89385   1.90997   1.95468
 Alpha virt. eigenvalues --    1.96215   2.07753   2.11020   2.13787   2.16634
 Alpha virt. eigenvalues --    2.17109   2.20509   2.21290   2.23534   2.24368
 Alpha virt. eigenvalues --    2.25693   2.28956   2.30164   2.40492   2.42113
 Alpha virt. eigenvalues --    2.45887   2.50870   2.53610   2.56870   2.58235
 Alpha virt. eigenvalues --    2.61113   2.63529   2.66648   2.68001   2.69824
 Alpha virt. eigenvalues --    2.71095   2.72274   2.72912   2.76188   2.91983
 Alpha virt. eigenvalues --    2.94751   2.94986   2.98389   3.33569   3.39148
 Alpha virt. eigenvalues --    3.39409   3.53181   3.65248   3.67568   3.68278
[...]
               1
     1  Pa   1.638743
     2  O   -0.319844
     4  O   -0.328460
     6  O   -0.331843
     8  O   -0.328398
    10  O   -0.330198
 Electronic spatial extent (au):  <R**2>=            935.2380
 Charge=             -0.0000 electrons
 Dipole moment (field-independent basis, Debye):
    X=              1.4503    Y=             -0.2245    Z=             -1.3918  Tot=              2.0226
 Quadrupole moment (field-independent basis, Debye-Ang):
   XX=            -62.7199   YY=            -63.6545   ZZ=            -65.3906
   XY=              0.2392   XZ=              3.8624   YZ=             -0.9388
 Traceless Quadrupole moment (field-independent basis, Debye-Ang):
   XX=              1.2017   YY=              0.2672   ZZ=             -1.4689
   XY=              0.2392   XZ=              3.8624   YZ=             -0.9388
 Octapole moment (field-independent basis, Debye-Ang**2):
  XXX=              1.2379  YYY=              0.2466  ZZZ=             -5.2222  XYY=              0.4372
  XXY=             -0.2106  XXZ=              1.2322  XZZ=             11.8447  YZZ=             -1.7415
  YYZ=             -1.6638  XYZ=              0.0536
 Hexadecapole moment (field-independent basis, Debye-Ang**3):
 XXXX=           -304.6948 YYYY=           -294.7582 ZZZZ=           -215.6143 XXXY=             47.8907
 XXXZ=             -2.1973 YYYX=            -43.7064 YYYZ=             -0.4278 ZZZX=             35.5415
 ZZZY=             -5.8214 XXYY=           -166.3131 XXZZ=           -113.6850 YYZZ=           -124.6066
 XXYZ=             -2.2203 YYXZ=              0.8415 ZZXY=             -1.9334
 N-N= 4.852761007580D+02 E-N=-2.789814769897D+03  KE= 5.429560586321D+02
 Orbital energies and kinetic energies (alpha):
                                 1                 2
   1         O               -18.757638         29.112715
   2         O               -18.756317         29.112700
   3         O               -18.755670         29.112861
   4         O               -18.755453         29.112855
   5         O               -18.752484         29.113728
   6         O               -11.103129          4.704704
   7         O                -7.168053          5.038499
   8         O                -7.164566          5.036661
   9         O                -7.164279          5.036709
  10         O                -3.522503          6.839567
  11         O                -3.522182          6.839754
  12         O                -3.521930          6.840233
  13         O                -3.521074          6.837684
  14         O                -3.518751          6.838343
  15         O                -1.716381          6.491811
  16         O                -0.940886          2.305832
  17         O                -0.938390          2.308453
  18         O                -0.916286          2.411841
  19         O                -0.880366          2.796631
  20         O                -0.876731          3.055621
  21         O                -0.791910          2.561693
  22         O                -0.774343          2.614630
  23         O                -0.773695          2.619886
  24         O                -0.451606          1.975451
  25         O                -0.429436          5.087032
  26         O                -0.414041          3.273016
  27         O                -0.388942          2.391071
  28         O                -0.387605          2.463051
  29         O                -0.318723          2.006294
  30         O                -0.302278          2.369827
  31         O                -0.298359          1.989980
  32         O                -0.281157          2.610356
  33         O                -0.278567          2.401209
  34         O                -0.272102          3.889813
  35         O                -0.271399          5.649570
  36         O                -0.266831          2.644851
  37         O                -0.258827          3.480906
  38         O                -0.256465          2.502192
  39         V                -0.119083        192.005618
  40         V                -0.114151          5.255959
  41         V                -0.104659          5.923839
  42         V                -0.101341          5.360076
  43         V                -0.091002          5.457514
  44         V                -0.084626        189.651810
  45         V                -0.068162          5.296250
  46         V                -0.066122          5.674785
  47         V                -0.019985         15.136370
  48         V                 0.016711          0.852862
  49         V                 0.018435          0.699378
  50         V                 0.020263          1.720082
  51         V                 0.028197          0.776974
  52         V                 0.030399          1.995031
  53         V                 0.041892          1.982288
  54         V                 0.053011          3.005694
  55         V                 0.073401          1.254469
  56         V                 0.110156          7.229855
  57         V                 0.122102          1.007201
  58         V                 0.130157          0.979246
  59         V                 0.139833          0.998452
  60         V                 0.188090          1.693280
  61         V                 0.199077          1.056522
  62         V                 0.251902          1.034654
  63         V                 0.258236          1.083927
  64         V                 0.272158          1.510032
  65         V                 0.276616          1.500174
  66         V                 0.280719          1.155329
  67         V                 0.295450          0.974920
  68         V                 0.315371          1.641718
  69         V                 0.320666          2.161593
  70         V                 0.325433          2.156137
  71         V                 0.343797          1.309302
  72         V                 0.346905          1.298483
  73         V                 0.392915          2.766955
  74         V                 0.398964          1.417590
  75         V                 0.414105          1.338814
  76         V                 0.419013          1.338081
  77         V                 0.429231          1.615410
  78         V                 0.450218          1.962954
  79         V                 0.475000          1.568648
  80         V                 0.489932          2.366345
  81         V                 0.490713          1.822420
  82         V                 0.504519          1.794032
  83         V                 0.520617          1.652818
  84         V                 0.532674          1.494476
  85         V                 0.536763          1.647419
  86         V                 0.558148          1.648242
  87         V                 0.565127          1.549449
  88         V                 0.585758          1.481126
  89         V                 0.592038          1.482302
  90         V                 0.614558          5.565352
  91         V                 0.648391          1.413965
  92         V                 0.658697          1.415505
  93         V                 0.676311          1.412118
  94         V                 0.689046          1.553444
  95         V                 0.722159          1.890350
  96         V                 0.761563          1.542432
  97         V                 0.779345          1.630437
  98         V                 0.843530          1.823147
  99         V                 0.852580          1.876887
 100         V                 0.900665          2.141531
 101         V                 0.935285          3.692932
 102         V                 0.948238          2.223173
 103         V                 1.046474          2.403350
 104         V                 1.065130          2.645362
 105         V                 1.088806          2.413536
 106         V                 1.098689          2.390461
 107         V                 1.107709          3.277197
 108         V                 1.126313          2.975171
 109         V                 1.134308          2.968216
 110         V                 1.146583          2.434292
 111         V                 1.151687          2.273425
 112         V                 1.161750          2.962985
 113         V                 1.174299          2.482127
 114         V                 1.198277          2.569282
 115         V                 1.225763          2.732266
 116         V                 1.256609          3.631836
 117         V                 1.261219          3.200445
 118         V                 1.267132          3.616472
 119         V                 1.283028          3.081967
 120         V                 1.298506          2.498575
 121         V                 1.348393          2.860165
 122         V                 1.358440          2.378612
 123         V                 1.376332          2.500368
 124         V                 1.380005          2.398672
 125         V                 1.399230          2.416632
 126         V                 1.422158          2.564289
 127         V                 1.515455          2.921685
 128         V                 1.535972          3.080549
 129         V                 1.536927          3.108460
 130         V                 1.566569          3.170814
 131         V                 1.580036          3.439706
 132         V                 1.585074          3.162553
 133         V                 1.593579          3.336502
 134         V                 1.601466          3.271945
 135         V                 1.681639          3.079309
 136         V                 1.700888          3.308785
 137         V                 1.704690          3.332087
 138         V                 1.721003          3.394415
 139         V                 1.745987          3.408386
 140         V                 1.755267          3.432169
 141         V                 1.777659          3.078065
 142         V                 1.823447          3.350213
 143         V                 1.842784          3.024541
 144         V                 1.855518          3.615190
 145         V                 1.883470          3.758806
 146         V                 1.893852          3.366295
 147         V                 1.909971          3.434056
 148         V                 1.954684          3.622106
 149         V                 1.962155          3.728013
 150         V                 2.077531          3.365204
 151         V                 2.110195          3.762604
 152         V                 2.137870          3.810776
 153         V                 2.166344          3.616677
 154         V                 2.171086          3.586041
 155         V                 2.205094          3.975914
 156         V                 2.212897          4.116965
 157         V                 2.235343          3.742621
 158         V                 2.243676          3.636230
 159         V                 2.256929          4.144635
 160         V                 2.289559          4.482577
 161         V                 2.301644          5.763706
 162         V                 2.404923          4.455992
 163         V                 2.421131          4.533007
 164         V                 2.458871          4.259031
 165         V                 2.508705          4.327904
 166         V                 2.536104          4.262177
 167         V                 2.568696          6.722026
 168         V                 2.582353          6.413654
 169         V                 2.611134          6.804291
 170         V                 2.635292          6.186855
 171         V                 2.666483          6.466485
 172         V                 2.680012          6.222436
 173         V                 2.698237          6.388373
 174         V                 2.710950          6.433300
 175         V                 2.722738          6.206185
 176         V                 2.729121          6.154056
 177         V                 2.761880          6.793636
 178         V                 2.919829          6.932722
 179         V                 2.947506          6.636684
 180         V                 2.949859          6.648109
 181         V                 2.983891          6.663362
 182         V                 3.335687          8.570801
 183         V                 3.391480          8.525615
 184         V                 3.394091          8.543036
 185         V                 3.531806          7.979062
 186         V                 3.652478          7.659469
 187         V                 3.675675          6.813634
 188         V                 3.682783          6.813071
 189         V                 3.706938          7.092437
 190         V                 3.735746          8.747390
 191         V                 3.781498          6.824231
 192         V                 3.837015          9.010951
 193         V                 3.866840          9.631296
 194         V                 3.908251          9.282305
 195         V                 4.066610          8.883766
 196         V                 4.105533          8.839666
 197         V                 4.197619          9.606404
 198         V                 4.211519          9.574228
 199         V                 5.015855          6.445904
 200         V                 5.017178          6.450793
 201         V                 5.020038          6.454246
 202         V                 5.021600          6.452077
 203         V                 5.023573          6.465425
 204         V                 5.025124          6.462486
 205         V                 5.025585          6.466728
 206         V                 5.030772          6.470045
 207         V                 5.034922          6.532797
 208         V                 5.037261          6.476810
 209         V                 5.065470          6.619934
 210         V                 5.086993          6.610621
 211         V                 5.120505          7.189465
 212         V                 5.129375          6.905027
 213         V                 5.136746          6.826761
 214         V                 5.141112          6.809628
 215         V                 5.144824          6.824656
 216         V                 5.166843          6.835255
 217         V                 5.174351          6.787660
 218         V                 5.185140          6.903131
 219         V                 5.303391          6.926401
 220         V                 5.311927          6.902950
 221         V                 5.326191          7.034017
 222         V                 5.332845          6.916897
 223         V                 5.364978          7.355256
 224         V                 5.367168          7.034567
 225         V                 5.418186          7.141568
 226         V                 5.439976          7.203042
 227         V                 5.451744          7.209720
 228         V                 5.455690          7.209437
 229         V                 6.044911         10.842407
 230         V                 6.070719          8.940981
 231         V                 6.101157          8.933518
 232         V                 6.114470          9.021390
 233         V                 6.119724          9.210215
 234         V                 6.134844          9.035079
 235         V                 6.172432          9.265623
 236         V                 6.186228          9.253182
 237         V                 6.193222          9.305882
 238         V                 6.195480          9.327799
 239         V                 6.235890          9.313239
 240         V                 6.260289          9.357701
 241         V                 6.274290          9.388536
 242         V                 6.283955          9.337291
 243         V                 6.295820          9.345823
 244         V                 6.327167          9.405326
 245         V                 6.394378          9.598389
 246         V                 6.400731          9.602023
 247         V                 6.423372          9.599042
 248         V                 6.452184          9.619624
 249         V                 6.484780          9.638915
 250         V                 6.633006         10.207828
 251         V                 6.647599         10.290477
 252         V                 6.658117         10.473342
 253         V                 6.766953          9.905903
 254         V                 6.863213         10.143255
 255         V                 6.914145          9.879962
 256         V                 6.935830          9.931309
 257         V                 6.942709          9.905718
 258         V                 7.017430          9.902028
 259         V                 7.059038         11.209835
 260         V                 7.265410         12.964194
 261         V                 7.451981         13.658658
 262         V                 7.472763         13.599562
 263         V                 8.179954         15.793172
 264         V                 8.197192         15.799499
 265         V                 8.238498         15.811810
 266         V                 8.623632         16.111075
 267         V                 8.967939         16.354012
 268         V                29.295369         36.022907
 269         V                29.435861         36.164231
 270         V                29.438641         36.168955
 271         V                43.188740        108.539857
 272         V                43.274641        108.600478
 273         V                43.314191        108.654049
 274         V                43.345953        108.711887
 275         V                43.366850        108.706791
 276         V                54.073088         39.964877
 277         V                70.209730         83.943186
 278         V                70.290114         84.094593
 279         V                70.292768         84.099426
 280         V               142.595405        242.419934
 281         V               142.749834        242.614373
 282         V               142.754646        242.620564
 283         V               202.579533        130.074859
 284         V               626.091564       1034.492420
 Total kinetic energy from orbitals= 5.429560586321D+02
 No NMR shielding tensors so no spin-rotation constants.
 Leave Link  601 at Thu Jun 22 10:37:44 2023, MaxMem=  2147483648 cpu:               3.0 elap:               0.4
 (Enter /home/pcmt/gaussian/g16.C.01/g16/l9999.exe)

 Test job not archived.
 1\1\GINC-U-0-8\SP\RBP86\Gen\H5O5Pa1\ROOT\22-Jun-2023\0\\#p BP86/GEN Ps
 eudo=Read GFInput GFPrint IOP(6/7=3) Symm=(Loose) Int=(UltraFine) Gues
 s=(Harris) SCRF=(COSMORS) Scf=(NoVarAcc,MaxCycle=100,conver=8)\\paoh5-
 bp86-cosmors-deftzvp-klamt.com SGP in PCM calculation\\0,1\Pa,0,0.5734
 462612,-0.1758029295,-0.0184952023\O,0,1.513122868,1.4255903989,-1.062
 9226803\H,0,1.4626053189,1.7325543176,-1.9766935055\O,0,-1.2012487692,
 0.9280892758,0.418248461\H,0,-1.4892697694,1.8197585753,0.1936499415\O
 ,0,-0.0865056255,-0.9682022462,-1.8886705739\H,0,-0.674476298,-1.68364
 95411,-2.1590093443\O,0,-0.1332575034,-1.9379307747,0.9558623339\H,0,-
 0.1577178644,-2.2050606144,1.882978595\O,0,1.6459675636,0.3702575469,1
 .745616356\H,0,2.1069616559,1.1667757581,2.0352520128\\Version=ES64L-G
 16RevC.01\State=1-A\HF=-821.2512237\RMSD=3.228e-09\Dipole=0.6584312,0.
 1831612,-0.4076074\Quadrupole=-2.5832977,2.5486043,0.0346934,-0.869346
 3,1.4330322,-0.6209459\PG=C01 [X(H5O5Pa1)]\\@


 The chemist is a guest at the physicist's table and
 frequently dines well.
                   -- Richard Bersohn
 Job cpu time:       0 days  0 hours 11 minutes 10.6 seconds.
 Elapsed time:       0 days  0 hours  1 minutes 51.5 seconds.
 File lengths (MBytes):  RWF=     43 Int=      0 D2E=      0 Chk=      6 Scr=      1
 Normal termination of Gaussian 16 at Thu Jun 22 10:37:44 2023.
