

 Parallel Execution: Process Information
 ==============================================================================
 Rank   Node Name                              NodeID   MyNodeRank  NodeMaster
    0   u-0-5.local                               0          0          0
    1   u-0-5.local                               0          1         -1
    2   u-0-5.local                               1          0          1
    3   u-0-5.local                               1          1         -1
    4   u-0-5.local                               2          0          2
    5   u-0-5.local                               2          1         -1
    6   u-0-5.local                               3          0          3
    7   u-0-5.local                               3          1         -1
 ==============================================================================


May use up to 31228MB of RAM as shared memory on node 0
May use up to 31250MB of RAM as shared memory on node 2
May use up to 31250MB of RAM as shared memory on node 1
May use up to 31250MB of RAM as shared memory on node 3

 *******************************************************************************
 *                                                                             *
 *  --------------------------------                                           *
 *   Amsterdam Modeling Suite (AMS)              2022.103                      *
 *  --------------------------------                                           *
 *                                               r104886 2022-06-17            *
 *                                                                             *
 *                                                                             *
 *                              =================                              *
 *                              |               |                              *
 *                              |     A M S     |                              *
 *                              |               |                              *
 *                              =================                              *
 *                                                                             *
 *                                                                             *
 *   Online information and documentation:  https://www.scm.com/support/       *
 *   E-mail:  support@scm.com   info@scm.com                                   *
 *                                                                             *
 *   Scientific publications using AMS results must be properly referenced     *
 *   See the User Manuals (or the web site) for recommended citations          *
 *   The terms and conditions of the End User License Agreement apply to       *
 *   the use of AMS, https://www.scm.com/license-terms/                        *
 *                                                                             *
 **********************  x86_64_linux_intel / intelmpi  ************************
 
 Licensed to: Dr. Val?rie Vallet / Laboratoire PhLAM UMR 8523 / Villeneuve d'Ascq Cedex / FRANCE 2023-01-27 09:40:58
 SCM User ID: u10325
  
 AMS 2022.103  RunTime: Feb01-2023 16:58:36  ShM Nodes: 4  Procs: 8

 AMS jobname: ams
 AMS jobid  : 341670352

 Start   directory: /home/shaaban/ams/fluoride/pa_oh4_f-newconformer/opp/
 Results directory: /home/shaaban/ams/fluoride/pa_oh4_f-newconformer/opp/pa_oh4_f-newconformer.SR.b3lyp.tz2p.opt-freq-opp-B22-adf.results/
 Scratch directory: /state/partition2/shaaban/925635.phlam-s-sakura/amstmp_ams_kid0.341670352/


 Communication costs MPI_COMM_WORLD:      2.742 usec per message,   0.0086 usec per 8-byte item
 Communication costs for intra-node:      0.509 usec per message,   0.0024 usec per 8-byte item

 RNG seed: 514197282 302037515 -1176145055 -1307372061 -1834469716 1662984179 -1264139676 1652968613



                      ************************************************************************
                      *  ADF 2022.103  RunTime: Feb01-2023 16:58:36  ShM Nodes: 4  Procs: 8  *
                      ************************************************************************
  
       ***************************
       *  GEOMETRY OPTIMIZATION  *
       ***************************

Optimization Method                    Quasi Newton
Optimization Coordinates               Delocalized Coordinates
Optimize lattice                       F
 
 ------------------------------------------------------
 Convergence criteria (Hartree,Angstrom)
 ------------------------------------------------------
 Maximum gradient               0.000100000000
 Maximum rms gradient           0.000066666667
 Maximum step allowed           0.001000000000
 Maximum rms step allowed       0.000666666667
 Maximum energy change allowe   0.000010000000
 Maximum stress energy allowe   0.000500000000
 
Initial model Hessian                  Automatic Hessian
 
------------------------------------
Quasi-Newton Optimizer Parameters
------------------------------------
Hessian Update Method                  BFGS
Maximum number of steps                  250
First GDIIS cycle                          0
Maximum GDIIS vectors                      0
Trust radius (bohr)                        0.200000
Trust radius varies                        T
Constraints converged at all steps         T
Use projector                              T
 
 Rigid motions settings for: old optimizer
 Atomic rotations (x,y,z):     T T T
 Atomic translations (x,y,z):  T T T
 Tolerance:                   1.000000000000000E-006
 
--------
Geometry
--------
Formula: H4FO4Pa
Atoms
  Index Symbol   x (angstrom)   y (angstrom)   z (angstrom)
      1     Pa     0.31828805    -0.06176345     0.04732613
      2      F     1.09563151     1.42777517    -1.19481137
      3      H    -1.93529630     1.92377746     0.43500496
      4      O    -1.33595865     1.17540907     0.43911200
      5      H     2.62723977    -0.21509716     1.94114979
      6      O     0.19666784    -1.35513620    -1.59953773
      7      H     0.16894829    -1.91443346    -2.37702947
      8      O    -0.42700780    -1.53746275     1.32590654
      9      H    -0.92169207    -2.25337287     1.72977899
     10      O     2.07473339     0.05424803     1.20424112
 
Total System Charge             0.00000
Bonding info available!
 
 
----------------
ADF Engine Input
----------------
 
 Basis
 Type TZ2P
 Core None
 End
 XC
 Hybrid B3LYP
 End
 NumericalQuality Good
 

 Title: *** (NO TITLE) ***

Bad geometry: could not add a dihedral for atom    7
 Using automatic Hessian for delocalized coordinates.
 *** GO1_GOStep1 ***



 ======================
 RI Hartree-Fock Scheme
 ======================
  
 Fit Set Quality     : GOOD
 Threshold Quality   : GOOD
 Integration Quality : GOOD
 Response Quality    : DEFAULT
 Is Range Separated  :  F
 
 RIHartreeFock Dependency: number of modified vectors:           4
  
 Hartree-Fock exchange energy:   -510.631639229482     

 Energy gradients wrt nuclear displacements
 ==========================================

     Atom      Cartesian (a.u./angstrom)
                 X         Y         Z
 ----------------------------------------
     1 Pa   -0.000805  0.000214  0.000327
     2 F     0.000767  0.000723 -0.000762
     3 H    -0.000119  0.000359 -0.000163
     4 O     0.000303 -0.001022  0.000419
     5 H     0.000690 -0.000191  0.000352
     6 O     0.000118  0.000517  0.000947
     7 H     0.000134 -0.000435 -0.000415
     8 O    -0.000024  0.001392 -0.000259
     9 H     0.000114 -0.001110  0.000122
    10 O    -0.001178 -0.000447 -0.000569
 ----------------------------------------
 Mulliken charges used for AMS results%charges...
 
----------------------------------------------------------------------
Geometry Convergence after Step   1       (Hartree/Angstrom,Angstrom)
----------------------------------------------------------------------
current energy                               -2.75781053 Hartree
energy change                      -2.75781053     0.00001000    F
constrained gradient max            0.00141037     0.00010000    F
constrained gradient rms            0.00061473     0.00006667    F
gradient max                        0.00141011
gradient rms                        0.00061473
cart. step max                      0.00323304     0.00100000    F
cart. step rms                      0.00154173     0.00066667    F
 
 
--------
Geometry
--------
Formula: H4FO4Pa
Atoms
  Index Symbol   x (angstrom)   y (angstrom)   z (angstrom)
      1     Pa     0.31957303    -0.06432661     0.04802574
      2      F     1.09294953     1.42695699    -1.19343682
      3      H    -1.93300225     1.92303728     0.43420211
      4      O    -1.33393915     1.17468548     0.43842897
      5      H     2.62802936    -0.21186412     1.94226797
      6      O     0.19678811    -1.35532714    -1.60091344
      7      H     0.16723661    -1.91276985    -2.37929609
      8      O    -0.42800200    -1.53897383     1.32674534
      9      H    -0.92430821    -2.25331723     1.73040660
     10      O     2.07622898     0.05584289     1.20471058
 
Total System Charge             0.00000
Bonding info available!
 
 *** GO1_GOStep2 ***



 ======================
 RI Hartree-Fock Scheme
 ======================
  
 Fit Set Quality     : GOOD
 Threshold Quality   : GOOD
 Integration Quality : GOOD
 Response Quality    : DEFAULT
 Is Range Separated  :  F
 
 RIHartreeFock Dependency: number of modified vectors:           4
  
 Hartree-Fock exchange energy:   -510.632140948634     

 Energy gradients wrt nuclear displacements
 ==========================================

     Atom      Cartesian (a.u./angstrom)
                 X         Y         Z
 ----------------------------------------
     1 Pa   -0.000185 -0.000287  0.000374
     2 F     0.000474  0.000602 -0.000545
     3 H     0.000049  0.000090 -0.000135
     4 O    -0.000076 -0.000391  0.000323
     5 H     0.000237 -0.000005 -0.000196
     6 O     0.000077  0.000222  0.000264
     7 H     0.000136 -0.000094  0.000070
     8 O    -0.000636  0.000807  0.000136
     9 H     0.000547 -0.000498 -0.000238
    10 O    -0.000622 -0.000447 -0.000053
 ----------------------------------------
 Mulliken charges used for AMS results%charges...

 dE(predicted):    -0.53925E-05, dE(actual):    -0.10241E-05, Trust radius:    0.200000, all in a.u.
 
----------------------------------------------------------------------
Geometry Convergence after Step   2       (Hartree/Angstrom,Angstrom)
----------------------------------------------------------------------
current energy                               -2.75781155 Hartree
energy change                      -0.00000102     0.00001000    T
constrained gradient max            0.00082561     0.00010000    F
constrained gradient rms            0.00036259     0.00006667    F
gradient max                        0.00082537
gradient rms                        0.00036259
cart. step max                      0.00729695     0.00100000    F
cart. step rms                      0.00322563     0.00066667    F
 
 
--------
Geometry
--------
Formula: H4FO4Pa
Atoms
  Index Symbol   x (angstrom)   y (angstrom)   z (angstrom)
      1     Pa     0.32230038    -0.06906666     0.04877624
      2      F     1.08957444     1.42429516    -1.19154928
      3      H    -1.92849308     1.92159095     0.43296828
      4      O    -1.32958149     1.17329474     0.43690068
      5      H     2.62803766    -0.20456717     1.94676236
      6      O     0.19607947    -1.35570130    -1.60399305
      7      H     0.16141076    -1.90936288    -2.38469488
      8      O    -0.42816555    -1.54241672     1.32791436
      9      H    -0.92820072    -2.25389137     1.73163873
     10      O     2.07859216     0.05976910     1.20641751
 
Total System Charge             0.00000
Bonding info available!
 
 *** GO1_GOStep3 ***



 ======================
 RI Hartree-Fock Scheme
 ======================
  
 Fit Set Quality     : GOOD
 Threshold Quality   : GOOD
 Integration Quality : GOOD
 Response Quality    : DEFAULT
 Is Range Separated  :  F
 
 RIHartreeFock Dependency: number of modified vectors:           4
  
 Hartree-Fock exchange energy:   -510.632187810932     

 Energy gradients wrt nuclear displacements
 ==========================================

     Atom      Cartesian (a.u./angstrom)
                 X         Y         Z
 ----------------------------------------
     1 Pa    0.000742 -0.000827  0.000237
     2 F    -0.000101  0.000225 -0.000031
     3 H     0.000122 -0.000097 -0.000095
     4 O    -0.000433  0.000391  0.000142
     5 H     0.000002  0.000073 -0.000415
     6 O     0.000042  0.000098 -0.000356
     7 H     0.000101  0.000063  0.000291
     8 O    -0.001125  0.000517  0.000404
     9 H     0.000746 -0.000233 -0.000400
    10 O    -0.000095 -0.000211  0.000221
 ----------------------------------------
 Mulliken charges used for AMS results%charges...
 
----------------------------------------------------------------------
Geometry Convergence after Step   3       (Hartree/Angstrom,Angstrom)
----------------------------------------------------------------------
current energy                               -2.75781184 Hartree
energy change                      -0.00000029     0.00001000    T
constrained gradient max            0.00112303     0.00010000    F
constrained gradient rms            0.00039667     0.00006667    F
gradient max                        0.00112273
gradient rms                        0.00039667
cart. step max                      0.00510893     0.00100000    F
cart. step rms                      0.00201403     0.00066667    F
 
 
--------
Geometry
--------
Formula: H4FO4Pa
Atoms
  Index Symbol   x (angstrom)   y (angstrom)   z (angstrom)
      1     Pa     0.32384258    -0.07085108     0.04842044
      2      F     1.09036373     1.42196300    -1.19180504
      3      H    -1.92650600     1.92050683     0.43310335
      4      O    -1.32724594     1.17250367     0.43619572
      5      H     2.62595153    -0.20036999     1.95088964
      6      O     0.19476243    -1.35594458    -1.60566652
      7      H     0.15630183    -1.90755801    -2.38766627
      8      O    -0.42637963    -1.54436543     1.32784222
      9      H    -0.92858284    -2.25422647     1.73181399
     10      O     2.07904635     0.06228591     1.20801343
 
Total System Charge             0.00000
Bonding info available!
 
 *** GO1_GOStep4 ***



 ======================
 RI Hartree-Fock Scheme
 ======================
  
 Fit Set Quality     : GOOD
 Threshold Quality   : GOOD
 Integration Quality : GOOD
 Response Quality    : DEFAULT
 Is Range Separated  :  F
 
 RIHartreeFock Dependency: number of modified vectors:           4
  
 Hartree-Fock exchange energy:   -510.632098200550     

 Energy gradients wrt nuclear displacements
 ==========================================

     Atom      Cartesian (a.u./angstrom)
                 X         Y         Z
 ----------------------------------------
     1 Pa    0.000884 -0.000684  0.000007
     2 F    -0.000312 -0.000038  0.000234
     3 H     0.000109 -0.000100 -0.000090
     4 O    -0.000426  0.000509  0.000092
     5 H     0.000017  0.000077 -0.000353
     6 O     0.000052  0.000081 -0.000473
     7 H     0.000066  0.000051  0.000258
     8 O    -0.001160  0.000499  0.000431
     9 H     0.000712 -0.000277 -0.000369
    10 O     0.000060 -0.000119  0.000263
 ----------------------------------------
 Mulliken charges used for AMS results%charges...

 dE(predicted):    -0.24241E-05, dE(actual):    -0.12665E-05, Trust radius:    0.200000, all in a.u.
 
----------------------------------------------------------------------
Geometry Convergence after Step   4       (Hartree/Angstrom,Angstrom)
----------------------------------------------------------------------
current energy                               -2.75781310 Hartree
energy change                      -0.00000127     0.00001000    T
constrained gradient max            0.00115710     0.00010000    F
constrained gradient rms            0.00040406     0.00006667    F
gradient max                        0.00115690
gradient rms                        0.00040406
cart. step max                      0.01911242     0.00100000    F
cart. step rms                      0.00735756     0.00066667    F
 
 
--------
Geometry
--------
Formula: H4FO4Pa
Atoms
  Index Symbol   x (angstrom)   y (angstrom)   z (angstrom)
      1     Pa     0.32910643    -0.07518664     0.04590354
      2      F     1.09747285     1.41328678    -1.19522213
      3      H    -1.92117281     1.91596878     0.43540862
      4      O    -1.31985128     1.16962311     0.43437266
      5      H     2.61533034    -0.18695075     1.96659567
      6      O     0.18905347    -1.35684356    -1.61087310
      7      H     0.13718941    -1.90180364    -2.39688260
      8      O    -0.41748628    -1.55048819     1.32629778
      9      H    -0.92723006    -2.25446307     1.73151402
     10      O     2.07914196     0.07080105     1.21402649
 
Total System Charge             0.00000
Bonding info available!
 
 *** GO1_GOStep5 ***



 ======================
 RI Hartree-Fock Scheme
 ======================
  
 Fit Set Quality     : GOOD
 Threshold Quality   : GOOD
 Integration Quality : GOOD
 Response Quality    : DEFAULT
 Is Range Separated  :  F
 
 RIHartreeFock Dependency: number of modified vectors:           4
  
 Hartree-Fock exchange energy:   -510.631912829305     

 Energy gradients wrt nuclear displacements
 ==========================================

     Atom      Cartesian (a.u./angstrom)
                 X         Y         Z
 ----------------------------------------
     1 Pa    0.000836  0.000262 -0.000816
     2 F    -0.000747 -0.000823  0.000926
     3 H     0.000057 -0.000036 -0.000099
     4 O    -0.000189  0.000464  0.000035
     5 H     0.000112  0.000105 -0.000099
     6 O     0.000113  0.000010 -0.000619
     7 H    -0.000070 -0.000004  0.000096
     8 O    -0.001071  0.000445  0.000434
     9 H     0.000552 -0.000451 -0.000224
    10 O     0.000405  0.000029  0.000366
 ----------------------------------------
 Mulliken charges used for AMS results%charges...

 dE(predicted):    -0.86342E-05, dE(actual):    -0.40911E-05, Trust radius:    0.200000, all in a.u.
 
----------------------------------------------------------------------
Geometry Convergence after Step   5       (Hartree/Angstrom,Angstrom)
----------------------------------------------------------------------
current energy                               -2.75781719 Hartree
energy change                      -0.00000409     0.00001000    T
constrained gradient max            0.00106606     0.00010000    F
constrained gradient rms            0.00046964     0.00006667    F
gradient max                        0.00106620
gradient rms                        0.00046964
cart. step max                      0.01554873     0.00100000    F
cart. step rms                      0.00629369     0.00066667    F
 
 
--------
Geometry
--------
Formula: H4FO4Pa
Atoms
  Index Symbol   x (angstrom)   y (angstrom)   z (angstrom)
      1     Pa     0.33345567    -0.07726348     0.04284895
      2      F     1.10639520     1.40621975    -1.20031180
      3      H    -1.91838381     1.91122654     0.43918303
      4      O    -1.31447939     1.16697883     0.43356465
      5      H     2.60399796    -0.17762603     1.97990420
      6      O     0.18367637    -1.35764552    -1.61449030
      7      H     0.12164068    -1.89755952    -2.40334291
      8      O    -0.40827363    -1.55464187     1.32409092
      9      H    -0.92470043    -2.25302228     1.73078367
     10      O     2.07822540     0.07727744     1.21891055
 
Total System Charge             0.00000
Bonding info available!
 
 *** GO1_GOStep6 ***



 ======================
 RI Hartree-Fock Scheme
 ======================
  
 Fit Set Quality     : GOOD
 Threshold Quality   : GOOD
 Integration Quality : GOOD
 Response Quality    : DEFAULT
 Is Range Separated  :  F
 
 RIHartreeFock Dependency: number of modified vectors:           4
  
 Hartree-Fock exchange energy:   -510.631911606062     

 Energy gradients wrt nuclear displacements
 ==========================================

     Atom      Cartesian (a.u./angstrom)
                 X         Y         Z
 ----------------------------------------
     1 Pa    0.000496  0.001074 -0.001305
     2 F    -0.000798 -0.001180  0.001159
     3 H     0.000028  0.000041 -0.000119
     4 O     0.000084  0.000141  0.000094
     5 H     0.000156  0.000153  0.000072
     6 O     0.000174 -0.000050 -0.000524
     7 H    -0.000174 -0.000039 -0.000033
     8 O    -0.000871  0.000415  0.000355
     9 H     0.000427 -0.000551 -0.000112
    10 O     0.000479 -0.000004  0.000415
 ----------------------------------------
 Mulliken charges used for AMS results%charges...

 dE(predicted):    -0.59460E-05, dE(actual):    -0.36431E-05, Trust radius:    0.200000, all in a.u.
 
----------------------------------------------------------------------
Geometry Convergence after Step   6       (Hartree/Angstrom,Angstrom)
----------------------------------------------------------------------
current energy                               -2.75782084 Hartree
energy change                      -0.00000364     0.00001000    T
constrained gradient max            0.00130893     0.00010000    F
constrained gradient rms            0.00054387     0.00006667    F
gradient max                        0.00130894
gradient rms                        0.00054387
cart. step max                      0.01301084     0.00100000    F
cart. step rms                      0.00608210     0.00066667    F
 
 
--------
Geometry
--------
Formula: H4FO4Pa
Atoms
  Index Symbol   x (angstrom)   y (angstrom)   z (angstrom)
      1     Pa     0.33769860    -0.07814330     0.03924725
      2      F     1.11685063     1.40008492    -1.20721336
      3      H    -1.91752234     1.90533571     0.44476445
      4      O    -1.31008360     1.16402916     0.43346851
      5      H     2.59131150    -0.17112104     1.99209518
      6      O     0.17813799    -1.35845269    -1.61725223
      7      H     0.10862984    -1.89385854    -2.40861793
      8      O    -0.39812432    -1.55755657     1.32154077
      9      H    -0.92225282    -2.24909759     1.73019616
     10      O     2.07690855     0.08272378     1.22291216
 
Total System Charge             0.00000
Bonding info available!
 
 *** GO1_GOStep7 ***



 ======================
 RI Hartree-Fock Scheme
 ======================
  
 Fit Set Quality     : GOOD
 Threshold Quality   : GOOD
 Integration Quality : GOOD
 Response Quality    : DEFAULT
 Is Range Separated  :  F
 
 RIHartreeFock Dependency: number of modified vectors:           4
  
 Hartree-Fock exchange energy:   -510.632021517698     

 Energy gradients wrt nuclear displacements
 ==========================================

     Atom      Cartesian (a.u./angstrom)
                 X         Y         Z
 ----------------------------------------
     1 Pa    0.000044  0.001459 -0.001346
     2 F    -0.000517 -0.001068  0.000930
     3 H     0.000020  0.000112 -0.000143
     4 O     0.000310 -0.000297  0.000226
     5 H     0.000142  0.000219  0.000171
     6 O     0.000221 -0.000086 -0.000286
     7 H    -0.000248 -0.000033 -0.000107
     8 O    -0.000626  0.000411  0.000208
     9 H     0.000344 -0.000561 -0.000041
    10 O     0.000310 -0.000157  0.000388
 ----------------------------------------
 Mulliken charges used for AMS results%charges...

 dE(predicted):    -0.61709E-05, dE(actual):    -0.37310E-05, Trust radius:    0.200000, all in a.u.
 
----------------------------------------------------------------------
Geometry Convergence after Step   7       (Hartree/Angstrom,Angstrom)
----------------------------------------------------------------------
current energy                               -2.75782457 Hartree
energy change                      -0.00000373     0.00001000    T
constrained gradient max            0.00145757     0.00010000    F
constrained gradient rms            0.00051959     0.00006667    F
gradient max                        0.00145747
gradient rms                        0.00051959
cart. step max                      0.00836829     0.00100000    F
cart. step rms                      0.00360843     0.00066667    F
 
 
--------
Geometry
--------
Formula: H4FO4Pa
Atoms
  Index Symbol   x (angstrom)   y (angstrom)   z (angstrom)
      1     Pa     0.34030177    -0.07810261     0.03682699
      2      F     1.12350737     1.39746287    -1.21267986
      3      H    -1.91881249     1.90037267     0.44987427
      4      O    -1.30811169     1.16185550     0.43389103
      5      H     2.58294321    -0.17007888     1.99798596
      6      O     0.17468479    -1.35899033    -1.61827601
      7      H     0.10426129    -1.89183926    -2.41129992
      8      O    -0.39132677    -1.55832719     1.32022328
      9      H    -0.92227299    -2.24364313     1.73054447
     10      O     2.07637954     0.08523421     1.22405074
 
Total System Charge             0.00000
Bonding info available!
 
 *** GO1_GOStep8 ***



 ======================
 RI Hartree-Fock Scheme
 ======================
  
 Fit Set Quality     : GOOD
 Threshold Quality   : GOOD
 Integration Quality : GOOD
 Response Quality    : DEFAULT
 Is Range Separated  :  F
 
 RIHartreeFock Dependency: number of modified vectors:           4
  
 Hartree-Fock exchange energy:   -510.632130898176     

 Energy gradients wrt nuclear displacements
 ==========================================

     Atom      Cartesian (a.u./angstrom)
                 X         Y         Z
 ----------------------------------------
     1 Pa   -0.000173  0.001034 -0.000847
     2 F    -0.000073 -0.000514  0.000356
     3 H     0.000033  0.000136 -0.000151
     4 O     0.000333 -0.000530  0.000344
     5 H     0.000089  0.000252  0.000183
     6 O     0.000211 -0.000035 -0.000021
     7 H    -0.000255 -0.000008 -0.000112
     8 O    -0.000461  0.000449  0.000052
     9 H     0.000332 -0.000487 -0.000037
    10 O    -0.000037 -0.000297  0.000232
 ----------------------------------------
 Mulliken charges used for AMS results%charges...

 dE(predicted):    -0.46492E-05, dE(actual):    -0.38861E-05, Trust radius:    0.200000, all in a.u.
 
----------------------------------------------------------------------
Geometry Convergence after Step   8       (Hartree/Angstrom,Angstrom)
----------------------------------------------------------------------
current energy                               -2.75782845 Hartree
energy change                      -0.00000389     0.00001000    T
constrained gradient max            0.00103183     0.00010000    F
constrained gradient rms            0.00036028     0.00006667    F
gradient max                        0.00103173
gradient rms                        0.00036028
cart. step max                      0.00830165     0.00100000    F
cart. step rms                      0.00315653     0.00066667    F
 
 
--------
Geometry
--------
Formula: H4FO4Pa
Atoms
  Index Symbol   x (angstrom)   y (angstrom)   z (angstrom)
      1     Pa     0.34227810    -0.07806473     0.03513545
      2      F     1.12730244     1.39689048    -1.21730528
      3      H    -1.92181509     1.89487615     0.45537477
      4      O    -1.30724850     1.15974940     0.43440505
      5      H     2.57694289    -0.17288022     1.99994309
      6      O     0.17224445    -1.35944564    -1.61859219
      7      H     0.10633430    -1.89013085    -2.41343165
      8      O    -0.38598528    -1.55804942     1.32021981
      9      H    -0.92560103    -2.23534148     1.73247908
     10      O     2.07710175     0.08634016     1.22291284
 
Total System Charge             0.00000
Bonding info available!
 
 *** GO1_GOStep9 ***



 ======================
 RI Hartree-Fock Scheme
 ======================
  
 Fit Set Quality     : GOOD
 Threshold Quality   : GOOD
 Integration Quality : GOOD
 Response Quality    : DEFAULT
 Is Range Separated  :  F
 
 RIHartreeFock Dependency: number of modified vectors:           4
  
 Hartree-Fock exchange energy:   -510.632205978927     

 Energy gradients wrt nuclear displacements
 ==========================================

     Atom      Cartesian (a.u./angstrom)
                 X         Y         Z
 ----------------------------------------
     1 Pa   -0.000137 -0.000108  0.000074
     2 F     0.000449  0.000352 -0.000437
     3 H     0.000061  0.000121 -0.000140
     4 O     0.000176 -0.000533  0.000430
     5 H     0.000001  0.000257  0.000140
     6 O     0.000138  0.000089  0.000221
     7 H    -0.000206  0.000029 -0.000061
     8 O    -0.000342  0.000537 -0.000130
     9 H     0.000345 -0.000368 -0.000067
    10 O    -0.000484 -0.000377 -0.000029
 ----------------------------------------
 Mulliken charges used for AMS results%charges...

 dE(predicted):    -0.51794E-05, dE(actual):    -0.73633E-05, Trust radius:    0.200000, all in a.u.
 
----------------------------------------------------------------------
Geometry Convergence after Step   9       (Hartree/Angstrom,Angstrom)
----------------------------------------------------------------------
current energy                               -2.75783582 Hartree
energy change                      -0.00000736     0.00001000    T
constrained gradient max            0.00054975     0.00010000    F
constrained gradient rms            0.00027971     0.00006667    F
gradient max                        0.00055019
gradient rms                        0.00027972
cart. step max                      0.01197890     0.00100000    F
cart. step rms                      0.00415759     0.00066667    F
 
 
--------
Geometry
--------
Formula: H4FO4Pa
Atoms
  Index Symbol   x (angstrom)   y (angstrom)   z (angstrom)
      1     Pa     0.34373642    -0.07846950     0.03422222
      2      F     1.12769738     1.39787226    -1.22044744
      3      H    -1.92654682     1.88838687     0.46111316
      4      O    -1.30719653     1.15755191     0.43456206
      5      H     2.57345952    -0.17941701     1.99811051
      6      O     0.17079044    -1.35980372    -1.61872654
      7      H     0.11486128    -1.88799578    -2.41595133
      8      O    -0.38181671    -1.55723111     1.32191345
      9      H    -0.93305513    -2.22336258     1.73690973
     10      O     2.07962418     0.08641252     1.21943514
 
Total System Charge             0.00000
Bonding info available!
 
 *** GO1_GOStep10 ***



 ======================
 RI Hartree-Fock Scheme
 ======================
  
 Fit Set Quality     : GOOD
 Threshold Quality   : GOOD
 Integration Quality : GOOD
 Response Quality    : DEFAULT
 Is Range Separated  :  F
 
 RIHartreeFock Dependency: number of modified vectors:           4
  
 Hartree-Fock exchange energy:   -510.632201589231     

 Energy gradients wrt nuclear displacements
 ==========================================

     Atom      Cartesian (a.u./angstrom)
                 X         Y         Z
 ----------------------------------------
     1 Pa    0.000145 -0.001654  0.001141
     2 F     0.000881  0.001267 -0.001203
     3 H     0.000101  0.000061 -0.000110
     4 O    -0.000128 -0.000269  0.000442
     5 H    -0.000102  0.000229  0.000069
     6 O     0.000012  0.000259  0.000370
     7 H    -0.000106  0.000059  0.000016
     8 O    -0.000284  0.000622 -0.000298
     9 H     0.000358 -0.000220 -0.000114
    10 O    -0.000876 -0.000352 -0.000313
 ----------------------------------------
 Mulliken charges used for AMS results%charges...

 dE(predicted):    -0.61043E-05, dE(actual):    -0.10847E-04, Trust radius:    0.200000, all in a.u.
 
----------------------------------------------------------------------
Geometry Convergence after Step  10       (Hartree/Angstrom,Angstrom)
----------------------------------------------------------------------
current energy                               -2.75784666 Hartree
energy change                      -0.00001085     0.00001000    F
constrained gradient max            0.00165604     0.00010000    F
constrained gradient rms            0.00058335     0.00006667    F
gradient max                        0.00165610
gradient rms                        0.00058336
cart. step max                      0.01770965     0.00100000    F
cart. step rms                      0.00635396     0.00066667    F
 
 
--------
Geometry
--------
Formula: H4FO4Pa
Atoms
  Index Symbol   x (angstrom)   y (angstrom)   z (angstrom)
      1     Pa     0.34485840    -0.07946200     0.03380668
      2      F     1.12492916     1.39977378    -1.22180394
      3      H    -1.93364305     1.87975908     0.46735784
      4      O    -1.30781227     1.15484453     0.43385645
      5      H     2.57184516    -0.19029081     1.99279518
      6      O     0.17014499    -1.36001274    -1.61930818
      7      H     0.12985160    -1.88441044    -2.41993954
      8      O    -0.37781197    -1.55630580     1.32550860
      9      H    -0.94521180    -2.20565293     1.74533061
     10      O     2.08440383     0.08570117     1.21353725
 
Total System Charge             0.00000
Bonding info available!
 
 *** GO1_GOStep11 ***



 ======================
 RI Hartree-Fock Scheme
 ======================
  
 Fit Set Quality     : GOOD
 Threshold Quality   : GOOD
 Integration Quality : GOOD
 Response Quality    : DEFAULT
 Is Range Separated  :  F
 
 RIHartreeFock Dependency: number of modified vectors:           4
  
 Hartree-Fock exchange energy:   -510.632114592436     

 Energy gradients wrt nuclear displacements
 ==========================================

     Atom      Cartesian (a.u./angstrom)
                 X         Y         Z
 ----------------------------------------
     1 Pa    0.000548 -0.003129  0.002030
     2 F     0.001079  0.001950 -0.001695
     3 H     0.000124 -0.000006 -0.000058
     4 O    -0.000450  0.000167  0.000348
     5 H    -0.000183  0.000167  0.000015
     6 O    -0.000164  0.000409  0.000347
     7 H     0.000042  0.000077  0.000108
     8 O    -0.000256  0.000626 -0.000409
     9 H     0.000337 -0.000071 -0.000146
    10 O    -0.001076 -0.000190 -0.000541
 ----------------------------------------
 Mulliken charges used for AMS results%charges...

 dE(predicted):    -0.78725E-05, dE(actual):    -0.17599E-04, Trust radius:    0.200000, all in a.u.
 
----------------------------------------------------------------------
Geometry Convergence after Step  11       (Hartree/Angstrom,Angstrom)
----------------------------------------------------------------------
current energy                               -2.75786426 Hartree
energy change                      -0.00001760     0.00001000    F
constrained gradient max            0.00313022     0.00010000    F
constrained gradient rms            0.00091380     0.00006667    F
gradient max                        0.00313021
gradient rms                        0.00091380
cart. step max                      0.02056842     0.00100000    F
cart. step rms                      0.00774437     0.00066667    F
 
 
--------
Geometry
--------
Formula: H4FO4Pa
Atoms
  Index Symbol   x (angstrom)   y (angstrom)   z (angstrom)
      1     Pa     0.34495344    -0.08003987     0.03393978
      2      F     1.11959204     1.40239849    -1.22035821
      3      H    -1.94271753     1.87060035     0.47229323
      4      O    -1.30982361     1.15224160     0.43212866
      5      H     2.57317810    -0.20487012     1.98410475
      6      O     0.17110704    -1.35984106    -1.62005631
      7      H     0.14877350    -1.88011818    -2.42407934
      8      O    -0.37495569    -1.55496865     1.33032401
      9      H    -0.95912150    -2.18508451     1.75659735
     10      O     2.09056825     0.08362580     1.20624703
 
Total System Charge             0.00000
Bonding info available!
 
 *** GO1_GOStep12 ***



 ======================
 RI Hartree-Fock Scheme
 ======================
  
 Fit Set Quality     : GOOD
 Threshold Quality   : GOOD
 Integration Quality : GOOD
 Response Quality    : DEFAULT
 Is Range Separated  :  F
 
 RIHartreeFock Dependency: number of modified vectors:           4
  
 Hartree-Fock exchange energy:   -510.632012352664     

 Energy gradients wrt nuclear displacements
 ==========================================

     Atom      Cartesian (a.u./angstrom)
                 X         Y         Z
 ----------------------------------------
     1 Pa    0.000796 -0.003534  0.002140
     2 F     0.000879  0.001920 -0.001556
     3 H     0.000123 -0.000054 -0.000002
     4 O    -0.000587  0.000530  0.000164
     5 H    -0.000192  0.000071  0.000001
     6 O    -0.000346  0.000461  0.000180
     7 H     0.000198  0.000049  0.000133
     8 O    -0.000198  0.000517 -0.000399
     9 H     0.000241  0.000012 -0.000112
    10 O    -0.000914  0.000027 -0.000547
 ----------------------------------------
 Mulliken charges used for AMS results%charges...

 dE(predicted):    -0.84492E-05, dE(actual):    -0.24537E-04, Trust radius:    0.200000, all in a.u.
 
----------------------------------------------------------------------
Geometry Convergence after Step  12       (Hartree/Angstrom,Angstrom)
----------------------------------------------------------------------
current energy                               -2.75788880 Hartree
energy change                      -0.00002454     0.00001000    F
constrained gradient max            0.00353494     0.00010000    F
constrained gradient rms            0.00095527     0.00006667    F
gradient max                        0.00353481
gradient rms                        0.00095527
cart. step max                      0.01372329     0.00100000    F
cart. step rms                      0.00574594     0.00066667    F
 
 
--------
Geometry
--------
Formula: H4FO4Pa
Atoms
  Index Symbol   x (angstrom)   y (angstrom)   z (angstrom)
      1     Pa     0.34385118    -0.07909627     0.03466959
      2      F     1.11458371     1.40477138    -1.21669802
      3      H    -1.95030035     1.86525461     0.47351595
      4      O    -1.31285312     1.15108458     0.43024196
      5      H     2.57758526    -0.21693534     1.97552440
      6      O     0.17385502    -1.35940868    -1.61992030
      7      H     0.16249679    -1.87772818    -2.42546943
      8      O    -0.37467320    -1.55314812     1.33418345
      9      H    -0.96841288    -2.17178986     1.76424358
     10      O     2.09542162     0.08093973     1.20084978
 
Total System Charge             0.00000
Bonding info available!
 
 *** GO1_GOStep13 ***



 ======================
 RI Hartree-Fock Scheme
 ======================
  
 Fit Set Quality     : GOOD
 Threshold Quality   : GOOD
 Integration Quality : GOOD
 Response Quality    : DEFAULT
 Is Range Separated  :  F
 
 RIHartreeFock Dependency: number of modified vectors:           4
  
 Hartree-Fock exchange energy:   -510.631984267285     

 Energy gradients wrt nuclear displacements
 ==========================================

     Atom      Cartesian (a.u./angstrom)
                 X         Y         Z
 ----------------------------------------
     1 Pa    0.000662 -0.002288  0.001249
     2 F     0.000363  0.001052 -0.000770
     3 H     0.000082 -0.000036  0.000022
     4 O    -0.000406  0.000517  0.000004
     5 H    -0.000119 -0.000003  0.000016
     6 O    -0.000402  0.000346 -0.000036
     7 H     0.000278 -0.000009  0.000075
     8 O    -0.000173  0.000271 -0.000238
     9 H     0.000132 -0.000003 -0.000046
    10 O    -0.000417  0.000153 -0.000277
 ----------------------------------------
 Mulliken charges used for AMS results%charges...

 dE(predicted):    -0.64899E-05, dE(actual):    -0.21314E-04, Trust radius:    0.200000, all in a.u.
 
----------------------------------------------------------------------
Geometry Convergence after Step  13       (Hartree/Angstrom,Angstrom)
----------------------------------------------------------------------
current energy                               -2.75791011 Hartree
energy change                      -0.00002131     0.00001000    F
constrained gradient max            0.00228923     0.00010000    F
constrained gradient rms            0.00058677     0.00006667    F
gradient max                        0.00228904
gradient rms                        0.00058677
cart. step max                      0.00519765     0.00100000    F
cart. step rms                      0.00220349     0.00066667    F
 
 
--------
Geometry
--------
Formula: H4FO4Pa
Atoms
  Index Symbol   x (angstrom)   y (angstrom)   z (angstrom)
      1     Pa     0.34348732    -0.07752608     0.03480018
      2      F     1.11400286     1.40538776    -1.21436186
      3      H    -1.95446548     1.86249381     0.47310482
      4      O    -1.31472159     1.15038044     0.42888956
      5      H     2.57986446    -0.22209762     1.97245214
      6      O     0.17608765    -1.35911977    -1.61958693
      7      H     0.16494085    -1.87678806    -2.42557458
      8      O    -0.37402961    -1.55195165     1.33546375
      9      H    -0.97123101    -2.16659220     1.76661658
     10      O     2.09761858     0.07975721     1.19933729
 
Total System Charge             0.00000
Bonding info available!
 
 *** GO1_GOStep14 ***



 ======================
 RI Hartree-Fock Scheme
 ======================
  
 Fit Set Quality     : GOOD
 Threshold Quality   : GOOD
 Integration Quality : GOOD
 Response Quality    : DEFAULT
 Is Range Separated  :  F
 
 RIHartreeFock Dependency: number of modified vectors:           4
  
 Hartree-Fock exchange energy:   -510.632075171402     

 Energy gradients wrt nuclear displacements
 ==========================================

     Atom      Cartesian (a.u./angstrom)
                 X         Y         Z
 ----------------------------------------
     1 Pa    0.000298 -0.000500  0.000168
     2 F    -0.000051  0.000087  0.000012
     3 H     0.000039  0.000013  0.000014
     4 O    -0.000088  0.000203 -0.000039
     5 H    -0.000043 -0.000016  0.000043
     6 O    -0.000350  0.000132 -0.000175
     7 H     0.000257 -0.000033  0.000014
     8 O    -0.000146  0.000036 -0.000085
     9 H     0.000055 -0.000052  0.000015
    10 O     0.000027  0.000131  0.000033
 ----------------------------------------
 Mulliken charges used for AMS results%charges...

 dE(predicted):    -0.33085E-05, dE(actual):    -0.94876E-05, Trust radius:    0.200000, all in a.u.
 
----------------------------------------------------------------------
Geometry Convergence after Step  14       (Hartree/Angstrom,Angstrom)
----------------------------------------------------------------------
current energy                               -2.75791960 Hartree
energy change                      -0.00000949     0.00001000    T
constrained gradient max            0.00050122     0.00010000    F
constrained gradient rms            0.00015464     0.00006667    F
gradient max                        0.00050105
gradient rms                        0.00015464
cart. step max                      0.00218572     0.00100000    F
cart. step rms                      0.00100464     0.00066667    F
 
 
--------
Geometry
--------
Formula: H4FO4Pa
Atoms
  Index Symbol   x (angstrom)   y (angstrom)   z (angstrom)
      1     Pa     0.34378776    -0.07625662     0.03462477
      2      F     1.11534876     1.40579124    -1.21374896
      3      H    -1.95665120     1.86071680     0.47273800
      4      O    -1.31568325     1.14969353     0.42823068
      5      H     2.58034343    -0.22400981     1.97204598
      6      O     0.17762374    -1.35901081    -1.61909689
      7      H     0.16312265    -1.87655205    -2.42511365
      8      O    -0.37316942    -1.55105202     1.33549402
      9      H    -0.97148464    -2.16465982     1.76661738
     10      O     2.09831620     0.07928341     1.19934963
 
Total System Charge             0.00000
Bonding info available!
 
 *** GO1_GOStep15 ***



 ======================
 RI Hartree-Fock Scheme
 ======================
  
 Fit Set Quality     : GOOD
 Threshold Quality   : GOOD
 Integration Quality : GOOD
 Response Quality    : DEFAULT
 Is Range Separated  :  F
 
 RIHartreeFock Dependency: number of modified vectors:           4
  
 Hartree-Fock exchange energy:   -510.632180881299     

 Energy gradients wrt nuclear displacements
 ==========================================

     Atom      Cartesian (a.u./angstrom)
                 X         Y         Z
 ----------------------------------------
     1 Pa    0.000066  0.000385 -0.000300
     2 F    -0.000148 -0.000296  0.000285
     3 H     0.000021  0.000040 -0.000001
     4 O     0.000080 -0.000047 -0.000006
     5 H    -0.000013 -0.000011  0.000053
     6 O    -0.000278  0.000016 -0.000165
     7 H     0.000211 -0.000028 -0.000015
     8 O    -0.000120 -0.000051 -0.000037
     9 H     0.000030 -0.000069  0.000037
    10 O     0.000152  0.000062  0.000150
 ----------------------------------------
 Mulliken charges used for AMS results%charges...

 dE(predicted):    -0.10410E-05, dE(actual):    -0.20434E-05, Trust radius:    0.200000, all in a.u.
 
----------------------------------------------------------------------
Geometry Convergence after Step  15       (Hartree/Angstrom,Angstrom)
----------------------------------------------------------------------
current energy                               -2.75792165 Hartree
energy change                      -0.00000204     0.00001000    T
constrained gradient max            0.00038360     0.00010000    F
constrained gradient rms            0.00014888     0.00006667    F
gradient max                        0.00038373
gradient rms                        0.00014888
cart. step max                      0.00249275     0.00100000    F
cart. step rms                      0.00123366     0.00066667    F
 
 
--------
Geometry
--------
Formula: H4FO4Pa
Atoms
  Index Symbol   x (angstrom)   y (angstrom)   z (angstrom)
      1     Pa     0.34438047    -0.07503600     0.03457692
      2      F     1.11672616     1.40687372    -1.21323504
      3      H    -1.95914395     1.85845506     0.47223946
      4      O    -1.31674064     1.14873145     0.42747680
      5      H     2.58097021    -0.22631842     1.97145269
      6      O     0.17974781    -1.35891862    -1.61833549
      7      H     0.16083354    -1.87627176    -2.42437251
      8      O    -0.37229740    -1.54990554     1.33560414
      9      H    -0.97206943    -2.16228203     1.76646273
     10      O     2.09914727     0.07861599     1.19927125
 
Total System Charge             0.00000
Bonding info available!
 
 *** GO1_GOStep16 ***



 ======================
 RI Hartree-Fock Scheme
 ======================
  
 Fit Set Quality     : GOOD
 Threshold Quality   : GOOD
 Integration Quality : GOOD
 Response Quality    : DEFAULT
 Is Range Separated  :  F
 
 RIHartreeFock Dependency: number of modified vectors:           4
  
 Hartree-Fock exchange energy:   -510.632284022771     

 Energy gradients wrt nuclear displacements
 ==========================================

     Atom      Cartesian (a.u./angstrom)
                 X         Y         Z
 ----------------------------------------
     1 Pa   -0.000069  0.000802 -0.000474
     2 F    -0.000131 -0.000418  0.000344
     3 H     0.000009  0.000048 -0.000014
     4 O     0.000154 -0.000216  0.000041
     5 H    -0.000002 -0.000011  0.000050
     6 O    -0.000192 -0.000052 -0.000100
     7 H     0.000153 -0.000009 -0.000029
     8 O    -0.000097 -0.000075 -0.000033
     9 H     0.000022 -0.000065  0.000039
    10 O     0.000153 -0.000003  0.000177
 ----------------------------------------
 Mulliken charges used for AMS results%charges...

 dE(predicted):    -0.77202E-06, dE(actual):    -0.18113E-05, Trust radius:    0.200000, all in a.u.
 
----------------------------------------------------------------------
Geometry Convergence after Step  16       (Hartree/Angstrom,Angstrom)
----------------------------------------------------------------------
current energy                               -2.75792346 Hartree
energy change                      -0.00000181     0.00001000    T
constrained gradient max            0.00080019     0.00010000    F
constrained gradient rms            0.00021621     0.00006667    F
gradient max                        0.00080029
gradient rms                        0.00021621
cart. step max                      0.00333905     0.00100000    F
cart. step rms                      0.00161980     0.00066667    F
 
 
--------
Geometry
--------
Formula: H4FO4Pa
Atoms
  Index Symbol   x (angstrom)   y (angstrom)   z (angstrom)
      1     Pa     0.34517773    -0.07402985     0.03486294
      2      F     1.11742867     1.40882070    -1.21226727
      3      H    -1.96217749     1.85557695     0.47133680
      4      O    -1.31798621     1.14749276     0.42636572
      5      H     2.58233796    -0.22951721     1.97008997
      6      O     0.18280060    -1.35880159    -1.61736089
      7      H     0.15873488    -1.87570918    -2.42353044
      8      O    -0.37158213    -1.54856478     1.33620010
      9      H    -0.97367482    -2.15894298     1.76665284
     10      O     2.10049486     0.07761902     1.19879120
 
Total System Charge             0.00000
Bonding info available!
 
 *** GO1_GOStep17 ***



 ======================
 RI Hartree-Fock Scheme
 ======================
  
 Fit Set Quality     : GOOD
 Threshold Quality   : GOOD
 Integration Quality : GOOD
 Response Quality    : DEFAULT
 Is Range Separated  :  F
 
 RIHartreeFock Dependency: number of modified vectors:           4
  
 Hartree-Fock exchange energy:   -510.632348367236     

 Energy gradients wrt nuclear displacements
 ==========================================

     Atom      Cartesian (a.u./angstrom)
                 X         Y         Z
 ----------------------------------------
     1 Pa   -0.000096  0.000781 -0.000410
     2 F    -0.000057 -0.000340  0.000261
     3 H    -0.000002  0.000037 -0.000024
     4 O     0.000137 -0.000259  0.000077
     5 H    -0.000009 -0.000020  0.000033
     6 O    -0.000085 -0.000075 -0.000016
     7 H     0.000085  0.000019 -0.000031
     8 O    -0.000079 -0.000059 -0.000049
     9 H     0.000022 -0.000043  0.000025
    10 O     0.000083 -0.000041  0.000135
 ----------------------------------------
 Mulliken charges used for AMS results%charges...
 
----------------------------------------------------------------------
Geometry Convergence after Step  17       (Hartree/Angstrom,Angstrom)
----------------------------------------------------------------------
current energy                               -2.75792411 Hartree
energy change                      -0.00000066     0.00001000    T
constrained gradient max            0.00077941     0.00010000    F
constrained gradient rms            0.00019366     0.00006667    F
gradient max                        0.00077945
gradient rms                        0.00019366
cart. step max                      0.00266572     0.00100000    F
cart. step rms                      0.00133660     0.00066667    F
 
 
--------
Geometry
--------
Formula: H4FO4Pa
Atoms
  Index Symbol   x (angstrom)   y (angstrom)   z (angstrom)
      1     Pa     0.34582823    -0.07380335     0.03540158
      2      F     1.11703252     1.41066662    -1.21110409
      3      H    -1.96426011     1.85343727     0.47026415
      4      O    -1.31876855     1.14655832     0.42527760
      5      H     2.58390694    -0.23193681     1.96869819
      6      O     0.18545280    -1.35870121    -1.61670566
      7      H     0.15746899    -1.87502390    -2.42311012
      8      O    -0.37130528    -1.54778807     1.33708691
      9      H    -0.97560003    -2.15627725     1.76712914
     10      O     2.10179854     0.07681223     1.19820325
 
Total System Charge             0.00000
Bonding info available!
 
 *** GO1_GOStep18 ***



 ======================
 RI Hartree-Fock Scheme
 ======================
  
 Fit Set Quality     : GOOD
 Threshold Quality   : GOOD
 Integration Quality : GOOD
 Response Quality    : DEFAULT
 Is Range Separated  :  F
 
 RIHartreeFock Dependency: number of modified vectors:           4
  
 Hartree-Fock exchange energy:   -510.632335311962     

 Energy gradients wrt nuclear displacements
 ==========================================

     Atom      Cartesian (a.u./angstrom)
                 X         Y         Z
 ----------------------------------------
     1 Pa   -0.000027  0.000373 -0.000170
     2 F     0.000013 -0.000135  0.000107
     3 H    -0.000006  0.000009 -0.000026
     4 O     0.000048 -0.000145  0.000074
     5 H    -0.000024 -0.000034  0.000019
     6 O    -0.000001 -0.000045  0.000036
     7 H     0.000032  0.000039 -0.000028
     8 O    -0.000063 -0.000012 -0.000073
     9 H     0.000023 -0.000021  0.000005
    10 O     0.000006 -0.000028  0.000056
 ----------------------------------------
 Mulliken charges used for AMS results%charges...

 dE(predicted):    -0.48199E-06, dE(actual):    -0.10843E-05, Trust radius:    0.200000, all in a.u.
 
----------------------------------------------------------------------
Geometry Convergence after Step  18       (Hartree/Angstrom,Angstrom)
----------------------------------------------------------------------
current energy                               -2.75792520 Hartree
energy change                      -0.00000108     0.00001000    T
constrained gradient max            0.00037188     0.00010000    F
constrained gradient rms            0.00009032     0.00006667    F
gradient max                        0.00037189
gradient rms                        0.00009032
cart. step max                      0.00109752     0.00100000    F
cart. step rms                      0.00053036     0.00066667    T
 
 
--------
Geometry
--------
Formula: H4FO4Pa
Atoms
  Index Symbol   x (angstrom)   y (angstrom)   z (angstrom)
      1     Pa     0.34601472    -0.07416228     0.03577287
      2      F     1.11622990     1.41137157    -1.21041497
      3      H    -1.96464694     1.85289063     0.46970094
      4      O    -1.31883582     1.14631278     0.42477540
      5      H     2.58473464    -0.23251484     1.96808979
      6      O     0.18639990    -1.35865954    -1.61665480
      7      H     0.15735988    -1.87462938    -2.42324305
      8      O    -0.37137603    -1.54781318     1.33768875
      9      H    -0.97669755    -2.15542285     1.76754294
     10      O     2.10237134     0.07657093     1.19788308
 
Total System Charge             0.00000
Bonding info available!
 
 *** GO1_GOStep19 ***



 ======================
 RI Hartree-Fock Scheme
 ======================
  
 Fit Set Quality     : GOOD
 Threshold Quality   : GOOD
 Integration Quality : GOOD
 Response Quality    : DEFAULT
 Is Range Separated  :  F
 
 RIHartreeFock Dependency: number of modified vectors:           4
  
 Hartree-Fock exchange energy:   -510.632277287103     

 Energy gradients wrt nuclear displacements
 ==========================================

     Atom      Cartesian (a.u./angstrom)
                 X         Y         Z
 ----------------------------------------
     1 Pa    0.000031  0.000032 -0.000002
     2 F     0.000028 -0.000002  0.000025
     3 H    -0.000008 -0.000008 -0.000022
     4 O    -0.000012 -0.000016  0.000045
     5 H    -0.000031 -0.000043  0.000018
     6 O     0.000026 -0.000012  0.000025
     7 H     0.000017  0.000044 -0.000023
     8 O    -0.000054  0.000014 -0.000077
     9 H     0.000018 -0.000015 -0.000005
    10 O    -0.000014  0.000006  0.000013
 ----------------------------------------
 Mulliken charges used for AMS results%charges...
 
---------------------------------------------------------
Geometry Convergence after Step  19       ** CONVERGED **
---------------------------------------------------------
current energy                               -2.75792566 Hartree
energy change                      -0.00000046     0.00001000    T
constrained gradient max            0.00005889     0.00010000    T
constrained gradient rms            0.00002358     0.00006667    T
gradient max                        0.00005889
gradient rms                        0.00002358
cart. step max                      0.00036868     0.00100000    T
cart. step rms                      0.00016678     0.00066667    T
 
Geometry optimization converged

Optimized geometry:
 
--------
Geometry
--------
Formula: H4FO4Pa
Atoms
  Index Symbol   x (angstrom)   y (angstrom)   z (angstrom)
      1     Pa     0.34601472    -0.07416228     0.03577287
      2      F     1.11622990     1.41137157    -1.21041497
      3      H    -1.96464694     1.85289063     0.46970094
      4      O    -1.31883582     1.14631278     0.42477540
      5      H     2.58473464    -0.23251484     1.96808979
      6      O     0.18639990    -1.35865954    -1.61665480
      7      H     0.15735988    -1.87462938    -2.42324305
      8      O    -0.37137603    -1.54781318     1.33768875
      9      H    -0.97669755    -2.15542285     1.76754294
     10      O     2.10237134     0.07657093     1.19788308
 
Total System Charge             0.00000
Bonding info available!
 
Performing a single point calculation on the final geometry ...

 *** adf ***



 ===========================
 A T T A C H E D   F I L E S
 ===========================
  
 Restart
 /state/partition2/shaaban/925635.phlam-s-sakura/amstmp_ams_kid0.341670352/GO1_G
 OStep19.rkf*** GO1_GOStep19 ***



 ===============================
 M O D E L   P A R A M E T E R S
 ===============================
  
 DENSITY FUNCTIONAL POTENTIAL (scf)
    Hybrid:                            B3LYP                                   == Not Default ==

 SPIN  (restricted / unrestr.)
    Molecule:                          Restricted                               
    Fragments:                         Restricted                               

 OTHER ASPECTS
    Relativistic Corrections:          scalar (ZORA,MAPA)                       

    Nuclear Charge Density Model:      Point Charge Nuclei                      
    Core Treatment:                    Frozen Orbital(s)                        

    Hyperfine or Zeeman Interaction:   ---                                      



 ===============
 G E O M E T R Y  ***  3D  Molecule  ***
 ===============
  

 ATOMS
 =====                            X Y Z                    CHARGE
                                (Angstrom)             Nucl     +Core       At.Mass
                       --------------------------    ----------------       -------
    1  Pa              0.3460   -0.0742    0.0358     91.00     91.00      231.0359
    2  F               1.1162    1.4114   -1.2104      9.00      9.00       18.9984
    3  H              -1.9646    1.8529    0.4697      1.00      1.00        1.0078
    4  O              -1.3188    1.1463    0.4248      8.00      8.00       15.9949
    5  H               2.5847   -0.2325    1.9681      1.00      1.00        1.0078
    6  O               0.1864   -1.3587   -1.6167      8.00      8.00       15.9949
    7  H               0.1574   -1.8746   -2.4232      1.00      1.00        1.0078
    8  O              -0.3714   -1.5478    1.3377      8.00      8.00       15.9949
    9  H              -0.9767   -2.1554    1.7675      1.00      1.00        1.0078
   10  O               2.1024    0.0766    1.1979      8.00      8.00       15.9949


 FRAGMENTS
 =========                                     Atoms in this Fragment     Cart. coord.s (Angstrom)
                                               -------------------------------------------------------
    1  Pa                                                1  Pa           0.3460   -0.0742    0.0358
    2  F                                                 2  F            1.1162    1.4114   -1.2104
    3  H                                                 3  H           -1.9646    1.8529    0.4697
    4  H                                                 5  H            2.5847   -0.2325    1.9681
    5  H                                                 7  H            0.1574   -1.8746   -2.4232
    6  H                                                 9  H           -0.9767   -2.1554    1.7675
    7  O                                                 4  O           -1.3188    1.1463    0.4248
    8  O                                                 6  O            0.1864   -1.3587   -1.6167
    9  O                                                 8  O           -0.3714   -1.5478    1.3377
   10  O                                                10  O            2.1024    0.0766    1.1979


 Interatomic Distance Matrix (Angstrom)
 --------------------------------------

   1)     0.000
   2)     2.086   0.000
   3)     3.040   3.537   0.000
   4)     2.101   2.945   0.958   0.000
   5)     2.962   3.868   5.224   4.418   0.000
   6)     2.099   2.950   4.392   3.565   4.458   0.000
   7)     3.054   3.632   5.174   4.406   5.279   0.958   0.000
   8)     2.093   4.179   3.854   2.998   3.296   3.012   3.812   0.000
   9)     3.013   5.096   4.327   3.581   4.052   3.666   4.351   0.959   0.000
  10)     2.111   2.925   4.497   3.667   0.960   3.695   4.550   2.963   3.845   0.000

 Min. Distance =    0.9579
 Max. Distance =    5.2794



 =====================================
 S Y M M E T R Y ,   E L E C T R O N S
 =====================================
  
 Symmetry: NOSYM

 Irreducible Representations, including subspecies
 -------------------------------------------------
 A

 Symmetry is NOT used when fitting density


 Configuration of Valence Electrons
 ==================================
 ( determined in the SCF procedure )

 Total:   136

 Net Charge: 0 (Nuclei minus Electrons)

 Aufbau principle for MO occupations will be applied through SCF cycle no.     150
 Thereafter, the program will assign electrons to MOs that are spatially
 similar to the occupied MOs in a "reference" cycle ("KeepOrbitals").
 The reference cycle is always the PREVIOUS cycle: it will evolve with
 the SCF procedure.
1
 ***************************************************************************************************



                                      ****************************************
                                      *  B U I L D : (Fragments, Functions)  *
                                      ****************************************
  



 =======
 S F O s  ***  (Symmetrized Fragment Orbitals)  ***
 =======
  
 SFOs are linear combinations of (valence) Fragment Orbitals (FOs), such that the SFOs transform as the
 irreducible representations of the (molecular) symmetry group. Each SFO is therefore characterized by
 an irrep of the molecule and by a few (or only one) generating FOs.
 The SFOs constitute a symmetry-adapted basis for the Fock matrix. The MO eigenvector coefficients in
 this basis provide a direct interpretation of the MOs in terms of Frontier Orbital Theory.

 The SFOs are combined with auxiliary Core Functions (CFs) to ensure orthogonalization on the (frozen)
 Core Orbitals (COs). The Core-orthogonalized SFOs (CSFOs) constitute the true Fock basis.

 The FOs, and hence also the (C)SFOs are combinations of the elementary basis functions (BAS). The basis
 functions that participate in the description of the SFOs depend on the irrep. The indices of the
 involved functions are printed below for each irrep.
 (The complete list of primitive basis functions is printed in another section)

 Total nr. of (C)SFOs (summation over all irreps) :   309

 NOTE: a (C)SFO that is defined as a combination of more than one FO is usually NOT normalized.



                                       === A ===
 Nr. of SFOs :  309
 Cartesian basis functions that participate in this irrep (total number =   357) :
      1     2     3     4     5     6     7     8     9    10
     11    12    13    14    15    16    17    20    23    26
     29    32    35    38    41    44    47    50   157    18
     21    24    27    30    33    36    39    42    45    48
     51   158    19    22    25    28    31    34    37    40
     43    46    49    52   159    53    59    65    71    77
     83    89    95   101    54    60    66    72    78    84
     90    96   102    55    61    67    73    79    85    91
     97   103    56    62    68    74    80    86    92    98
    104    57    63    69    75    81    87    93    99   105
     58    64    70    76    82    88    94   100   106   107
    117   127   137   147   108   118   128   138   148   109
    119   129   139   149   110   120   130   140   150   111
    121   131   141   151   112   122   132   142   152   113
    123   133   143   153   114   124   134   144   154   115
    125   135   145   155   116   126   136   146   156   160
    161   162   163   164   165   168   171   166   169   172
    167   170   173   174   175   176   177   178   179   180
    181   182   183   184   185   186   187   188   189   190
    191   192   193   194   195   196   197   198   199   200
    201   202   203   204   205   206   207   208   209   210
    211   212   213   214   215   216   217   218   219   220
    221   222   223   224   225   226   227   228   229   230
    231   232   233   234   235   236   237   238   239   240
    241   242   243   246   249   244   247   250   245   248
    251   252   253   254   255   256   257   258   259   260
    261   262   263   264   265   266   267   268   269   270
    271   272   273   276   279   274   277   280   275   278
    281   282   283   284   285   286   287   288   289   290
    291   292   293   294   295   296   297   298   299   300
    301   302   303   306   309   304   307   310   305   308
    311   312   313   314   315   316   317   318   319   320
    321   322   323   324   325   326   327   328   329   330
    331   332   333   336   339   334   337   340   335   338
    341   342   343   344   345   346   347   348   349   350
    351   352   353   354   355   356   357

    SFO  (index         Fragment          Generating    Expansion in Fragment Orbitals
  indx  incl.CFs)   Occup   Orb.Energy   FragmentType  Coeff.   Orbital     on Fragment
 --------------------------------------------------------------------------------------
     1       1      2.000   -4140.144 au  Pa            1.00      1 S               1
                        ( -112659.040 eV)
     2       2      2.000    -772.390 au  Pa            1.00      2 S               1
                        (  -21017.794 eV)
     3       3      2.000    -195.003 au  Pa            1.00      3 S               1
                        (   -5306.298 eV)
     4       4      2.000     -49.664 au  Pa            1.00      4 S               1
                        (   -1351.436 eV)
     5       5      2.000     -11.057 au  Pa            1.00      5 S               1
                        (    -300.888 eV)
     6       6      2.000      -1.766 au  Pa            1.00      6 S               1
                        (     -48.049 eV)
     7       7      2.000      -0.167 au  Pa            1.00      7 S               1
                        (      -4.550 eV)
     8       8       --         0.031 au  Pa            1.00      8 S               1
                        (       0.841 eV)
     9       9       --         0.336 au  Pa            1.00      9 S               1
                        (       9.133 eV)
    10      10       --         1.674 au  Pa            1.00     10 S               1
                        (      45.549 eV)
    11      11       --         8.680 au  Pa            1.00     11 S               1
                        (     236.196 eV)
    12      12       --        46.308 au  Pa            1.00     12 S               1
                        (    1260.118 eV)
    13      13       --      1052.293 au  Pa            1.00     13 S               1
                        (   28634.347 eV)
    14      14       --      5423.866 au  Pa            1.00     14 S               1
                        (  147590.910 eV)
    15      15       --     16326.809 au  Pa            1.00     15 S               1
                        (  444275.078 eV)
    16      16       --     46434.731 au  Pa            1.00     16 S               1
                        ( 1263553.308 eV)
    17      17      2.000    -644.804 au  Pa            1.00      1 P:x             1
                        (  -17546.004 eV)
    18      18      2.000    -159.382 au  Pa            1.00      2 P:x             1
                        (   -4336.995 eV)
    19      19      2.000     -38.001 au  Pa            1.00      3 P:x             1
                        (   -1034.059 eV)
    20      20      2.000      -7.452 au  Pa            1.00      4 P:x             1
                        (    -202.774 eV)
    21      21      2.000      -0.880 au  Pa            1.00      5 P:x             1
                        (     -23.949 eV)
    22      22       --        -0.008 au  Pa            1.00      6 P:x             1
                        (      -0.215 eV)
    23      23       --         0.404 au  Pa            1.00      7 P:x             1
                        (      10.994 eV)
    24      24       --         1.850 au  Pa            1.00      8 P:x             1
                        (      50.342 eV)
    25      25       --         7.570 au  Pa            1.00      9 P:x             1
                        (     205.994 eV)
    26      26       --        35.931 au  Pa            1.00     10 P:x             1
                        (     977.731 eV)
    27      27       --       178.469 au  Pa            1.00     11 P:x             1
                        (    4856.387 eV)
    28      28       --      1509.400 au  Pa            1.00     12 P:x             1
                        (   41072.871 eV)
    29      29       --     10783.504 au  Pa            1.00     13 P:x             1
                        (  293434.082 eV)
    30      30      2.000    -644.804 au  Pa            1.00      1 P:y             1
                        (  -17546.004 eV)
    31      31      2.000    -159.382 au  Pa            1.00      2 P:y             1
                        (   -4336.995 eV)
    32      32      2.000     -38.001 au  Pa            1.00      3 P:y             1
                        (   -1034.059 eV)
    33      33      2.000      -7.452 au  Pa            1.00      4 P:y             1
                        (    -202.774 eV)
    34      34      2.000      -0.880 au  Pa            1.00      5 P:y             1
                        (     -23.949 eV)
    35      35       --        -0.008 au  Pa            1.00      6 P:y             1
                        (      -0.215 eV)
    36      36       --         0.404 au  Pa            1.00      7 P:y             1
                        (      10.994 eV)
    37      37       --         1.850 au  Pa            1.00      8 P:y             1
                        (      50.342 eV)
    38      38       --         7.570 au  Pa            1.00      9 P:y             1
                        (     205.994 eV)
    39      39       --        35.931 au  Pa            1.00     10 P:y             1
                        (     977.731 eV)
    40      40       --       178.469 au  Pa            1.00     11 P:y             1
                        (    4856.387 eV)
    41      41       --      1509.400 au  Pa            1.00     12 P:y             1
                        (   41072.871 eV)
    42      42       --     10783.504 au  Pa            1.00     13 P:y             1
                        (  293434.082 eV)
    43      43      2.000    -644.804 au  Pa            1.00      1 P:z             1
                        (  -17546.004 eV)
    44      44      2.000    -159.382 au  Pa            1.00      2 P:z             1
                        (   -4336.995 eV)
    45      45      2.000     -38.001 au  Pa            1.00      3 P:z             1
                        (   -1034.059 eV)
    46      46      2.000      -7.452 au  Pa            1.00      4 P:z             1
                        (    -202.774 eV)
    47      47      2.000      -0.880 au  Pa            1.00      5 P:z             1
                        (     -23.949 eV)
    48      48       --        -0.008 au  Pa            1.00      6 P:z             1
                        (      -0.215 eV)
    49      49       --         0.404 au  Pa            1.00      7 P:z             1
                        (      10.994 eV)
    50      50       --         1.850 au  Pa            1.00      8 P:z             1
                        (      50.342 eV)
    51      51       --         7.570 au  Pa            1.00      9 P:z             1
                        (     205.994 eV)
    52      52       --        35.931 au  Pa            1.00     10 P:z             1
                        (     977.731 eV)
    53      53       --       178.469 au  Pa            1.00     11 P:z             1
                        (    4856.387 eV)
    54      54       --      1509.400 au  Pa            1.00     12 P:z             1
                        (   41072.871 eV)
    55      55       --     10783.504 au  Pa            1.00     13 P:z             1
                        (  293434.082 eV)
    56      56      2.000    -127.750 au  Pa            1.00      1 D:z2            1
                        (   -3476.261 eV)
    57      57      2.000     -25.974 au  Pa            1.00      2 D:z2            1
                        (    -706.779 eV)
    58      58      2.000      -3.548 au  Pa            1.00      3 D:z2            1
                        (     -96.540 eV)
    59      59      0.200      -0.066 au  Pa            1.00      4 D:z2            1
                        (      -1.808 eV)
    60      60       --         0.084 au  Pa            1.00      5 D:z2            1
                        (       2.281 eV)
    61      61       --         0.569 au  Pa            1.00      6 D:z2            1
                        (      15.477 eV)
    62      62       --         3.594 au  Pa            1.00      7 D:z2            1
                        (      97.805 eV)
    63      63       --        24.986 au  Pa            1.00      8 D:z2            1
                        (     679.903 eV)
    64      64       --       204.782 au  Pa            1.00      9 D:z2            1
                        (    5572.393 eV)
    65      65      2.000    -127.750 au  Pa            1.00      1 D:x2-y2         1
                        (   -3476.261 eV)
    66      66      2.000     -25.974 au  Pa            1.00      2 D:x2-y2         1
                        (    -706.779 eV)
    67      67      2.000      -3.548 au  Pa            1.00      3 D:x2-y2         1
                        (     -96.540 eV)
    68      68      0.200      -0.066 au  Pa            1.00      4 D:x2-y2         1
                        (      -1.808 eV)
    69      69       --         0.084 au  Pa            1.00      5 D:x2-y2         1
                        (       2.281 eV)
    70      70       --         0.569 au  Pa            1.00      6 D:x2-y2         1
                        (      15.477 eV)
    71      71       --         3.594 au  Pa            1.00      7 D:x2-y2         1
                        (      97.805 eV)
    72      72       --        24.986 au  Pa            1.00      8 D:x2-y2         1
                        (     679.903 eV)
    73      73       --       204.782 au  Pa            1.00      9 D:x2-y2         1
                        (    5572.393 eV)
    74      74      2.000    -127.750 au  Pa            1.00      1 D:xy            1
                        (   -3476.261 eV)
    75      75      2.000     -25.974 au  Pa            1.00      2 D:xy            1
                        (    -706.779 eV)
    76      76      2.000      -3.548 au  Pa            1.00      3 D:xy            1
                        (     -96.540 eV)
    77      77      0.200      -0.066 au  Pa            1.00      4 D:xy            1
                        (      -1.808 eV)
    78      78       --         0.084 au  Pa            1.00      5 D:xy            1
                        (       2.281 eV)
    79      79       --         0.569 au  Pa            1.00      6 D:xy            1
                        (      15.477 eV)
    80      80       --         3.594 au  Pa            1.00      7 D:xy            1
                        (      97.805 eV)
    81      81       --        24.986 au  Pa            1.00      8 D:xy            1
                        (     679.903 eV)
    82      82       --       204.782 au  Pa            1.00      9 D:xy            1
                        (    5572.393 eV)
    83      83      2.000    -127.750 au  Pa            1.00      1 D:xz            1
                        (   -3476.261 eV)
    84      84      2.000     -25.974 au  Pa            1.00      2 D:xz            1
                        (    -706.779 eV)
    85      85      2.000      -3.548 au  Pa            1.00      3 D:xz            1
                        (     -96.540 eV)
    86      86      0.200      -0.066 au  Pa            1.00      4 D:xz            1
                        (      -1.808 eV)
    87      87       --         0.084 au  Pa            1.00      5 D:xz            1
                        (       2.281 eV)
    88      88       --         0.569 au  Pa            1.00      6 D:xz            1
                        (      15.477 eV)
    89      89       --         3.594 au  Pa            1.00      7 D:xz            1
                        (      97.805 eV)
    90      90       --        24.986 au  Pa            1.00      8 D:xz            1
                        (     679.903 eV)
    91      91       --       204.782 au  Pa            1.00      9 D:xz            1
                        (    5572.393 eV)
    92      92      2.000    -127.750 au  Pa            1.00      1 D:yz            1
                        (   -3476.261 eV)
    93      93      2.000     -25.974 au  Pa            1.00      2 D:yz            1
                        (    -706.779 eV)
    94      94      2.000      -3.548 au  Pa            1.00      3 D:yz            1
                        (     -96.540 eV)
    95      95      0.200      -0.066 au  Pa            1.00      4 D:yz            1
                        (      -1.808 eV)
    96      96       --         0.084 au  Pa            1.00      5 D:yz            1
                        (       2.281 eV)
    97      97       --         0.569 au  Pa            1.00      6 D:yz            1
                        (      15.477 eV)
    98      98       --         3.594 au  Pa            1.00      7 D:yz            1
                        (      97.805 eV)
    99      99       --        24.986 au  Pa            1.00      8 D:yz            1
                        (     679.903 eV)
   100     100       --       204.782 au  Pa            1.00      9 D:yz            1
                        (    5572.393 eV)
   101     101      2.000     -13.085 au  Pa            1.00      1 F:z3            1
                        (    -356.050 eV)
   102     102      0.286      -0.042 au  Pa            1.00      2 F:z3            1
                        (      -1.139 eV)
   103     103       --         0.419 au  Pa            1.00      3 F:z3            1
                        (      11.400 eV)
   104     104       --         2.553 au  Pa            1.00      4 F:z3            1
                        (      69.470 eV)
   105     105       --        21.603 au  Pa            1.00      5 F:z3            1
                        (     587.835 eV)
   106     106      2.000     -13.085 au  Pa            1.00      1 F:z             1
                        (    -356.050 eV)
[...]
     1    Pa      -0.003534   0.006282   0.004087
     2     F       0.058784  -0.069389  -0.046705
     3     H      -0.316145  -0.314254   0.362006
     4     O       0.006697   0.008296  -0.025964
     5     H      -0.089095  -0.014177   0.056309
     6     O      -0.051484  -0.008866   0.013381
     7     H       0.171737   0.542697  -0.348707
     8     O       0.041331  -0.020185   0.000569
     9     H       0.165562  -0.323381  -0.253209
    10     O      -0.011038   0.019305   0.020026
 
 Mode:     8      Frequency (cm-1):       62.9230     Intensity (km/mol):      144.5533
 Index  Atom      ---- Displacements (x/y/z) ----
     1    Pa       0.004250  -0.006588   0.011176
     2     F      -0.050517   0.021280   0.008031
     3     H       0.240713   0.267384  -0.496902
     4     O      -0.040669  -0.018898  -0.078560
     5     H       0.100911   0.020921  -0.069781
     6     O      -0.015066   0.021176  -0.015646
     7     H       0.181905   0.594898  -0.390876
     8     O      -0.016681   0.027765   0.044275
     9     H      -0.172970   0.072251  -0.110359
    10     O       0.048937  -0.020358  -0.053751
 
 Mode:     9      Frequency (cm-1):       69.3281     Intensity (km/mol):       31.7596
 Index  Atom      ---- Displacements (x/y/z) ----
     1    Pa      -0.007684   0.019668   0.002582
     2     F       0.037761   0.054688   0.076238
     3     H      -0.503122  -0.475562   0.257355
     4     O      -0.109501  -0.088383  -0.139587
     5     H       0.014802  -0.428726  -0.158513
     6     O       0.068135  -0.042079   0.052716
     7     H       0.087159  -0.220646   0.166937
     8     O       0.013731   0.073125   0.079904
     9     H       0.034058   0.039643   0.061607
    10     O       0.116912  -0.223333  -0.141504
 
 Mode:    10      Frequency (cm-1):       75.6371     Intensity (km/mol):        4.9418
 Index  Atom      ---- Displacements (x/y/z) ----
     1    Pa       0.018369  -0.001398  -0.002009
     2     F       0.113305   0.014848   0.079897
     3     H      -0.037549  -0.047873  -0.370685
     4     O      -0.114511  -0.132232  -0.162301
     5     H      -0.179741  -0.027009   0.142699
     6     O      -0.328131   0.101923  -0.042515
     7     H      -0.656105  -0.296288   0.224436
     8     O       0.130945  -0.019076   0.054349
     9     H      -0.021162   0.060898  -0.043127
    10     O      -0.031849   0.071495   0.087532
 
 Mode:    11      Frequency (cm-1):      132.1613     Intensity (km/mol):        9.9094
 Index  Atom      ---- Displacements (x/y/z) ----
     1    Pa       0.017476   0.012610   0.025917
     2     F      -0.075798  -0.038626  -0.098335
     3     H      -0.137240  -0.122885  -0.081512
     4     O      -0.029639  -0.023967  -0.079291
     5     H       0.462391   0.274593  -0.178121
     6     O      -0.043794   0.014407   0.048667
     7     H      -0.217609  -0.266147   0.235486
     8     O      -0.128931  -0.080376  -0.162243
     9     H      -0.166222  -0.294330  -0.517337
    10     O       0.043664  -0.020566  -0.030568
 
 Mode:    12      Frequency (cm-1):      136.7422     Intensity (km/mol):       24.3135
 Index  Atom      ---- Displacements (x/y/z) ----
     1    Pa       0.018007  -0.009220  -0.004874
     2     F      -0.037327   0.017185  -0.009324
     3     H      -0.308765  -0.383864   0.359555
     4     O       0.000777  -0.077537   0.037515
     5     H       0.110932   0.233377   0.029163
     6     O      -0.037063   0.038023  -0.042241
     7     H      -0.026574   0.177201  -0.131850
     8     O      -0.126138   0.084370   0.025957
     9     H      -0.399292   0.505107   0.237045
    10     O      -0.014039   0.034402   0.029130
 
 Mode:    13      Frequency (cm-1):      163.6326     Intensity (km/mol):       36.2310
 Index  Atom      ---- Displacements (x/y/z) ----
     1    Pa      -0.018957  -0.015358   0.012592
     2     F       0.113343  -0.038636   0.072281
     3     H      -0.105043  -0.066832   0.064993
     4     O       0.023398   0.060623  -0.074113
     5     H       0.539756   0.520017  -0.284608
     6     O       0.046982   0.100461  -0.077811
     7     H      -0.028350  -0.038201   0.014261
     8     O      -0.009518  -0.023582   0.000157
     9     H       0.287186  -0.020147   0.417270
    10     O       0.034629   0.105352  -0.129326
 
 Mode:    14      Frequency (cm-1):      178.9114     Intensity (km/mol):       21.2549
 Index  Atom      ---- Displacements (x/y/z) ----
     1    Pa       0.011573  -0.023383  -0.015501
     2     F      -0.108209   0.212169   0.188674
     3     H      -0.020361  -0.054917   0.388850
     4     O       0.133020   0.121243  -0.118851
     5     H       0.113573   0.242335  -0.010008
     6     O      -0.086394  -0.159996   0.076946
     7     H      -0.225701   0.055394  -0.056730
     8     O      -0.075203   0.075034   0.037481
     9     H       0.290172  -0.560055  -0.349079
    10     O      -0.019988   0.069456   0.005918
 
 Mode:    15      Frequency (cm-1):      198.9255     Intensity (km/mol):       60.8929
 Index  Atom      ---- Displacements (x/y/z) ----
     1    Pa      -0.008232   0.007835  -0.013012
     2     F       0.182007   0.004864   0.103217
     3     H       0.200651   0.163466   0.020679
     4     O      -0.074601  -0.099080   0.154465
     5     H       0.115807   0.179918  -0.132291
     6     O      -0.025785  -0.150893   0.098311
     7     H       0.183784   0.010168  -0.013020
     8     O      -0.031597  -0.011232  -0.030988
     9     H      -0.564370   0.112041  -0.599276
    10     O       0.038738   0.112918  -0.110822
 
 Mode:    16      Frequency (cm-1):      244.2985     Intensity (km/mol):      123.9494
 Index  Atom      ---- Displacements (x/y/z) ----
     1    Pa      -0.004451  -0.011209   0.007503
     2     F      -0.036528  -0.026526   0.007616
     3     H      -0.036872  -0.033818   0.224010
     4     O       0.049070   0.063301  -0.054391
     5     H      -0.430676  -0.308599   0.102017
     6     O       0.031853   0.088143  -0.069473
     7     H       0.130411  -0.247913   0.141891
     8     O       0.007171  -0.022005   0.065678
     9     H      -0.489220   0.052387  -0.517220
    10     O       0.071658   0.097873  -0.056133
 
 Mode:    17      Frequency (cm-1):      266.9273     Intensity (km/mol):       34.4212
 Index  Atom      ---- Displacements (x/y/z) ----
     1    Pa       0.002608  -0.004126  -0.004027
     2     F       0.021503  -0.031931  -0.028916
     3     H       0.238362   0.174699   0.102668
     4     O      -0.057344  -0.094123   0.069629
     5     H      -0.027278   0.164707   0.085150
     6     O       0.067105   0.078985  -0.072575
     7     H      -0.347255  -0.073642   0.039911
     8     O      -0.082305   0.152560   0.107566
     9     H       0.345574  -0.624296  -0.391066
    10     O      -0.003865  -0.017301  -0.001812
 
 Mode:    18      Frequency (cm-1):      273.8258     Intensity (km/mol):       54.6442
 Index  Atom      ---- Displacements (x/y/z) ----
     1    Pa      -0.001235   0.002279   0.002554
     2     F       0.000226  -0.010928  -0.009383
     3     H       0.313127   0.261818   0.527413
     4     O      -0.030821  -0.015625  -0.057387
     5     H       0.085714  -0.264179  -0.158207
     6     O       0.054310  -0.019283   0.018953
     7     H      -0.583132   0.216058  -0.108282
     8     O       0.014082  -0.030726  -0.020210
     9     H      -0.101336   0.160848   0.089064
    10     O      -0.002004   0.022089   0.010840
 
 Mode:    19      Frequency (cm-1):      296.8877     Intensity (km/mol):       45.3324
 Index  Atom      ---- Displacements (x/y/z) ----
     1    Pa       0.004793  -0.001903   0.005519
     2     F       0.004975  -0.009343   0.014407
     3     H      -0.023452  -0.030823  -0.156887
     4     O      -0.017823  -0.036747   0.013971
     5     H      -0.558433  -0.435179   0.158763
     6     O      -0.025753  -0.014968   0.024521
     7     H      -0.065908   0.089083  -0.040634
     8     O      -0.133043   0.013300  -0.106148
     9     H       0.405811  -0.135352   0.434910
    10     O       0.116728   0.109284  -0.054129
 
 Mode:    20      Frequency (cm-1):      340.4414     Intensity (km/mol):      261.9492
 Index  Atom      ---- Displacements (x/y/z) ----
     1    Pa       0.003598   0.000259   0.001530
     2     F      -0.007400   0.002383  -0.011168
     3     H       0.364727   0.292171   0.478900
     4     O      -0.033379  -0.039402  -0.045413
     5     H       0.067903  -0.002810  -0.029587
     6     O      -0.070022   0.020796  -0.004394
     7     H       0.681966  -0.172284   0.091479
     8     O      -0.017082   0.011086  -0.015168
     9     H       0.127227  -0.032968   0.123350
    10     O      -0.000940  -0.004345   0.014288
 
 Mode:    21      Frequency (cm-1):      363.4990     Intensity (km/mol):      202.6100
 Index  Atom      ---- Displacements (x/y/z) ----
     1    Pa      -0.001361   0.002510   0.001903
     2     F      -0.002536   0.001734   0.000726
     3     H       0.101363   0.097337   0.171138
     4     O      -0.013373   0.005351  -0.024257
     5     H      -0.421117   0.668278   0.533954
     6     O       0.009888  -0.006460   0.017082
     7     H      -0.126228   0.043194  -0.010067
     8     O       0.018748  -0.032349  -0.021976
     9     H      -0.044329   0.088534   0.060497
    10     O       0.038304  -0.061393  -0.046809
 
 Mode:    22      Frequency (cm-1):      510.5048     Intensity (km/mol):       32.0450
 Index  Atom      ---- Displacements (x/y/z) ----
     1    Pa       0.012044   0.021650  -0.018565
     2     F      -0.243491  -0.454381   0.378779
     3     H      -0.184548   0.121370   0.071396
     4     O      -0.174239   0.134311   0.035421
     5     H       0.343653   0.137256   0.092688
     6     O      -0.017981  -0.131694  -0.168045
     7     H      -0.001099  -0.132743  -0.166329
     8     O       0.126646   0.218673  -0.183650
     9     H       0.101567   0.228117  -0.201447
    10     O       0.164458  -0.016611   0.147366
 
 Mode:    23      Frequency (cm-1):      567.3264     Intensity (km/mol):      294.1865
 Index  Atom      ---- Displacements (x/y/z) ----
     1    Pa       0.051235   0.043907  -0.022768
     2     F      -0.116965  -0.212711   0.176304
     3     H       0.024346   0.046334  -0.021715
     4     O      -0.034440  -0.009227   0.012413
     5     H      -0.358725  -0.063792  -0.211761
     6     O      -0.018039   0.005461   0.038880
     7     H       0.036111   0.055539   0.005473
     8     O      -0.205654  -0.333162   0.272807
     9     H      -0.034790  -0.393754   0.425581
    10     O      -0.322015  -0.022222  -0.217090
 
 Mode:    24      Frequency (cm-1):      579.0691     Intensity (km/mol):      314.1803
 Index  Atom      ---- Displacements (x/y/z) ----
     1    Pa      -0.040564   0.031161  -0.042824
     2     F      -0.031364  -0.089790   0.077068
     3     H       0.353937  -0.174643  -0.144078
     4     O       0.294931  -0.233776  -0.041895
     5     H       0.494927   0.149548   0.203384
     6     O       0.023249   0.077564   0.134242
     7     H       0.017287   0.125217   0.104312
     8     O      -0.074291  -0.178924   0.167517
     9     H      -0.071537  -0.190330   0.155419
    10     O       0.329218  -0.002630   0.247062
 
 Mode:    25      Frequency (cm-1):      581.7945     Intensity (km/mol):      306.7430
 Index  Atom      ---- Displacements (x/y/z) ----
     1    Pa      -0.015389   0.043055   0.048765
     2     F       0.009807  -0.009002  -0.019583
     3     H       0.370899  -0.192060  -0.105106
     4     O       0.306729  -0.250695  -0.080112
     5     H      -0.174684  -0.008595  -0.035848
     6     O      -0.029668  -0.325178  -0.429522
     7     H      -0.074790  -0.360215  -0.406634
     8     O       0.017746   0.016406  -0.045266
     9     H       0.017551   0.045931  -0.004194
    10     O      -0.092931  -0.019302  -0.091445
 
 Mode:    26      Frequency (cm-1):      656.3675     Intensity (km/mol):        9.2359
 Index  Atom      ---- Displacements (x/y/z) ----
     1    Pa       0.008939   0.007943  -0.003123
     2     F       0.059057   0.119863  -0.102506
     3     H      -0.296787   0.191435   0.095219
     4     O      -0.275276   0.202755   0.060262
     5     H       0.301236   0.052618   0.153640
     6     O      -0.030011  -0.217977  -0.281274
     7     H      -0.022105  -0.239621  -0.276181
     8     O      -0.126027  -0.236934   0.204452
     9     H      -0.073122  -0.264427   0.252898
    10     O       0.237762   0.011441   0.169211
 
 Mode:    27      Frequency (cm-1):     3861.0069     Intensity (km/mol):      190.5035
 Index  Atom      ---- Displacements (x/y/z) ----
     1    Pa       0.000002  -0.000004   0.000005
     2     F       0.000007   0.000000   0.000001
     3     H      -0.002678   0.002955   0.000136
     4     O       0.000409  -0.000402  -0.000015
     5     H      -0.007149   0.005256  -0.012252
     6     O       0.000033   0.000321   0.000598
     7     H      -0.000206  -0.002973  -0.004930
     8     O       0.039390   0.040103  -0.028599
     9     H      -0.626008  -0.633476   0.450073
    10     O       0.000208  -0.000384   0.000655
 
 Mode:    28      Frequency (cm-1):     3876.0812     Intensity (km/mol):      179.7533
 Index  Atom      ---- Displacements (x/y/z) ----
     1    Pa       0.000000  -0.000009   0.000010
     2     F       0.000061   0.000157  -0.000150
     3     H      -0.003972   0.003839   0.000024
     4     O       0.000036  -0.000122   0.000010
     5     H      -0.506538   0.317119  -0.799101
     6     O      -0.000054  -0.000430  -0.000639
     7     H      -0.000202   0.004705   0.007031
     8     O      -0.000736  -0.000824   0.000596
     9     H       0.008951   0.009273  -0.006808
    10     O       0.032294  -0.019789   0.050407
 
 Mode:    29      Frequency (cm-1):     3891.0234     Intensity (km/mol):      193.3939
 Index  Atom      ---- Displacements (x/y/z) ----
     1    Pa       0.000006  -0.000001   0.000001
     2     F       0.000108   0.000203  -0.000147
     3     H       0.096424  -0.104692  -0.006727
     4     O      -0.006320   0.006782   0.000502
     5     H       0.003844  -0.002343   0.006554
     6     O      -0.002007  -0.033823  -0.052708
     7     H       0.030755   0.532838   0.831089
     8     O       0.000171   0.000086   0.000074
     9     H      -0.004347  -0.004670   0.002957
    10     O      -0.000040   0.000199  -0.000244
 
 Mode:    30      Frequency (cm-1):     3895.4626     Intensity (km/mol):      241.4458
 Index  Atom      ---- Displacements (x/y/z) ----
     1    Pa       0.000003   0.000004   0.000001
     2     F       0.000101   0.000126  -0.000131
     3     H       0.667484  -0.726403  -0.048047
     4     O      -0.042457   0.045989   0.003116
     5     H      -0.002972   0.001599  -0.005412
     6     O       0.000293   0.004720   0.007410
     7     H      -0.004016  -0.077349  -0.120156
     8     O       0.000121  -0.000106   0.000031
     9     H      -0.002317  -0.002026   0.001693
    10     O       0.000402  -0.000139   0.000415

PES point character: Geometry corresponds to a local minimum on the PES.




 ============================
 Statistical Thermal Analysis  ***  ideal gas assumed  ***
 ============================
  
 Pressure:                  1.000000 atm.
 Temperature:             298.150000 K



 Moments of Inertia [amu*bohr^2] and principal axis
 ==================================================

         855.4646        989.8904       1024.0900
 ------------------------------------------------
           0.3203         -0.7903         -0.5223
           0.7028         -0.1715          0.6904
          -0.6352         -0.5882          0.5005


 The rotational contribution to the molecular entropy includes
 a term, dependent on the symmetry number sigma. The results 
 reported below were computed using sigma = 1, determined from
 the point group symmetry of the input geometry (NOSYM). 
 If this is not the correct symmetry, try symmetrizing the molecule before
 running the calculation (note: linear molecules should be aligned along one
 of the Cartesian axes).
 Contributions from frequencies below 20 1/cm are not included in vibrational sums.
 Their contributions, if any, are reported separately.


     Temp                                                        Transl      Rotat     Vibrat     Total
     ----                                                        ------      -----     ------     -----

     298.15   Entropy (cal/mol-K):                               43.167     28.252     36.474    107.893
              Nuclear Internal Energy (kcal/mol):                 0.889      0.889     35.941     37.719
              Constant Volume Heat Capacity (cal/mol-K):          2.981      2.981     30.781     36.742
          (c) Constant Volume Heat Capacity (cal/mol-K):          2.981      2.981     28.667     34.629

 Contributions from frequencies below 20 1/cm
 Frequency (1/cm):                                   14.943
 Entropy (cal/mol-K):                                 7.213
 Nuclear Internal Energy (kcal/mol):                  0.593
 Constant Volume Heat Capacity (cal/mol-K):           1.986

       Summary of energy terms
                                                   hartree              eV         kcal/mol           kJ/mol
                                      --------------------     -----------       ----------      -----------
      Energy from Engine:               -2.757925690877224        -75.0470         -1730.62         -7240.93
      Nuclear Internal Energy:           0.060108693687848          1.6356            37.72           157.82
  (c) Nuclear Internal Energy:           0.058972324007913          1.6047            37.01           154.83
      Internal Energy U:                -2.697816997189376        -73.4113         -1692.91         -7083.12
      pV/n = RT:                         0.000944186013486          0.0257             0.59             2.48
      Enthalpy H:                       -2.696872811175890        -73.3856         -1692.31         -7080.64
      -T*S:                             -0.051263562345621         -1.3950           -32.17          -134.59
  (c) -T*S:                             -0.052338958057647         -1.4242           -32.84          -137.42
      Gibbs free energy:                -2.748136373521512        -74.7806         -1724.48         -7215.23
 
 
 
  (c) The properties marked with this symbol have been corrected using 'low vibrational frequency free rotor
      interpolation corrections'. For those terms all positive frequencies are used (also ones below 20 1/cm),
      but the contribution to the partition function of small vibrational frequencies is modified as described
      in the following paper:
      S. Grimme, 'Supramolecular Binding Thermodynamics by Dispersion-Corrected Density Functional Theory'
      (Chem. Eur. J. 2012, 18, 9955-9964)
      Configuration: Dampener Frequency          :   100.000 1/cm
                     Dampener Alpha              :     4.000
                     Averaging Moment of Inertia : 1.000E-44 kg m2

--------------
Atomic charges
--------------
  Index   Atom    Charge
      1     Pa    2.9031
      2      F   -0.6369
      3      H    0.0280
      4      O   -0.6076
      5      H    0.0738
      6      O   -0.6021
      7      H    0.0163
      8      O   -0.5770
      9      H    0.0216
     10      O   -0.6193


Dipole moment vector    (Debye):    -1.66071218   -1.99100758    1.28613745
              magnitude (Debye):     2.89417099


Final PES point is a local minimum. Geometry optimization successful!


AMS application finished. Exiting.
NORMAL TERMINATION
     Total cpu time:   37284.27
  Total system time:     829.24
 Total elapsed time:   38116.52
