 Entering Gaussian System, Link 0=/home/pcmt/gaussian/g16.C.01/g16/g16
 AtFile(1): /home/shaaban/basis.gaussian/Pa-def-TZVP
 AtFile(1): /home/shaaban/basis.gaussian/Pa-ECP60MWB
 AtFile(1): /home/shaaban/basis.gaussian/I-ECP28oldMDF
 Initial command:
 /home/pcmt/gaussian/g16.C.01/g16/l1.exe "/state/partition2/shaaban/972263.phlam-s-sakura/Gau-76070.inp" -scrdir="/state/partition2/shaaban/972263.phlam-s-sakura/"
 Entering Link 1 = /home/pcmt/gaussian/g16.C.01/g16/l1.exe PID=     76071.
  
 Copyright (c) 1988-2019, Gaussian, Inc.  All Rights Reserved.
  
 This is part of the Gaussian(R) 16 program.  It is based on
 the Gaussian(R) 09 system (copyright 2009, Gaussian, Inc.),
 the Gaussian(R) 03 system (copyright 2003, Gaussian, Inc.),
 the Gaussian(R) 98 system (copyright 1998, Gaussian, Inc.),
 the Gaussian(R) 94 system (copyright 1995, Gaussian, Inc.),
 the Gaussian 92(TM) system (copyright 1992, Gaussian, Inc.),
 the Gaussian 90(TM) system (copyright 1990, Gaussian, Inc.),
 the Gaussian 88(TM) system (copyright 1988, Gaussian, Inc.),
 the Gaussian 86(TM) system (copyright 1986, Carnegie Mellon
 University), and the Gaussian 82(TM) system (copyright 1983,
 Carnegie Mellon University). Gaussian is a federally registered
 trademark of Gaussian, Inc.
  
 This software contains proprietary and confidential information,
 including trade secrets, belonging to Gaussian, Inc.
  
 This software is provided under written license and may be
 used, copied, transmitted, or stored only in accord with that
 written license.
  
 The following legend is applicable only to US Government
 contracts under FAR:
  
                    RESTRICTED RIGHTS LEGEND
  
 Use, reproduction and disclosure by the US Government is
 subject to restrictions as set forth in subparagraphs (a)
 and (c) of the Commercial Computer Software - Restricted
 Rights clause in FAR 52.227-19.
  
 Gaussian, Inc.
 340 Quinnipiac St., Bldg. 40, Wallingford CT 06492
  
  
 ---------------------------------------------------------------
 Warning -- This program may not be used in any manner that
 competes with the business of Gaussian, Inc. or will provide
 assistance to any competitor of Gaussian, Inc.  The licensee
 of this program is prohibited from giving any competitor of
 Gaussian, Inc. access to this program.  By using this program,
 the user acknowledges that Gaussian, Inc. is engaged in the
 business of creating and licensing software in the field of
 computational chemistry and represents and warrants to the
 licensee that it is not a competitor of Gaussian, Inc. and that
 it will not use this program in any manner prohibited above.
 ---------------------------------------------------------------
  

 Cite this work as:
 Gaussian 16, Revision C.01,
 M. J. Frisch, G. W. Trucks, H. B. Schlegel, G. E. Scuseria, 
 M. A. Robb, J. R. Cheeseman, G. Scalmani, V. Barone, 
 G. A. Petersson, H. Nakatsuji, X. Li, M. Caricato, A. V. Marenich, 
 J. Bloino, B. G. Janesko, R. Gomperts, B. Mennucci, H. P. Hratchian, 
 J. V. Ortiz, A. F. Izmaylov, J. L. Sonnenberg, D. Williams-Young, 
 F. Ding, F. Lipparini, F. Egidi, J. Goings, B. Peng, A. Petrone, 
 T. Henderson, D. Ranasinghe, V. G. Zakrzewski, J. Gao, N. Rega, 
 G. Zheng, W. Liang, M. Hada, M. Ehara, K. Toyota, R. Fukuda, 
 J. Hasegawa, M. Ishida, T. Nakajima, Y. Honda, O. Kitao, H. Nakai, 
 T. Vreven, K. Throssell, J. A. Montgomery, Jr., J. E. Peralta, 
 F. Ogliaro, M. J. Bearpark, J. J. Heyd, E. N. Brothers, K. N. Kudin, 
 V. N. Staroverov, T. A. Keith, R. Kobayashi, J. Normand, 
 K. Raghavachari, A. P. Rendell, J. C. Burant, S. S. Iyengar, 
 J. Tomasi, M. Cossi, J. M. Millam, M. Klene, C. Adamo, R. Cammi, 
 J. W. Ochterski, R. L. Martin, K. Morokuma, O. Farkas, 
 J. B. Foresman, and D. J. Fox, Gaussian, Inc., Wallingford CT, 2019.
 
 ******************************************
 Gaussian 16:  ES64L-G16RevC.01  3-Jul-2019
                28-Jun-2023 
 ******************************************
 %mem=16Gb
 %NProc=8
 Will use up to    8 processors via shared memory.
 %chk=pa_oh4_I-bp86-cosmors-deftzvp-klamt.chk
 ----------------------------------------------------------------------
 #p BP86/GEN Pseudo=Read GFInput GFPrint IOP(6/7=3) Symm=(Loose) Int=(U
 ltraFine) Guess=(Harris) SCRF=(COSMORS,Read) Scf=(NoVarAcc,MaxCycle=10
 0,conver=8)
 ----------------------------------------------------------------------
 1/38=1,40=2,172=1/1;
 2/12=2,17=4,18=3,40=1/2;
 3/5=7,11=2,16=1,17=8,24=110,25=1,30=1,70=12103,74=404,75=-5/1,2,3;
 4/11=8/1;
 5/5=2,6=8,7=100,38=1/2;
 6/7=3,8=2,9=2,10=2,28=1/1;
 99/5=1,9=1/99;
 Leave Link    1 at Wed Jun 28 18:32:44 2023, MaxMem=  2147483648 cpu:               0.8 elap:               0.1
 (Enter /home/pcmt/gaussian/g16.C.01/g16/l101.exe)
 -----------------------------------------------------------------
 pa_oh4_c2o4-bp86-cosmors-deftzvp-klamt.com SGP in PCM calculation
 -----------------------------------------------------------------
 Symbolic Z-matrix:
 Charge =  0 Multiplicity = 1
 Pa                    0.70382  -0.36614   0.04747 
 I                     2.1691    1.59694  -1.90205 
 H                    -1.7403    1.20856   0.38181 
 O                    -0.80627   0.99093   0.47752 
 H                     1.93499   1.07216   2.25011 
 O                    -0.34321  -1.11061  -1.57927 
 H                    -1.13216  -1.19641  -2.12867 
 O                     0.06988  -1.99415   1.23508 
 H                    -0.57156  -2.68987   1.04248 
 O                     1.89977   0.35457   1.60486 
 
 ITRead=  0  0  0  0  0  0  0  0  0  0
 MicOpt= -1 -1 -1 -1 -1 -1 -1 -1 -1 -1
 NAtoms=     10 NQM=       10 NQMF=       0 NMMI=      0 NMMIF=      0
                NMic=       0 NMicF=      0.
                    Isotopes and Nuclear Properties:
 (Nuclear quadrupole moments (NQMom) in fm**2, nuclear magnetic moments (NMagM)
  in nuclear magnetons)

  Atom         1           2           3           4           5           6           7           8           9          10
 IAtWgt=         231         127           1          16           1          16           1          16           1          16
 AtmWgt= 231.0359000 126.9004000   1.0078250  15.9949146   1.0078250  15.9949146   1.0078250  15.9949146   1.0078250  15.9949146
 NucSpn=           3           5           1           0           1           0           1           0           1           0
 AtZEff=  -0.0000000  -0.0000000  -0.0000000  -0.0000000  -0.0000000  -0.0000000  -0.0000000  -0.0000000  -0.0000000  -0.0000000
 NQMom= -172.0000000 -71.0000000   0.0000000   0.0000000   0.0000000   0.0000000   0.0000000   0.0000000   0.0000000   0.0000000
 NMagM=    2.0100000   2.8132800   2.7928460   0.0000000   2.7928460   0.0000000   2.7928460   0.0000000   2.7928460   0.0000000
 AtZNuc=  91.0000000  53.0000000   1.0000000   8.0000000   1.0000000   8.0000000   1.0000000   8.0000000   1.0000000   8.0000000
 Leave Link  101 at Wed Jun 28 18:32:44 2023, MaxMem=  2147483648 cpu:               1.1 elap:               0.2
 (Enter /home/pcmt/gaussian/g16.C.01/g16/l202.exe)
                          Input orientation:                          
 ---------------------------------------------------------------------
 Center     Atomic      Atomic             Coordinates (Angstroms)
 Number     Number       Type             X           Y           Z
 ---------------------------------------------------------------------
      1         91           0        0.703819   -0.366140    0.047467
      2         53           0        2.169101    1.596935   -1.902046
      3          1           0       -1.740298    1.208556    0.381811
      4          8           0       -0.806273    0.990927    0.477519
      5          1           0        1.934985    1.072158    2.250111
      6          8           0       -0.343209   -1.110614   -1.579267
      7          1           0       -1.132155   -1.196407   -2.128674
      8          8           0        0.069878   -1.994149    1.235082
      9          1           0       -0.571562   -2.689874    1.042477
     10          8           0        1.899771    0.354569    1.604861
 ---------------------------------------------------------------------
                    Distance matrix (angstroms):
                    1          2          3          4          5
     1  Pa   0.000000
     2  I    3.130705   0.000000
     3  H    2.926630   4.544253   0.000000
     4  O    2.075321   3.857775   0.963807   0.000000
     5  H    2.904498   4.191731   4.125149   3.265452   0.000000
     6  O    2.072866   3.707656   3.343087   2.976789   4.961734
     7  H    2.965761   4.330405   3.529337   3.418022   5.807538
     8  O    2.112517   5.210010   3.776524   3.201910   3.729766
     9  H    2.831321   5.878621   4.123127   3.731295   4.679107
    10  O    2.091697   3.730202   3.933859   2.999755   0.965671
                    6          7          8          9         10
     6  O    0.000000
     7  H    0.965217   0.000000
     8  O    2.978563   3.660073   0.000000
     9  H    3.069161   3.549775   0.965699   0.000000
    10  O    4.161297   5.053453   3.000288   3.961363   0.000000
 Stoichiometry    H4IO4Pa
 Framework group  C1[X(H4IO4Pa)]
 Deg. of freedom    24
 Full point group                 C1      NOp   1
 Largest Abelian subgroup         C1      NOp   1
 Largest concise Abelian subgroup C1      NOp   1
                         Standard orientation:                         
 ---------------------------------------------------------------------
 Center     Atomic      Atomic             Coordinates (Angstroms)
 Number     Number       Type             X           Y           Z
 ---------------------------------------------------------------------
      1         91           0        0.811423    0.017002   -0.093987
      2         53           0       -2.318783   -0.015997   -0.048893
      3          1           0        1.222874   -0.516946    2.753954
      4          8           0        0.965185   -0.010541    1.975446
      5          1           0        0.682798    2.866048    0.456015
      6          8           0        0.775871   -2.053727   -0.181131
      7          1           0        0.871651   -2.933002    0.205321
      8          8           0        2.861328    0.030408   -0.604319
      9          1           0        3.484465   -0.702515   -0.688566
     10          8           0        0.746889    2.107244   -0.137812
 ---------------------------------------------------------------------
 Rotational constants (GHZ):           2.1422262           0.4623932           0.4320907
 Leave Link  202 at Wed Jun 28 18:32:44 2023, MaxMem=  2147483648 cpu:               0.1 elap:               0.1
 (Enter /home/pcmt/gaussian/g16.C.01/g16/l301.exe)
 General basis read from cards:  (5D, 7F)
 Centers:       1
 S 3 1.00
     Exponent=  1.2047376000D+04 Coefficients=  3.4500000000D-04
     Exponent=  1.8116841000D+03 Coefficients=  2.7420000000D-03
     Exponent=  3.4770104000D+02 Coefficients=  1.0053000000D-02
 S 1 1.00
     Exponent=  9.8678010000D+01 Coefficients=  1.0000000000D+00
 S 3 1.00
     Exponent=  5.7507376000D+01 Coefficients=  5.1528000000D-02
     Exponent=  3.3502601000D+01 Coefficients= -2.3692400000D-01
     Exponent=  1.9554451000D+01 Coefficients=  7.1904800000D-01
 S 1 1.00
     Exponent=  9.7164210000D+00 Coefficients=  1.0000000000D+00
 S 1 1.00
     Exponent=  2.6920960000D+00 Coefficients=  1.0000000000D+00
 S 1 1.00
     Exponent=  1.4538470000D+00 Coefficients=  1.0000000000D+00
 S 1 1.00
     Exponent=  5.7435200000D-01 Coefficients=  1.0000000000D+00
 S 1 1.00
     Exponent=  2.6346800000D-01 Coefficients=  1.0000000000D+00
 S 1 1.00
     Exponent=  5.6557000000D-02 Coefficients=  1.0000000000D+00
 S 1 1.00
     Exponent=  2.3169000000D-02 Coefficients=  1.0000000000D+00
 P 5 1.00
     Exponent=  2.9033676000D+03 Coefficients=  3.5000000000D-05
     Exponent=  6.4486356000D+02 Coefficients=  2.0500000000D-04
     Exponent=  2.2025896000D+02 Coefficients=  1.2510000000D-03
     Exponent=  8.0276401000D+01 Coefficients=  2.4570000000D-03
     Exponent=  2.4080211000D+01 Coefficients=  1.1190000000D-02
 P 1 1.00
     Exponent=  1.4077580000D+01 Coefficients=  1.0000000000D+00
 P 1 1.00
     Exponent=  8.2658460000D+00 Coefficients=  1.0000000000D+00
 P 1 1.00
     Exponent=  3.5948000000D+00 Coefficients=  1.0000000000D+00
 P 1 1.00
     Exponent=  1.7531110000D+00 Coefficients=  1.0000000000D+00
 P 1 1.00
     Exponent=  6.5776700000D-01 Coefficients=  1.0000000000D+00
 P 1 1.00
     Exponent=  2.8463900000D-01 Coefficients=  1.0000000000D+00
 P 1 1.00
     Exponent=  1.0054300000D-01 Coefficients=  1.0000000000D+00
 P 1 1.00
     Exponent=  3.0190000000D-02 Coefficients=  1.0000000000D+00
 D 6 1.00
     Exponent=  4.4814991000D+02 Coefficients=  2.6000000000D-05
     Exponent=  1.5446145000D+02 Coefficients=  2.2800000000D-04
     Exponent=  6.0925377000D+01 Coefficients=  9.0400000000D-04
     Exponent=  1.7032091000D+01 Coefficients=  2.5647000000D-02
     Exponent=  1.0018877000D+01 Coefficients= -1.0575100000D-01
     Exponent=  3.4091930000D+00 Coefficients=  4.4743200000D-01
 D 1 1.00
     Exponent=  1.6702130000D+00 Coefficients=  1.0000000000D+00
 D 1 1.00
     Exponent=  7.4109500000D-01 Coefficients=  1.0000000000D+00
 D 1 1.00
     Exponent=  2.6139300000D-01 Coefficients=  1.0000000000D+00
 D 1 1.00
     Exponent=  8.2811000000D-02 Coefficients=  1.0000000000D+00
 F 5 1.00
     Exponent=  8.7991327000D+01 Coefficients=  2.2600000000D-04
     Exponent=  2.8340195000D+01 Coefficients=  2.3230000000D-03
     Exponent=  1.2440994000D+01 Coefficients=  4.5850000000D-03
     Exponent=  3.9572960000D+00 Coefficients=  1.5696100000D-01
     Exponent=  1.8759440000D+00 Coefficients=  3.4497700000D-01
 F 1 1.00
     Exponent=  8.2758900000D-01 Coefficients=  1.0000000000D+00
 F 1 1.00
     Exponent=  3.3274800000D-01 Coefficients=  1.0000000000D+00
 F 1 1.00
     Exponent=  1.1468500000D-01 Coefficients=  1.0000000000D+00
 G 1 1.00
     Exponent=  3.5000000000D-01 Coefficients=  1.0000000000D+00
 ****
 Centers:       4      6      8     10
 Def2TZVP
 ****
 Centers:       3      5      7      9
 Def2TZVP
 ****
 Centers:       2
 Def2TZVP
 ****
 ======================================================================================================
                                       Pseudopotential Parameters
 ======================================================================================================
  Center     Atomic      Valence      Angular      Power
  Number     Number     Electrons     Momentum     of R      Exponent        Coefficient   SO-Coeffient
 ======================================================================================================
    1         91           31
                                      H and up 
                                                     2        1.0000000        0.00000000    0.00000000
                                      S - H
                                                     2       15.2691737      475.47573283    0.00000000
                                      P - H
                                                     2        9.9577370      207.66485962    0.00000000
                                      D - H
                                                     2        8.9431413      156.67411988    0.00000000
                                      F - H
                                                     2        7.0104666       67.98223685    0.00000000
                                      G - H
                                                     2       12.2010560      -57.63059989    0.00000000
    2         53           25
                                      G and up 
                                                     2        1.0000000        0.00000000    0.00000000
                                      S - G
                                                     2       40.0158350       49.99429300    0.00000000
                                                     2       17.4297470      281.02531700    0.00000000
                                                     2        9.0054840       61.57332600    0.00000000
                                      P - G
                                                     2       15.3554660       67.44284100    0.00000000
                                                     2       14.9718330      134.88113700    0.00000000
                                                     2        8.9601640       14.67505100    0.00000000
                                                     2        8.2590960       29.37566600    0.00000000
                                      D - G
                                                     2       15.0689080       35.43952900    0.00000000
                                                     2       14.5553220       53.17605700    0.00000000
                                                     2        6.7186470        9.06719500    0.00000000
                                                     2        6.4563930       13.20693700    0.00000000
                                                     2        1.1917790        0.08933500    0.00000000
                                                     2        1.2911570        0.05238000    0.00000000
                                      F - G
                                                     2       19.4586090      -21.84204000    0.00000000
                                                     2       19.3492600      -28.46819100    0.00000000
                                                     2        4.8237670       -0.24371300    0.00000000
                                                     2        4.8843150       -0.32080400    0.00000000
    3          1
                                   No pseudopotential on this center.
    4          8
                                   No pseudopotential on this center.
    5          1
                                   No pseudopotential on this center.
    6          8
                                   No pseudopotential on this center.
    7          1
                                   No pseudopotential on this center.
    8          8
                                   No pseudopotential on this center.
    9          1
                                   No pseudopotential on this center.
   10          8
                                   No pseudopotential on this center.
 ======================================================================================================
 Ernie: Thresh=  0.10000D-02 Tol=  0.10000D-05 Strict=F.
 AO basis set in the form of general basis input (Overlap normalization):
      1 0
 S   3 1.00       0.000000000000
      0.1204737600D+05  0.2857094961D-01
      0.1811684100D+04  0.2270769386D+00
      0.3477010400D+03  0.8325326273D+00
 S   3 1.00       0.000000000000
      0.5750737600D+02  0.9569327984D-01
      0.3350260100D+02 -0.4399944619D+00
      0.1955445100D+02  0.1335352847D+01
 S   1 1.00       0.000000000000
      0.9867801000D+02  0.1000000000D+01
 S   1 1.00       0.000000000000
      0.9716421000D+01  0.1000000000D+01
 S   1 1.00       0.000000000000
      0.2692096000D+01  0.1000000000D+01
 S   1 1.00       0.000000000000
      0.1453847000D+01  0.1000000000D+01
 S   1 1.00       0.000000000000
      0.5743520000D+00  0.1000000000D+01
 S   1 1.00       0.000000000000
      0.2634680000D+00  0.1000000000D+01
 S   1 1.00       0.000000000000
      0.5655700000D-01  0.1000000000D+01
 S   1 1.00       0.000000000000
      0.2316900000D-01  0.1000000000D+01
 P   5 1.00       0.000000000000
      0.2903367600D+04  0.2594222647D-02
      0.6448635600D+03  0.1519473264D-01
      0.2202589600D+03  0.9272492945D-01
      0.8027640100D+02  0.1821144298D+00
      0.2408021100D+02  0.8294100404D+00
 P   1 1.00       0.000000000000
      0.1407758000D+02  0.1000000000D+01
 P   1 1.00       0.000000000000
      0.8265846000D+01  0.1000000000D+01
 P   1 1.00       0.000000000000
      0.3594800000D+01  0.1000000000D+01
 P   1 1.00       0.000000000000
      0.1753111000D+01  0.1000000000D+01
 P   1 1.00       0.000000000000
      0.6577670000D+00  0.1000000000D+01
 P   1 1.00       0.000000000000
      0.2846390000D+00  0.1000000000D+01
 P   1 1.00       0.000000000000
      0.1005430000D+00  0.1000000000D+01
 P   1 1.00       0.000000000000
      0.3019000000D-01  0.1000000000D+01
 D   6 1.00       0.000000000000
      0.4481499100D+03  0.6556927566D-04
      0.1544614500D+03  0.5749921096D-03
      0.6092537700D+02  0.2279793277D-02
      0.1703209100D+02  0.6467904664D-01
      0.1001887700D+02 -0.2666929411D+00
      0.3409193000D+01  0.1128376621D+01
 D   1 1.00       0.000000000000
      0.1670213000D+01  0.1000000000D+01
 D   1 1.00       0.000000000000
      0.7410950000D+00  0.1000000000D+01
 D   1 1.00       0.000000000000
      0.2613930000D+00  0.1000000000D+01
 D   1 1.00       0.000000000000
      0.8281100000D-01  0.1000000000D+01
 F   5 1.00       0.000000000000
      0.8799132700D+02  0.4766318191D-03
      0.2834019500D+02  0.4899184583D-02
      0.1244099400D+02  0.9669720755D-02
      0.3957296000D+01  0.3310292343D+00
      0.1875944000D+01  0.7275531640D+00
 F   1 1.00       0.000000000000
      0.8275890000D+00  0.1000000000D+01
 F   1 1.00       0.000000000000
      0.3327480000D+00  0.1000000000D+01
 F   1 1.00       0.000000000000
      0.1146850000D+00  0.1000000000D+01
 G   1 1.00       0.000000000000
      0.3500000000D+00  0.1000000000D+01
 ****
      2 0
 S   5 1.00       0.000000000000
      0.5899579153D+04  0.2610056321D-03
      0.8985423877D+03  0.1669739989D-02
      0.2003723791D+03  0.4622329849D-02
      0.3141805384D+02 -0.4253426840D-01
      0.1564598784D+02  0.1036831842D+01
 S   2 1.00       0.000000000000
      0.1181574186D+02  0.6510798928D+00
      0.6461445829D+01  0.3642365936D+00
 S   1 1.00       0.000000000000
      0.2383806758D+01  0.1000000000D+01
 S   1 1.00       0.000000000000
      0.1171208966D+01  0.1000000000D+01
 S   1 1.00       0.000000000000
      0.3211587576D+00  0.1000000000D+01
 S   1 1.00       0.000000000000
      0.1238791936D+00  0.1000000000D+01
 P   4 1.00       0.000000000000
      0.1298431690D+02 -0.3868165906D-01
      0.3619950301D+01  0.3065970959D+00
      0.2023227309D+01  0.5169312450D+00
      0.1036749056D+01  0.2505722415D+00
 P   3 1.00       0.000000000000
      0.1973003055D+03  0.3192774173D-02
      0.2006141135D+02  0.2856760153D+00
      0.9763146048D+01 -0.1232820499D+01
 P   1 1.00       0.000000000000
      0.4593781600D+00  0.1000000000D+01
 P   1 1.00       0.000000000000
      0.1911653293D+00  0.1000000000D+01
 P   1 1.00       0.000000000000
      0.7487881302D-01  0.1000000000D+01
 D   6 1.00       0.000000000000
      0.1191267175D+03  0.8836386893D-03
      0.3340424013D+02  0.7315261132D-02
      0.1780591820D+02 -0.1102799620D-01
      0.4899051035D+01  0.2425357632D+00
      0.2451675311D+01  0.4726529041D+00
      0.1182069343D+01  0.3934356931D+00
 D   1 1.00       0.000000000000
      0.5292311007D+00  0.1000000000D+01
 D   1 1.00       0.000000000000
      0.1700000000D+00  0.1000000000D+01
 F   1 1.00       0.000000000000
      0.4414180800D+00  0.1000000000D+01
 F   1 1.00       0.000000000000
      0.2180000000D+01  0.1000000000D+01
 ****
      3 0
 S   3 1.00       0.000000000000
      0.3406134100D+02  0.2543930721D-01
      0.5123574600D+01  0.1900859489D+00
      0.1164662600D+01  0.8524411301D+00
 S   1 1.00       0.000000000000
      0.3272304100D+00  0.1000000000D+01
 S   1 1.00       0.000000000000
      0.1030724100D+00  0.1000000000D+01
 P   1 1.00       0.000000000000
      0.8000000000D+00  0.1000000000D+01
 ****
      4 0
 S   6 1.00       0.000000000000
      0.2703238263D+05  0.5722733521D-03
      0.4052387139D+04  0.4435323349D-02
      0.9223272271D+03  0.2302010771D-01
      0.2612407099D+03  0.9282249067D-01
      0.8535464135D+02  0.2937850001D+00
      0.3103503524D+02  0.6740160450D+00
 S   2 1.00       0.000000000000
      0.1226086073D+02  0.6383993703D+00
      0.4998707601D+01  0.3953458713D+00
 S   1 1.00       0.000000000000
      0.1170310816D+01  0.1000000000D+01
 S   1 1.00       0.000000000000
      0.4647474099D+00  0.1000000000D+01
 S   1 1.00       0.000000000000
      0.1850453636D+00  0.1000000000D+01
 P   4 1.00       0.000000000000
      0.6327495480D+02  0.1201833222D-01
      0.1462704938D+02  0.8300542179D-01
      0.4450122346D+01  0.3199174393D+00
      0.1527579965D+01  0.7071554292D+00
 P   1 1.00       0.000000000000
      0.5293511794D+00  0.1000000000D+01
 P   1 1.00       0.000000000000
      0.1747842127D+00  0.1000000000D+01
 D   1 1.00       0.000000000000
      0.2314000000D+01  0.1000000000D+01
 D   1 1.00       0.000000000000
      0.6450000000D+00  0.1000000000D+01
 F   1 1.00       0.000000000000
      0.1428000000D+01  0.1000000000D+01
 ****
      5 0
 S   3 1.00       0.000000000000
      0.3406134100D+02  0.2543930721D-01
      0.5123574600D+01  0.1900859489D+00
      0.1164662600D+01  0.8524411301D+00
 S   1 1.00       0.000000000000
      0.3272304100D+00  0.1000000000D+01
 S   1 1.00       0.000000000000
      0.1030724100D+00  0.1000000000D+01
 P   1 1.00       0.000000000000
      0.8000000000D+00  0.1000000000D+01
 ****
      6 0
 S   6 1.00       0.000000000000
      0.2703238263D+05  0.5722733521D-03
      0.4052387139D+04  0.4435323349D-02
      0.9223272271D+03  0.2302010771D-01
      0.2612407099D+03  0.9282249067D-01
      0.8535464135D+02  0.2937850001D+00
      0.3103503524D+02  0.6740160450D+00
 S   2 1.00       0.000000000000
      0.1226086073D+02  0.6383993703D+00
      0.4998707601D+01  0.3953458713D+00
 S   1 1.00       0.000000000000
      0.1170310816D+01  0.1000000000D+01
 S   1 1.00       0.000000000000
      0.4647474099D+00  0.1000000000D+01
 S   1 1.00       0.000000000000
      0.1850453636D+00  0.1000000000D+01
 P   4 1.00       0.000000000000
      0.6327495480D+02  0.1201833222D-01
      0.1462704938D+02  0.8300542179D-01
      0.4450122346D+01  0.3199174393D+00
      0.1527579965D+01  0.7071554292D+00
 P   1 1.00       0.000000000000
      0.5293511794D+00  0.1000000000D+01
 P   1 1.00       0.000000000000
      0.1747842127D+00  0.1000000000D+01
 D   1 1.00       0.000000000000
      0.2314000000D+01  0.1000000000D+01
 D   1 1.00       0.000000000000
      0.6450000000D+00  0.1000000000D+01
 F   1 1.00       0.000000000000
      0.1428000000D+01  0.1000000000D+01
 ****
      7 0
 S   3 1.00       0.000000000000
      0.3406134100D+02  0.2543930721D-01
      0.5123574600D+01  0.1900859489D+00
      0.1164662600D+01  0.8524411301D+00
 S   1 1.00       0.000000000000
      0.3272304100D+00  0.1000000000D+01
 S   1 1.00       0.000000000000
      0.1030724100D+00  0.1000000000D+01
 P   1 1.00       0.000000000000
      0.8000000000D+00  0.1000000000D+01
 ****
      8 0
 S   6 1.00       0.000000000000
      0.2703238263D+05  0.5722733521D-03
      0.4052387139D+04  0.4435323349D-02
      0.9223272271D+03  0.2302010771D-01
      0.2612407099D+03  0.9282249067D-01
      0.8535464135D+02  0.2937850001D+00
      0.3103503524D+02  0.6740160450D+00
 S   2 1.00       0.000000000000
      0.1226086073D+02  0.6383993703D+00
      0.4998707601D+01  0.3953458713D+00
 S   1 1.00       0.000000000000
      0.1170310816D+01  0.1000000000D+01
 S   1 1.00       0.000000000000
      0.4647474099D+00  0.1000000000D+01
 S   1 1.00       0.000000000000
      0.1850453636D+00  0.1000000000D+01
 P   4 1.00       0.000000000000
      0.6327495480D+02  0.1201833222D-01
      0.1462704938D+02  0.8300542179D-01
      0.4450122346D+01  0.3199174393D+00
      0.1527579965D+01  0.7071554292D+00
 P   1 1.00       0.000000000000
      0.5293511794D+00  0.1000000000D+01
 P   1 1.00       0.000000000000
      0.1747842127D+00  0.1000000000D+01
 D   1 1.00       0.000000000000
      0.2314000000D+01  0.1000000000D+01
 D   1 1.00       0.000000000000
      0.6450000000D+00  0.1000000000D+01
 F   1 1.00       0.000000000000
      0.1428000000D+01  0.1000000000D+01
 ****
      9 0
 S   3 1.00       0.000000000000
      0.3406134100D+02  0.2543930721D-01
      0.5123574600D+01  0.1900859489D+00
      0.1164662600D+01  0.8524411301D+00
 S   1 1.00       0.000000000000
      0.3272304100D+00  0.1000000000D+01
 S   1 1.00       0.000000000000
      0.1030724100D+00  0.1000000000D+01
 P   1 1.00       0.000000000000
      0.8000000000D+00  0.1000000000D+01
 ****
     10 0
 S   6 1.00       0.000000000000
      0.2703238263D+05  0.5722733521D-03
      0.4052387139D+04  0.4435323349D-02
      0.9223272271D+03  0.2302010771D-01
      0.2612407099D+03  0.9282249067D-01
      0.8535464135D+02  0.2937850001D+00
      0.3103503524D+02  0.6740160450D+00
 S   2 1.00       0.000000000000
      0.1226086073D+02  0.6383993703D+00
      0.4998707601D+01  0.3953458713D+00
 S   1 1.00       0.000000000000
      0.1170310816D+01  0.1000000000D+01
 S   1 1.00       0.000000000000
      0.4647474099D+00  0.1000000000D+01
 S   1 1.00       0.000000000000
      0.1850453636D+00  0.1000000000D+01
 P   4 1.00       0.000000000000
      0.6327495480D+02  0.1201833222D-01
      0.1462704938D+02  0.8300542179D-01
      0.4450122346D+01  0.3199174393D+00
      0.1527579965D+01  0.7071554292D+00
 P   1 1.00       0.000000000000
      0.5293511794D+00  0.1000000000D+01
 P   1 1.00       0.000000000000
      0.1747842127D+00  0.1000000000D+01
 D   1 1.00       0.000000000000
      0.2314000000D+01  0.1000000000D+01
 D   1 1.00       0.000000000000
      0.6450000000D+00  0.1000000000D+01
 F   1 1.00       0.000000000000
      0.1428000000D+01  0.1000000000D+01
 ****

 AO basis set (Overlap normalization):
 Atom Pa1      Shell     1 S   3     bf    1 -     1          1.533368136939          0.032128981656         -0.177610309718
      0.1204737600D+05  0.2857094961D-01
      0.1811684100D+04  0.2270769386D+00
      0.3477010400D+03  0.8325326273D+00
 Atom Pa1      Shell     2 S   3     bf    2 -     2          1.533368136939          0.032128981656         -0.177610309718
      0.5750737600D+02  0.9569327984D-01
      0.3350260100D+02 -0.4399944619D+00
      0.1955445100D+02  0.1335352847D+01
 Atom Pa1      Shell     3 S   1     bf    3 -     3          1.533368136939          0.032128981656         -0.177610309718
      0.9867801000D+02  0.1000000000D+01
 Atom Pa1      Shell     4 S   1     bf    4 -     4          1.533368136939          0.032128981656         -0.177610309718
      0.9716421000D+01  0.1000000000D+01
 Atom Pa1      Shell     5 S   1     bf    5 -     5          1.533368136939          0.032128981656         -0.177610309718
      0.2692096000D+01  0.1000000000D+01
 Atom Pa1      Shell     6 S   1     bf    6 -     6          1.533368136939          0.032128981656         -0.177610309718
      0.1453847000D+01  0.1000000000D+01
 Atom Pa1      Shell     7 S   1     bf    7 -     7          1.533368136939          0.032128981656         -0.177610309718
      0.5743520000D+00  0.1000000000D+01
 Atom Pa1      Shell     8 S   1     bf    8 -     8          1.533368136939          0.032128981656         -0.177610309718
      0.2634680000D+00  0.1000000000D+01
 Atom Pa1      Shell     9 S   1     bf    9 -     9          1.533368136939          0.032128981656         -0.177610309718
      0.5655700000D-01  0.1000000000D+01
 Atom Pa1      Shell    10 S   1     bf   10 -    10          1.533368136939          0.032128981656         -0.177610309718
      0.2316900000D-01  0.1000000000D+01
 Atom Pa1      Shell    11 P   5     bf   11 -    13          1.533368136939          0.032128981656         -0.177610309718
      0.2903367600D+04  0.2594222647D-02
      0.6448635600D+03  0.1519473264D-01
      0.2202589600D+03  0.9272492945D-01
      0.8027640100D+02  0.1821144298D+00
      0.2408021100D+02  0.8294100404D+00
 Atom Pa1      Shell    12 P   1     bf   14 -    16          1.533368136939          0.032128981656         -0.177610309718
      0.1407758000D+02  0.1000000000D+01
 Atom Pa1      Shell    13 P   1     bf   17 -    19          1.533368136939          0.032128981656         -0.177610309718
      0.8265846000D+01  0.1000000000D+01
 Atom Pa1      Shell    14 P   1     bf   20 -    22          1.533368136939          0.032128981656         -0.177610309718
      0.3594800000D+01  0.1000000000D+01
 Atom Pa1      Shell    15 P   1     bf   23 -    25          1.533368136939          0.032128981656         -0.177610309718
      0.1753111000D+01  0.1000000000D+01
 Atom Pa1      Shell    16 P   1     bf   26 -    28          1.533368136939          0.032128981656         -0.177610309718
      0.6577670000D+00  0.1000000000D+01
 Atom Pa1      Shell    17 P   1     bf   29 -    31          1.533368136939          0.032128981656         -0.177610309718
      0.2846390000D+00  0.1000000000D+01
 Atom Pa1      Shell    18 P   1     bf   32 -    34          1.533368136939          0.032128981656         -0.177610309718
      0.1005430000D+00  0.1000000000D+01
 Atom Pa1      Shell    19 P   1     bf   35 -    37          1.533368136939          0.032128981656         -0.177610309718
      0.3019000000D-01  0.1000000000D+01
 Atom Pa1      Shell    20 D   6     bf   38 -    42          1.533368136939          0.032128981656         -0.177610309718
      0.4481499100D+03  0.6556927566D-04
      0.1544614500D+03  0.5749921096D-03
      0.6092537700D+02  0.2279793277D-02
      0.1703209100D+02  0.6467904664D-01
      0.1001887700D+02 -0.2666929411D+00
      0.3409193000D+01  0.1128376621D+01
 Atom Pa1      Shell    21 D   1     bf   43 -    47          1.533368136939          0.032128981656         -0.177610309718
      0.1670213000D+01  0.1000000000D+01
 Atom Pa1      Shell    22 D   1     bf   48 -    52          1.533368136939          0.032128981656         -0.177610309718
      0.7410950000D+00  0.1000000000D+01
 Atom Pa1      Shell    23 D   1     bf   53 -    57          1.533368136939          0.032128981656         -0.177610309718
      0.2613930000D+00  0.1000000000D+01
 Atom Pa1      Shell    24 D   1     bf   58 -    62          1.533368136939          0.032128981656         -0.177610309718
      0.8281100000D-01  0.1000000000D+01
 Atom Pa1      Shell    25 F   5     bf   63 -    69          1.533368136939          0.032128981656         -0.177610309718
      0.8799132700D+02  0.4766318191D-03
      0.2834019500D+02  0.4899184583D-02
      0.1244099400D+02  0.9669720755D-02
      0.3957296000D+01  0.3310292343D+00
      0.1875944000D+01  0.7275531640D+00
 Atom Pa1      Shell    26 F   1     bf   70 -    76          1.533368136939          0.032128981656         -0.177610309718
      0.8275890000D+00  0.1000000000D+01
 Atom Pa1      Shell    27 F   1     bf   77 -    83          1.533368136939          0.032128981656         -0.177610309718
      0.3327480000D+00  0.1000000000D+01
 Atom Pa1      Shell    28 F   1     bf   84 -    90          1.533368136939          0.032128981656         -0.177610309718
      0.1146850000D+00  0.1000000000D+01
 Atom Pa1      Shell    29 G   1     bf   91 -    99          1.533368136939          0.032128981656         -0.177610309718
      0.3500000000D+00  0.1000000000D+01
 Atom I2       Shell    30 S   5     bf  100 -   100         -4.381865114272         -0.030229953769         -0.092395209561
      0.5899579153D+04  0.2610056321D-03
      0.8985423877D+03  0.1669739989D-02
      0.2003723791D+03  0.4622329849D-02
      0.3141805384D+02 -0.4253426840D-01
      0.1564598784D+02  0.1036831842D+01
 Atom I2       Shell    31 S   2     bf  101 -   101         -4.381865114272         -0.030229953769         -0.092395209561
      0.1181574186D+02  0.6510798928D+00
      0.6461445829D+01  0.3642365936D+00
 Atom I2       Shell    32 S   1     bf  102 -   102         -4.381865114272         -0.030229953769         -0.092395209561
      0.2383806758D+01  0.1000000000D+01
 Atom I2       Shell    33 S   1     bf  103 -   103         -4.381865114272         -0.030229953769         -0.092395209561
      0.1171208966D+01  0.1000000000D+01
 Atom I2       Shell    34 S   1     bf  104 -   104         -4.381865114272         -0.030229953769         -0.092395209561
      0.3211587576D+00  0.1000000000D+01
 Atom I2       Shell    35 S   1     bf  105 -   105         -4.381865114272         -0.030229953769         -0.092395209561
      0.1238791936D+00  0.1000000000D+01
 Atom I2       Shell    36 P   4     bf  106 -   108         -4.381865114272         -0.030229953769         -0.092395209561
      0.1298431690D+02 -0.3868165906D-01
      0.3619950301D+01  0.3065970959D+00
      0.2023227309D+01  0.5169312450D+00
      0.1036749056D+01  0.2505722415D+00
 Atom I2       Shell    37 P   3     bf  109 -   111         -4.381865114272         -0.030229953769         -0.092395209561
      0.1973003055D+03  0.3192774173D-02
      0.2006141135D+02  0.2856760153D+00
      0.9763146048D+01 -0.1232820499D+01
 Atom I2       Shell    38 P   1     bf  112 -   114         -4.381865114272         -0.030229953769         -0.092395209561
      0.4593781600D+00  0.1000000000D+01
 Atom I2       Shell    39 P   1     bf  115 -   117         -4.381865114272         -0.030229953769         -0.092395209561
      0.1911653293D+00  0.1000000000D+01
 Atom I2       Shell    40 P   1     bf  118 -   120         -4.381865114272         -0.030229953769         -0.092395209561
      0.7487881302D-01  0.1000000000D+01
 Atom I2       Shell    41 D   6     bf  121 -   125         -4.381865114272         -0.030229953769         -0.092395209561
      0.1191267175D+03  0.8836386893D-03
      0.3340424013D+02  0.7315261132D-02
      0.1780591820D+02 -0.1102799620D-01
      0.4899051035D+01  0.2425357632D+00
      0.2451675311D+01  0.4726529041D+00
      0.1182069343D+01  0.3934356931D+00
 Atom I2       Shell    42 D   1     bf  126 -   130         -4.381865114272         -0.030229953769         -0.092395209561
      0.5292311007D+00  0.1000000000D+01
 Atom I2       Shell    43 D   1     bf  131 -   135         -4.381865114272         -0.030229953769         -0.092395209561
      0.1700000000D+00  0.1000000000D+01
 Atom I2       Shell    44 F   1     bf  136 -   142         -4.381865114272         -0.030229953769         -0.092395209561
      0.4414180800D+00  0.1000000000D+01
 Atom I2       Shell    45 F   1     bf  143 -   149         -4.381865114272         -0.030229953769         -0.092395209561
      0.2180000000D+01  0.1000000000D+01
 Atom H3       Shell    46 S   3     bf  150 -   150          2.310896264109         -0.976885751501          5.204219562274
      0.3406134100D+02  0.2543930721D-01
      0.5123574600D+01  0.1900859489D+00
      0.1164662600D+01  0.8524411301D+00
 Atom H3       Shell    47 S   1     bf  151 -   151          2.310896264109         -0.976885751501          5.204219562274
      0.3272304100D+00  0.1000000000D+01
 Atom H3       Shell    48 S   1     bf  152 -   152          2.310896264109         -0.976885751501          5.204219562274
      0.1030724100D+00  0.1000000000D+01
 Atom H3       Shell    49 P   1     bf  153 -   155          2.310896264109         -0.976885751501          5.204219562274
      0.8000000000D+00  0.1000000000D+01
 Atom O4       Shell    50 S   6     bf  156 -   156          1.823935382613         -0.019919812271          3.733052847745
      0.2703238263D+05  0.5722733521D-03
      0.4052387139D+04  0.4435323349D-02
      0.9223272271D+03  0.2302010771D-01
      0.2612407099D+03  0.9282249067D-01
      0.8535464135D+02  0.2937850001D+00
      0.3103503524D+02  0.6740160450D+00
 Atom O4       Shell    51 S   2     bf  157 -   157          1.823935382613         -0.019919812271          3.733052847745
      0.1226086073D+02  0.6383993703D+00
      0.4998707601D+01  0.3953458713D+00
 Atom O4       Shell    52 S   1     bf  158 -   158          1.823935382613         -0.019919812271          3.733052847745
      0.1170310816D+01  0.1000000000D+01
 Atom O4       Shell    53 S   1     bf  159 -   159          1.823935382613         -0.019919812271          3.733052847745
      0.4647474099D+00  0.1000000000D+01
 Atom O4       Shell    54 S   1     bf  160 -   160          1.823935382613         -0.019919812271          3.733052847745
      0.1850453636D+00  0.1000000000D+01
 Atom O4       Shell    55 P   4     bf  161 -   163          1.823935382613         -0.019919812271          3.733052847745
      0.6327495480D+02  0.1201833222D-01
      0.1462704938D+02  0.8300542179D-01
      0.4450122346D+01  0.3199174393D+00
      0.1527579965D+01  0.7071554292D+00
 Atom O4       Shell    56 P   1     bf  164 -   166          1.823935382613         -0.019919812271          3.733052847745
      0.5293511794D+00  0.1000000000D+01
 Atom O4       Shell    57 P   1     bf  167 -   169          1.823935382613         -0.019919812271          3.733052847745
      0.1747842127D+00  0.1000000000D+01
 Atom O4       Shell    58 D   1     bf  170 -   174          1.823935382613         -0.019919812271          3.733052847745
      0.2314000000D+01  0.1000000000D+01
 Atom O4       Shell    59 D   1     bf  175 -   179          1.823935382613         -0.019919812271          3.733052847745
      0.6450000000D+00  0.1000000000D+01
 Atom O4       Shell    60 F   1     bf  180 -   186          1.823935382613         -0.019919812271          3.733052847745
      0.1428000000D+01  0.1000000000D+01
 Atom H5       Shell    61 S   3     bf  187 -   187          1.290302084487          5.416045996079          0.861743509119
      0.3406134100D+02  0.2543930721D-01
      0.5123574600D+01  0.1900859489D+00
      0.1164662600D+01  0.8524411301D+00
 Atom H5       Shell    62 S   1     bf  188 -   188          1.290302084487          5.416045996079          0.861743509119
      0.3272304100D+00  0.1000000000D+01
 Atom H5       Shell    63 S   1     bf  189 -   189          1.290302084487          5.416045996079          0.861743509119
      0.1030724100D+00  0.1000000000D+01
 Atom H5       Shell    64 P   1     bf  190 -   192          1.290302084487          5.416045996079          0.861743509119
      0.8000000000D+00  0.1000000000D+01
 Atom O6       Shell    65 S   6     bf  193 -   193          1.466182904360         -3.880980656101         -0.342287707961
      0.2703238263D+05  0.5722733521D-03
      0.4052387139D+04  0.4435323349D-02
      0.9223272271D+03  0.2302010771D-01
      0.2612407099D+03  0.9282249067D-01
      0.8535464135D+02  0.2937850001D+00
      0.3103503524D+02  0.6740160450D+00
 Atom O6       Shell    66 S   2     bf  194 -   194          1.466182904360         -3.880980656101         -0.342287707961
      0.1226086073D+02  0.6383993703D+00
      0.4998707601D+01  0.3953458713D+00
 Atom O6       Shell    67 S   1     bf  195 -   195          1.466182904360         -3.880980656101         -0.342287707961
      0.1170310816D+01  0.1000000000D+01
 Atom O6       Shell    68 S   1     bf  196 -   196          1.466182904360         -3.880980656101         -0.342287707961
      0.4647474099D+00  0.1000000000D+01
 Atom O6       Shell    69 S   1     bf  197 -   197          1.466182904360         -3.880980656101         -0.342287707961
      0.1850453636D+00  0.1000000000D+01
 Atom O6       Shell    70 P   4     bf  198 -   200          1.466182904360         -3.880980656101         -0.342287707961
      0.6327495480D+02  0.1201833222D-01
      0.1462704938D+02  0.8300542179D-01
      0.4450122346D+01  0.3199174393D+00
      0.1527579965D+01  0.7071554292D+00
 Atom O6       Shell    71 P   1     bf  201 -   203          1.466182904360         -3.880980656101         -0.342287707961
      0.5293511794D+00  0.1000000000D+01
 Atom O6       Shell    72 P   1     bf  204 -   206          1.466182904360         -3.880980656101         -0.342287707961
      0.1747842127D+00  0.1000000000D+01
 Atom O6       Shell    73 D   1     bf  207 -   211          1.466182904360         -3.880980656101         -0.342287707961
      0.2314000000D+01  0.1000000000D+01
 Atom O6       Shell    74 D   1     bf  212 -   216          1.466182904360         -3.880980656101         -0.342287707961
      0.6450000000D+00  0.1000000000D+01
 Atom O6       Shell    75 F   1     bf  217 -   223          1.466182904360         -3.880980656101         -0.342287707961
      0.1428000000D+01  0.1000000000D+01
 Atom H7       Shell    76 S   3     bf  224 -   224          1.647180919646         -5.542570408427          0.387999525380
      0.3406134100D+02  0.2543930721D-01
      0.5123574600D+01  0.1900859489D+00
      0.1164662600D+01  0.8524411301D+00
 Atom H7       Shell    77 S   1     bf  225 -   225          1.647180919646         -5.542570408427          0.387999525380
      0.3272304100D+00  0.1000000000D+01
 Atom H7       Shell    78 S   1     bf  226 -   226          1.647180919646         -5.542570408427          0.387999525380
      0.1030724100D+00  0.1000000000D+01
 Atom H7       Shell    79 P   1     bf  227 -   229          1.647180919646         -5.542570408427          0.387999525380
      0.8000000000D+00  0.1000000000D+01
 Atom O8       Shell    80 S   6     bf  230 -   230          5.407126095120          0.057463606283         -1.141998264470
      0.2703238263D+05  0.5722733521D-03
      0.4052387139D+04  0.4435323349D-02
      0.9223272271D+03  0.2302010771D-01
      0.2612407099D+03  0.9282249067D-01
      0.8535464135D+02  0.2937850001D+00
      0.3103503524D+02  0.6740160450D+00
 Atom O8       Shell    81 S   2     bf  231 -   231          5.407126095120          0.057463606283         -1.141998264470
      0.1226086073D+02  0.6383993703D+00
      0.4998707601D+01  0.3953458713D+00
 Atom O8       Shell    82 S   1     bf  232 -   232          5.407126095120          0.057463606283         -1.141998264470
      0.1170310816D+01  0.1000000000D+01
 Atom O8       Shell    83 S   1     bf  233 -   233          5.407126095120          0.057463606283         -1.141998264470
      0.4647474099D+00  0.1000000000D+01
 Atom O8       Shell    84 S   1     bf  234 -   234          5.407126095120          0.057463606283         -1.141998264470
      0.1850453636D+00  0.1000000000D+01
 Atom O8       Shell    85 P   4     bf  235 -   237          5.407126095120          0.057463606283         -1.141998264470
      0.6327495480D+02  0.1201833222D-01
      0.1462704938D+02  0.8300542179D-01
      0.4450122346D+01  0.3199174393D+00
      0.1527579965D+01  0.7071554292D+00
 Atom O8       Shell    86 P   1     bf  238 -   240          5.407126095120          0.057463606283         -1.141998264470
      0.5293511794D+00  0.1000000000D+01
 Atom O8       Shell    87 P   1     bf  241 -   243          5.407126095120          0.057463606283         -1.141998264470
      0.1747842127D+00  0.1000000000D+01
 Atom O8       Shell    88 D   1     bf  244 -   248          5.407126095120          0.057463606283         -1.141998264470
      0.2314000000D+01  0.1000000000D+01
 Atom O8       Shell    89 D   1     bf  249 -   253          5.407126095120          0.057463606283         -1.141998264470
      0.6450000000D+00  0.1000000000D+01
 Atom O8       Shell    90 F   1     bf  254 -   260          5.407126095120          0.057463606283         -1.141998264470
      0.1428000000D+01  0.1000000000D+01
 Atom H9       Shell    91 S   3     bf  261 -   261          6.584685071324         -1.327561030914         -1.301200793106
      0.3406134100D+02  0.2543930721D-01
      0.5123574600D+01  0.1900859489D+00
      0.1164662600D+01  0.8524411301D+00
 Atom H9       Shell    92 S   1     bf  262 -   262          6.584685071324         -1.327561030914         -1.301200793106
      0.3272304100D+00  0.1000000000D+01
 Atom H9       Shell    93 S   1     bf  263 -   263          6.584685071324         -1.327561030914         -1.301200793106
      0.1030724100D+00  0.1000000000D+01
 Atom H9       Shell    94 P   1     bf  264 -   266          6.584685071324         -1.327561030914         -1.301200793106
      0.8000000000D+00  0.1000000000D+01
 Atom O10      Shell    95 S   6     bf  267 -   267          1.411416399833          3.982114538822         -0.260426564394
      0.2703238263D+05  0.5722733521D-03
      0.4052387139D+04  0.4435323349D-02
      0.9223272271D+03  0.2302010771D-01
      0.2612407099D+03  0.9282249067D-01
      0.8535464135D+02  0.2937850001D+00
      0.3103503524D+02  0.6740160450D+00
 Atom O10      Shell    96 S   2     bf  268 -   268          1.411416399833          3.982114538822         -0.260426564394
      0.1226086073D+02  0.6383993703D+00
      0.4998707601D+01  0.3953458713D+00
 Atom O10      Shell    97 S   1     bf  269 -   269          1.411416399833          3.982114538822         -0.260426564394
      0.1170310816D+01  0.1000000000D+01
 Atom O10      Shell    98 S   1     bf  270 -   270          1.411416399833          3.982114538822         -0.260426564394
      0.4647474099D+00  0.1000000000D+01
 Atom O10      Shell    99 S   1     bf  271 -   271          1.411416399833          3.982114538822         -0.260426564394
      0.1850453636D+00  0.1000000000D+01
 Atom O10      Shell   100 P   4     bf  272 -   274          1.411416399833          3.982114538822         -0.260426564394
      0.6327495480D+02  0.1201833222D-01
      0.1462704938D+02  0.8300542179D-01
      0.4450122346D+01  0.3199174393D+00
      0.1527579965D+01  0.7071554292D+00
 Atom O10      Shell   101 P   1     bf  275 -   277          1.411416399833          3.982114538822         -0.260426564394
      0.5293511794D+00  0.1000000000D+01
 Atom O10      Shell   102 P   1     bf  278 -   280          1.411416399833          3.982114538822         -0.260426564394
      0.1747842127D+00  0.1000000000D+01
 Atom O10      Shell   103 D   1     bf  281 -   285          1.411416399833          3.982114538822         -0.260426564394
      0.2314000000D+01  0.1000000000D+01
 Atom O10      Shell   104 D   1     bf  286 -   290          1.411416399833          3.982114538822         -0.260426564394
      0.6450000000D+00  0.1000000000D+01
 Atom O10      Shell   105 F   1     bf  291 -   297          1.411416399833          3.982114538822         -0.260426564394
      0.1428000000D+01  0.1000000000D+01
 Effective core potential in the form of general ECP input:
      1 0
 Pa1-ECP   5 60
 H component
  1
  2        1.0000000        0.00000000    0.00000000
 S-H projection
  1
  2       15.2691737      475.47573283    0.00000000
 P-H projection
  1
  2        9.9577370      207.66485962    0.00000000
 D-H projection
  1
  2        8.9431413      156.67411988    0.00000000
 F-H projection
  1
  2        7.0104666       67.98223685    0.00000000
 G-H projection
  1
  2       12.2010560      -57.63059989    0.00000000
      2 0
 I2-ECP   4 28
 G component
  1
  2        1.0000000        0.00000000    0.00000000
 S-G projection
  3
  2       40.0158350       49.99429300    0.00000000
  2       17.4297470      281.02531700    0.00000000
  2        9.0054840       61.57332600    0.00000000
 P-G projection
  4
  2       15.3554660       67.44284100    0.00000000
  2       14.9718330      134.88113700    0.00000000
  2        8.9601640       14.67505100    0.00000000
  2        8.2590960       29.37566600    0.00000000
 D-G projection
  6
  2       15.0689080       35.43952900    0.00000000
  2       14.5553220       53.17605700    0.00000000
  2        6.7186470        9.06719500    0.00000000
  2        6.4563930       13.20693700    0.00000000
  2        1.1917790        0.08933500    0.00000000
  2        1.2911570        0.05238000    0.00000000
 F-G projection
  4
  2       19.4586090      -21.84204000    0.00000000
  2       19.3492600      -28.46819100    0.00000000
  2        4.8237670       -0.24371300    0.00000000
  2        4.8843150       -0.32080400    0.00000000
 
 There are   349 symmetry adapted cartesian basis functions of A   symmetry.
 There are   297 symmetry adapted basis functions of A   symmetry.
   297 basis functions,   553 primitive gaussians,   349 cartesian basis functions
    46 alpha electrons       46 beta electrons
       nuclear repulsion energy       616.9370722908 Hartrees.
 IExCor=  404 DFT=T Ex=B Corr=P86 ExCW=0 ScaHFX=  0.000000
 ScaDFX=  1.000000  1.000000  1.000000  1.000000 ScalE2=  1.000000  1.000000
 IRadAn=      5 IRanWt=     -1 IRanGd=            0 ICorTp=0 IEmpDi=  4
 NAtoms=   10 NActive=   10 NUniq=   10 SFac= 1.00D+00 NAtFMM=   60 NAOKFM=F Big=F
 Integral buffers will be    131072 words long.
 Raffenetti 2 integral format.
 Two-electron integral symmetry is turned on.
 Warning! Using old PCM defaults because the COSMOthermo output has been requested.
 These settings can be overridden by following keywords.
 Using the following non-standard input for PCM:
 --- end of non-standard input.
 ------------------------------------------------------------------------------
 Polarizable Continuum Model (PCM)
 =================================
 Model                : C-PCM.
 Atomic radii         : Klamt.
 XCosmo               : -1.000 (infinite dielectric limit)
 Polarization charges : Electronic and nuclear charges.
 Charge compensation  : Type 3 (Electronic density weighted correction).
 Solution method      : On-the-fly selection.
 Cavity type          : VdW (van der Waals Surface) (Alpha=1.000).
 Cavity algorithm     : GePol (No added spheres)
                        Default sphere list used, NSphG=   10.
                        Tesserae with average area of 0.200 Ang**2.
                        Smoothing algorithm: None.
                        Polarization charges: point-like.
                        Self-potential: constant (ISelfS= 1).
                        Self-field    : global E.n sum rule (ISelfD= 3).
 Solvent              : Water, Eps=  78.355300 Eps(inf)=   1.777849
 ------------------------------------------------------------------------------
 Spheres list:
 ISph  on   Nord     Re0    Alpha      Xe            Ye            Ze
    1  Pa      1    2.0000  1.170      0.811423      0.017002     -0.093987
    2   I      2    2.3200  1.000     -2.318783     -0.015997     -0.048893
    3   H      3    1.3000  1.000      1.222874     -0.516946      2.753954
    4   O      4    1.7200  1.000      0.965185     -0.010541      1.975446
    5   H      5    1.3000  1.000      0.682798      2.866048      0.456015
    6   O      6    1.7200  1.000      0.775871     -2.053727     -0.181131
    7   H      7    1.3000  1.000      0.871651     -2.933002      0.205321
    8   O      8    1.7200  1.000      2.861328      0.030408     -0.604319
    9   H      9    1.3000  1.000      3.484465     -0.702515     -0.688566
   10   O     10    1.7200  1.000      0.746889      2.107244     -0.137812
 ------------------------------------------------------------------------------
 GePol: Number of generator spheres                  =      10
 GePol: Total number of spheres                      =      10
 GePol: Number of exposed spheres                    =      10 (100.00%)
 GePol: Number of tesserae                           =    1102
 GePol: Average area of tesserae                     =       0.16 Ang**2
 GePol: Minimum area of tessera                      =   0.10D-02 Ang**2
 GePol: Maximum area of tessera                      =    0.35817 Ang**2
 GePol: Number of small tesserae                     =       7
 GePol: Fraction of small tesserae (<1% of avg)      =       0.64%
 GePol: Total count of vertices                      =    3622
 GePol: Maximum number of vertices in a tessera      =       6
 GePol: Cavity surface area                          =    177.786 Ang**2
 GePol: Cavity volume                                =    152.469 Ang**3
 DisRep: Neglecting contributions from atom    1 of solute.
 Leave Link  301 at Wed Jun 28 18:32:44 2023, MaxMem=  2147483648 cpu:               1.3 elap:               0.2
 (Enter /home/pcmt/gaussian/g16.C.01/g16/l302.exe)
 NPDir=0 NMtPBC=     1 NCelOv=     1 NCel=       1 NClECP=     1 NCelD=      1
         NCelK=      1 NCelE2=     1 NClLst=     1 CellRange=     0.0.
 One-electron integrals computed using PRISM.
 One-electron integral symmetry used in STVInt
   1 Symmetry operations used in ECPInt.
 ECPInt:  NShTT=    5565 NPrTT=   16647 LenC2=    5300 LenP2D=   12124.
 LDataN:  DoStor=T MaxTD1= 9 Len=  602
 NBasis=   297 RedAO= T EigKep=  5.70D-04  NBF=   297
 NBsUse=   297 1.00D-06 EigRej= -1.00D+00 NBFU=   297
 Precomputing XC quadrature grid using
 IXCGrd= 4 IRadAn=           5 IRanWt=          -1 IRanGd=           0 AccXCQ= 0.00D+00.
 Defaulting to unpruned grid for atomic number  91.
 Generated NRdTot=       0 NPtTot=           0 NUsed=           0 NTot=          32
 NSgBfM=   344   344   344   344   344 MxSgAt=    10 MxSgA2=    10.
 Leave Link  302 at Wed Jun 28 18:32:46 2023, MaxMem=  2147483648 cpu:               8.6 elap:               1.4
 (Enter /home/pcmt/gaussian/g16.C.01/g16/l303.exe)
 DipDrv:  MaxL=1.
 Leave Link  303 at Wed Jun 28 18:32:46 2023, MaxMem=  2147483648 cpu:               0.4 elap:               0.1
 (Enter /home/pcmt/gaussian/g16.C.01/g16/l401.exe)
 ExpMin= 2.32D-02 ExpMax= 2.70D+04 ExpMxC= 1.20D+04 IAcc=3 IRadAn=         5 AccDes= 0.00D+00
 Harris functional with IExCor=  404 and IRadAn=       5 diagonalized for initial guess.
 HarFok:  IExCor=  404 AccDes= 0.00D+00 IRadAn=         5 IDoV= 1 UseB2=F ITyADJ=14
 ICtDFT=  3500011 ScaDFX=  1.000000  1.000000  1.000000  1.000000
 Defaulting to unpruned grid for atomic number  91.
 FoFCou: FMM=F IPFlag=           0 FMFlag=      100000 FMFlg1=           0
         NFxFlg=           0 DoJE=T BraDBF=F KetDBF=T FulRan=T
         wScrn=  0.000000 ICntrl=       500 IOpCl=  0 I1Cent=   200000004 NGrid=           0
         NMat0=    1 NMatS0=      1 NMatT0=    0 NMatD0=    1 NMtDS0=    0 NMtDT0=    0
 Petite list used in FoFCou.
 Harris En= -1044.87161892792    
 JPrj=0 DoOrth=F DoCkMO=F.
 Leave Link  401 at Wed Jun 28 18:32:48 2023, MaxMem=  2147483648 cpu:              15.8 elap:               2.0
 (Enter /home/pcmt/gaussian/g16.C.01/g16/l502.exe)
 Keep J ints in memory in canonical form, NReq=1000625204.
 FoFCou: FMM=F IPFlag=           0 FMFlag=           0 FMFlg1=           0
         NFxFlg=           0 DoJE=F BraDBF=F KetDBF=F FulRan=T
         wScrn=  0.000000 ICntrl=       600 IOpCl=  0 I1Cent=           0 NGrid=           0
         NMat0=    1 NMatS0=  44253 NMatT0=    0 NMatD0=    1 NMtDS0=    0 NMtDT0=    0
 Symmetry not used in FoFCou.
 Two-electron integral symmetry not used.
 Closed shell SCF:
 Using DIIS extrapolation, IDIIS=  1040.
 NGot=  2147483648 LenX=  1168047901 LenY=  1167925659
 Requested convergence on RMS density matrix=1.00D-08 within 100 cycles.
 Requested convergence on MAX density matrix=1.00D-06.
 Requested convergence on             energy=1.00D-06.
 No special actions if energy rises.

 Cycle   1  Pass 1  IDiag  1:
 Defaulting to unpruned grid for atomic number  91.
 Defaulting to unpruned grid for atomic number  91.
 Defaulting to unpruned grid for atomic number  91.
 Defaulting to unpruned grid for atomic number  91.
 Defaulting to unpruned grid for atomic number  91.
 Defaulting to unpruned grid for atomic number  91.
 Defaulting to unpruned grid for atomic number  91.
 Defaulting to unpruned grid for atomic number  91.
 Using charges instead of weights in PCMQM.
 Inv3:  Mode=1 IEnd=     3643212.
 Iteration    1 A*A^-1 deviation from unit magnitude is 1.35D-14 for    950.
 Iteration    1 A*A^-1 deviation from orthogonality  is 4.21D-15 for    950    649.
 Iteration    1 A^-1*A deviation from unit magnitude is 1.35D-14 for    950.
 Iteration    1 A^-1*A deviation from orthogonality  is 6.59D-15 for    950    649.
 E= -1042.26581793856    
 DIIS: error= 3.42D-02 at cycle   1 NSaved=   1.
 NSaved= 1 IEnMin= 1 EnMin= -1042.26581793856     IErMin= 1 ErrMin= 3.42D-02
 ErrMax= 3.42D-02  0.00D+00 EMaxC= 1.00D-01 BMatC= 1.42D+00 BMatP= 1.42D+00
 IDIUse=3 WtCom= 6.58D-01 WtEn= 3.42D-01
 Coeff-Com:  0.100D+01
 Coeff-En:   0.100D+01
 Coeff:      0.100D+01
 Gap=     0.172 Goal=   None    Shift=    0.000
 GapD=    0.172 DampG=1.000 DampE=0.250 DampFc=0.2500 IDamp=-1.
 Damping current iteration by 2.50D-01
 RMSDP=1.38D-02 MaxDP=1.40D+00              OVMax= 9.96D-01

 Cycle   2  Pass 1  IDiag  1:
 E= -1040.08772529357     Delta-E=        2.178092644991 Rises=F Damp=T
 DIIS: error= 3.97D-02 at cycle   2 NSaved=   2.
 NSaved= 2 IEnMin= 1 EnMin= -1042.26581793856     IErMin= 1 ErrMin= 3.42D-02
 ErrMax= 3.97D-02  0.00D+00 EMaxC= 1.00D-01 BMatC= 1.37D+00 BMatP= 1.42D+00
 IDIUse=3 WtCom= 6.03D-01 WtEn= 3.97D-01
 Coeff-Com:  0.495D+00 0.505D+00
 Coeff-En:   0.740D+00 0.260D+00
 Coeff:      0.593D+00 0.407D+00
 Gap=     0.018 Goal=   None    Shift=    0.000
 RMSDP=3.51D-03 MaxDP=1.25D-01 DE= 2.18D+00 OVMax= 9.53D-01

 Cycle   3  Pass 1  IDiag  1:
 E= -1042.74626036983     Delta-E=       -2.658535076266 Rises=F Damp=F
 DIIS: error= 3.19D-02 at cycle   3 NSaved=   3.
 NSaved= 3 IEnMin= 3 EnMin= -1042.74626036983     IErMin= 3 ErrMin= 3.19D-02
 ErrMax= 3.19D-02  0.00D+00 EMaxC= 1.00D-01 BMatC= 6.16D-01 BMatP= 1.37D+00
 IDIUse=3 WtCom= 6.81D-01 WtEn= 3.19D-01
 EnCoef did     3 forward-backward iterations
 Coeff-Com:  0.295D+00 0.341D+00 0.364D+00
 Coeff-En:   0.282D+00 0.925D-01 0.625D+00
 Coeff:      0.291D+00 0.262D+00 0.447D+00
 Gap=     0.257 Goal=   None    Shift=    0.000
 RMSDP=2.91D-03 MaxDP=1.63D-01 DE=-2.66D+00 OVMax= 1.79D-01

 Cycle   4  Pass 1  IDiag  1:
 E= -1043.17862427943     Delta-E=       -0.432363909595 Rises=F Damp=F
 DIIS: error= 1.04D-02 at cycle   4 NSaved=   4.
 NSaved= 4 IEnMin= 4 EnMin= -1043.17862427943     IErMin= 4 ErrMin= 1.04D-02
 ErrMax= 1.04D-02  0.00D+00 EMaxC= 1.00D-01 BMatC= 8.59D-02 BMatP= 6.16D-01
 IDIUse=3 WtCom= 8.96D-01 WtEn= 1.04D-01
 Coeff-Com: -0.623D-01 0.105D+00 0.202D+00 0.755D+00
 Coeff-En:   0.000D+00 0.000D+00 0.145D-01 0.985D+00
 Coeff:     -0.559D-01 0.941D-01 0.182D+00 0.779D+00
 Gap=     0.109 Goal=   None    Shift=    0.000
 RMSDP=7.46D-04 MaxDP=3.76D-02 DE=-4.32D-01 OVMax= 5.47D-02

 Cycle   5  Pass 1  IDiag  1:
 E= -1043.23820383076     Delta-E=       -0.059579551329 Rises=F Damp=F
 DIIS: error= 2.58D-03 at cycle   5 NSaved=   5.
 NSaved= 5 IEnMin= 5 EnMin= -1043.23820383076     IErMin= 5 ErrMin= 2.58D-03
 ErrMax= 2.58D-03  0.00D+00 EMaxC= 1.00D-01 BMatC= 7.80D-03 BMatP= 8.59D-02
 IDIUse=3 WtCom= 9.74D-01 WtEn= 2.58D-02
 Coeff-Com: -0.430D-01 0.241D-01-0.449D-02 0.284D+00 0.740D+00
 Coeff-En:   0.000D+00 0.000D+00 0.000D+00 0.000D+00 0.100D+01
 Coeff:     -0.419D-01 0.234D-01-0.437D-02 0.276D+00 0.747D+00
 Gap=     0.088 Goal=   None    Shift=    0.000
 RMSDP=4.23D-04 MaxDP=2.83D-02 DE=-5.96D-02 OVMax= 3.62D-02

 Cycle   6  Pass 1  IDiag  1:
 E= -1043.24332141034     Delta-E=       -0.005117579580 Rises=F Damp=F
 DIIS: error= 2.15D-03 at cycle   6 NSaved=   6.
 NSaved= 6 IEnMin= 6 EnMin= -1043.24332141034     IErMin= 6 ErrMin= 2.15D-03
 ErrMax= 2.15D-03  0.00D+00 EMaxC= 1.00D-01 BMatC= 3.37D-03 BMatP= 7.80D-03
 IDIUse=3 WtCom= 9.79D-01 WtEn= 2.15D-02
 Coeff-Com: -0.141D-01 0.354D-02-0.401D-01 0.247D-01 0.522D+00 0.504D+00
 Coeff-En:   0.000D+00 0.000D+00 0.000D+00 0.000D+00 0.101D+00 0.899D+00
 Coeff:     -0.138D-01 0.347D-02-0.393D-01 0.242D-01 0.513D+00 0.512D+00
 Gap=     0.086 Goal=   None    Shift=    0.000
 RMSDP=2.42D-04 MaxDP=1.30D-02 DE=-5.12D-03 OVMax= 2.43D-02

 Cycle   7  Pass 1  IDiag  1:
 E= -1043.24640878761     Delta-E=       -0.003087377274 Rises=F Damp=F
 DIIS: error= 1.25D-03 at cycle   7 NSaved=   7.
 NSaved= 7 IEnMin= 7 EnMin= -1043.24640878761     IErMin= 7 ErrMin= 1.25D-03
 ErrMax= 1.25D-03  0.00D+00 EMaxC= 1.00D-01 BMatC= 1.93D-03 BMatP= 3.37D-03
 IDIUse=3 WtCom= 9.88D-01 WtEn= 1.25D-02
 Coeff-Com:  0.810D-02-0.261D-02-0.292D-01-0.659D-01 0.275D+00 0.414D+00
 Coeff-Com:  0.400D+00
 Coeff-En:   0.000D+00 0.000D+00 0.000D+00 0.000D+00 0.000D+00 0.000D+00
 Coeff-En:   0.100D+01
 Coeff:      0.800D-02-0.257D-02-0.288D-01-0.651D-01 0.272D+00 0.409D+00
 Coeff:      0.408D+00
 Gap=     0.087 Goal=   None    Shift=    0.000
 RMSDP=1.57D-04 MaxDP=9.18D-03 DE=-3.09D-03 OVMax= 1.61D-02

 Cycle   8  Pass 1  IDiag  1:
 E= -1043.24716901263     Delta-E=       -0.000760225019 Rises=F Damp=F
 DIIS: error= 1.67D-03 at cycle   8 NSaved=   8.
 NSaved= 8 IEnMin= 8 EnMin= -1043.24716901263     IErMin= 7 ErrMin= 1.25D-03
 ErrMax= 1.67D-03  0.00D+00 EMaxC= 1.00D-01 BMatC= 2.40D-03 BMatP= 1.93D-03
 IDIUse=3 WtCom= 9.88D-01 WtEn= 1.25D-02
 Coeff-Com:  0.159D-01-0.186D-02-0.127D-01-0.358D-01 0.236D+00 0.234D+00
 Coeff-Com:  0.120D+00 0.444D+00
 Coeff-En:   0.000D+00 0.000D+00 0.000D+00 0.000D+00 0.000D+00 0.000D+00
 Coeff-En:   0.898D-01 0.910D+00
 Coeff:      0.157D-01-0.184D-02-0.126D-01-0.354D-01 0.233D+00 0.231D+00
 Coeff:      0.120D+00 0.450D+00
 Gap=     0.087 Goal=   None    Shift=    0.000
 RMSDP=8.54D-05 MaxDP=9.10D-03 DE=-7.60D-04 OVMax= 6.46D-03

 Cycle   9  Pass 1  IDiag  1:
 E= -1043.24736984696     Delta-E=       -0.000200834331 Rises=F Damp=F
 DIIS: error= 1.17D-03 at cycle   9 NSaved=   9.
 NSaved= 9 IEnMin= 9 EnMin= -1043.24736984696     IErMin= 9 ErrMin= 1.17D-03
 ErrMax= 1.17D-03  0.00D+00 EMaxC= 1.00D-01 BMatC= 8.76D-04 BMatP= 1.93D-03
 IDIUse=3 WtCom= 9.88D-01 WtEn= 1.17D-02
 Coeff-Com: -0.570D-03-0.313D-02 0.203D-01 0.102D+00 0.648D-01-0.175D+00
 Coeff-Com: -0.607D+00-0.197D+00 0.179D+01
 Coeff-En:   0.000D+00 0.000D+00 0.000D+00 0.000D+00 0.000D+00 0.000D+00
 Coeff-En:   0.000D+00 0.000D+00 0.100D+01
 Coeff:     -0.564D-03-0.309D-02 0.200D-01 0.101D+00 0.640D-01-0.173D+00
 Coeff:     -0.600D+00-0.194D+00 0.179D+01
 Gap=     0.092 Goal=   None    Shift=    0.000
 RMSDP=8.60D-05 MaxDP=5.57D-03 DE=-2.01D-04 OVMax= 1.02D-02

 Cycle  10  Pass 1  IDiag  1:
 E= -1043.24796434801     Delta-E=       -0.000594501046 Rises=F Damp=F
 DIIS: error= 4.72D-04 at cycle  10 NSaved=  10.
 NSaved=10 IEnMin=10 EnMin= -1043.24796434801     IErMin=10 ErrMin= 4.72D-04
 ErrMax= 4.72D-04  0.00D+00 EMaxC= 1.00D-01 BMatC= 1.12D-04 BMatP= 8.76D-04
 IDIUse=3 WtCom= 9.95D-01 WtEn= 4.72D-03
 Coeff-Com: -0.569D-03-0.152D-02 0.158D-01 0.577D-01-0.713D-01-0.180D+00
 Coeff-Com: -0.418D+00-0.172D+00 0.957D+00 0.813D+00
 Coeff-En:   0.000D+00 0.000D+00 0.000D+00 0.000D+00 0.000D+00 0.000D+00
 Coeff-En:   0.000D+00 0.230D-02 0.000D+00 0.998D+00
 Coeff:     -0.566D-03-0.152D-02 0.158D-01 0.574D-01-0.710D-01-0.179D+00
 Coeff:     -0.416D+00-0.171D+00 0.953D+00 0.813D+00
 Gap=     0.091 Goal=   None    Shift=    0.000
 RMSDP=1.31D-04 MaxDP=7.72D-03 DE=-5.95D-04 OVMax= 1.48D-02

 Cycle  11  Pass 1  IDiag  1:
 E= -1043.24780772126     Delta-E=        0.000156626750 Rises=F Damp=F
 DIIS: error= 8.19D-04 at cycle  11 NSaved=  11.
 NSaved=11 IEnMin=10 EnMin= -1043.24796434801     IErMin=10 ErrMin= 4.72D-04
 ErrMax= 8.19D-04  0.00D+00 EMaxC= 1.00D-01 BMatC= 4.35D-04 BMatP= 1.12D-04
 IDIUse=3 WtCom= 9.95D-01 WtEn= 4.72D-03
 Coeff-Com: -0.230D-02-0.391D-03 0.757D-02 0.408D-01-0.189D-01-0.716D-01
 Coeff-Com: -0.264D+00-0.292D+00 0.653D+00 0.588D+00 0.360D+00
 Coeff-En:   0.000D+00 0.000D+00 0.000D+00 0.000D+00 0.000D+00 0.000D+00
 Coeff-En:   0.000D+00 0.000D+00 0.000D+00 0.641D+00 0.359D+00
 Coeff:     -0.229D-02-0.389D-03 0.754D-02 0.406D-01-0.188D-01-0.713D-01
 Coeff:     -0.263D+00-0.290D+00 0.649D+00 0.588D+00 0.360D+00
 Gap=     0.093 Goal=   None    Shift=    0.000
 RMSDP=8.95D-05 MaxDP=5.41D-03 DE= 1.57D-04 OVMax= 9.72D-03

 Cycle  12  Pass 1  IDiag  1:
 E= -1043.24812612240     Delta-E=       -0.000318401143 Rises=F Damp=F
 DIIS: error= 1.10D-04 at cycle  12 NSaved=  12.
 NSaved=12 IEnMin=12 EnMin= -1043.24812612240     IErMin=12 ErrMin= 1.10D-04
 ErrMax= 1.10D-04  0.00D+00 EMaxC= 1.00D-01 BMatC= 9.47D-06 BMatP= 1.12D-04
 IDIUse=3 WtCom= 9.99D-01 WtEn= 1.10D-03
 Coeff-Com: -0.123D-02-0.189D-03 0.274D-02 0.179D-01-0.531D-02-0.235D-01
 Coeff-Com: -0.102D+00-0.136D+00 0.225D+00 0.265D+00 0.248D+00 0.509D+00
 Coeff-En:   0.000D+00 0.000D+00 0.000D+00 0.000D+00 0.000D+00 0.000D+00
 Coeff-En:   0.000D+00 0.000D+00 0.000D+00 0.000D+00 0.000D+00 0.100D+01
 Coeff:     -0.123D-02-0.189D-03 0.273D-02 0.179D-01-0.530D-02-0.235D-01
 Coeff:     -0.102D+00-0.136D+00 0.225D+00 0.265D+00 0.248D+00 0.509D+00
 Gap=     0.090 Goal=   None    Shift=    0.000
 RMSDP=6.49D-06 MaxDP=2.15D-04 DE=-3.18D-04 OVMax= 7.33D-04

 Cycle  13  Pass 1  IDiag  1:
 E= -1043.24813409410     Delta-E=       -0.000007971696 Rises=F Damp=F
 DIIS: error= 8.39D-05 at cycle  13 NSaved=  13.
 NSaved=13 IEnMin=13 EnMin= -1043.24813409410     IErMin=13 ErrMin= 8.39D-05
 ErrMax= 8.39D-05  0.00D+00 EMaxC= 1.00D-01 BMatC= 2.91D-06 BMatP= 9.47D-06
 IDIUse=1 WtCom= 1.00D+00 WtEn= 0.00D+00
 Coeff-Com: -0.227D-03-0.631D-04 0.538D-03 0.283D-02-0.630D-02-0.561D-02
 Coeff-Com: -0.677D-02-0.111D-01-0.367D-01 0.773D-01 0.114D+00 0.352D+00
 Coeff-Com:  0.520D+00
 Coeff:     -0.227D-03-0.631D-04 0.538D-03 0.283D-02-0.630D-02-0.561D-02
 Coeff:     -0.677D-02-0.111D-01-0.367D-01 0.773D-01 0.114D+00 0.352D+00
 Coeff:      0.520D+00
 Gap=     0.089 Goal=   None    Shift=    0.000
 RMSDP=1.46D-05 MaxDP=8.70D-04 DE=-7.97D-06 OVMax= 1.64D-03

 Cycle  14  Pass 1  IDiag  1:
 E= -1043.24813853220     Delta-E=       -0.000004438107 Rises=F Damp=F
 DIIS: error= 3.37D-05 at cycle  14 NSaved=  14.
 NSaved=14 IEnMin=14 EnMin= -1043.24813853220     IErMin=14 ErrMin= 3.37D-05
 ErrMax= 3.37D-05  0.00D+00 EMaxC= 1.00D-01 BMatC= 9.78D-07 BMatP= 2.91D-06
 IDIUse=1 WtCom= 1.00D+00 WtEn= 0.00D+00
 Coeff-Com: -0.561D-04-0.166D-04 0.865D-04 0.303D-03-0.141D-02-0.121D-03
 Coeff-Com:  0.692D-02 0.542D-02-0.445D-01 0.116D-01 0.311D-01 0.154D+00
 Coeff-Com:  0.355D+00 0.482D+00
 Coeff:     -0.561D-04-0.166D-04 0.865D-04 0.303D-03-0.141D-02-0.121D-03
 Coeff:      0.692D-02 0.542D-02-0.445D-01 0.116D-01 0.311D-01 0.154D+00
 Coeff:      0.355D+00 0.482D+00
 Gap=     0.089 Goal=   None    Shift=    0.000
 RMSDP=3.24D-06 MaxDP=1.78D-04 DE=-4.44D-06 OVMax= 3.50D-04

 Cycle  15  Pass 1  IDiag  1:
 E= -1043.24813931903     Delta-E=       -0.000000786831 Rises=F Damp=F
 DIIS: error= 7.61D-06 at cycle  15 NSaved=  15.
 NSaved=15 IEnMin=15 EnMin= -1043.24813931903     IErMin=15 ErrMin= 7.61D-06
 ErrMax= 7.61D-06  0.00D+00 EMaxC= 1.00D-01 BMatC= 3.49D-08 BMatP= 9.78D-07
 IDIUse=1 WtCom= 1.00D+00 WtEn= 0.00D+00
 Coeff-Com: -0.460D-06-0.258D-05-0.125D-04-0.706D-04-0.136D-03 0.592D-03
 Coeff-Com:  0.319D-02 0.960D-03-0.139D-01 0.117D-02 0.395D-02 0.416D-01
 Coeff-Com:  0.119D+00 0.159D+00 0.685D+00
 Coeff:     -0.460D-06-0.258D-05-0.125D-04-0.706D-04-0.136D-03 0.592D-03
 Coeff:      0.319D-02 0.960D-03-0.139D-01 0.117D-02 0.395D-02 0.416D-01
 Coeff:      0.119D+00 0.159D+00 0.685D+00
 Gap=     0.089 Goal=   None    Shift=    0.000
 RMSDP=7.95D-07 MaxDP=4.45D-05 DE=-7.87D-07 OVMax= 8.40D-05

 Cycle  16  Pass 1  IDiag  1:
 E= -1043.24813939182     Delta-E=       -0.000000072787 Rises=F Damp=F
 DIIS: error= 8.35D-07 at cycle  16 NSaved=  16.
 NSaved=16 IEnMin=16 EnMin= -1043.24813939182     IErMin=16 ErrMin= 8.35D-07
 ErrMax= 8.35D-07  0.00D+00 EMaxC= 1.00D-01 BMatC= 5.38D-10 BMatP= 3.49D-08
 IDIUse=1 WtCom= 1.00D+00 WtEn= 0.00D+00
 Coeff-Com:  0.174D-05-0.985D-07-0.838D-05-0.197D-04 0.119D-03 0.241D-03
 Coeff-Com:  0.489D-03-0.539D-03-0.952D-03-0.636D-03-0.164D-02 0.227D-02
 Coeff-Com:  0.154D-01 0.252D-01 0.312D+00 0.648D+00
 Coeff:      0.174D-05-0.985D-07-0.838D-05-0.197D-04 0.119D-03 0.241D-03
 Coeff:      0.489D-03-0.539D-03-0.952D-03-0.636D-03-0.164D-02 0.227D-02
 Coeff:      0.154D-01 0.252D-01 0.312D+00 0.648D+00
 Gap=     0.089 Goal=   None    Shift=    0.000
 RMSDP=1.62D-07 MaxDP=1.11D-05 DE=-7.28D-08 OVMax= 1.62D-05

 Cycle  17  Pass 1  IDiag  1:
 E= -1043.24813939805     Delta-E=       -0.000000006230 Rises=F Damp=F
 DIIS: error= 1.19D-06 at cycle  17 NSaved=  17.
 NSaved=17 IEnMin=17 EnMin= -1043.24813939805     IErMin=16 ErrMin= 8.35D-07
 ErrMax= 1.19D-06  0.00D+00 EMaxC= 1.00D-01 BMatC= 6.27D-10 BMatP= 5.38D-10
 IDIUse=1 WtCom= 1.00D+00 WtEn= 0.00D+00
 Coeff-Com:  0.787D-06-0.909D-07-0.213D-05-0.849D-05 0.299D-04 0.623D-04
 Coeff-Com:  0.136D-03-0.177D-03-0.236D-03-0.356D-03-0.644D-03-0.278D-03
 Coeff-Com:  0.221D-02 0.952D-02 0.129D+00 0.354D+00 0.507D+00
 Coeff:      0.787D-06-0.909D-07-0.213D-05-0.849D-05 0.299D-04 0.623D-04
 Coeff:      0.136D-03-0.177D-03-0.236D-03-0.356D-03-0.644D-03-0.278D-03
 Coeff:      0.221D-02 0.952D-02 0.129D+00 0.354D+00 0.507D+00
 Gap=     0.089 Goal=   None    Shift=    0.000
 RMSDP=1.12D-07 MaxDP=6.64D-06 DE=-6.23D-09 OVMax= 1.27D-05

 Cycle  18  Pass 1  IDiag  1:
 E= -1043.24813939596     Delta-E=        0.000000002092 Rises=F Damp=F
 DIIS: error= 2.41D-07 at cycle  18 NSaved=  18.
 NSaved=18 IEnMin=17 EnMin= -1043.24813939805     IErMin=18 ErrMin= 2.41D-07
 ErrMax= 2.41D-07  0.00D+00 EMaxC= 1.00D-01 BMatC= 3.52D-11 BMatP= 5.38D-10
 IDIUse=1 WtCom= 1.00D+00 WtEn= 0.00D+00
 Coeff-Com:  0.342D-06-0.460D-07-0.345D-06-0.369D-05 0.578D-05 0.141D-04
 Coeff-Com:  0.418D-04-0.523D-04-0.770D-04-0.207D-03-0.260D-03-0.593D-03
 Coeff-Com: -0.659D-03 0.436D-02 0.591D-01 0.194D+00 0.395D+00 0.349D+00
 Coeff:      0.342D-06-0.460D-07-0.345D-06-0.369D-05 0.578D-05 0.141D-04
 Coeff:      0.418D-04-0.523D-04-0.770D-04-0.207D-03-0.260D-03-0.593D-03
 Coeff:     -0.659D-03 0.436D-02 0.591D-01 0.194D+00 0.395D+00 0.349D+00
 Gap=     0.089 Goal=   None    Shift=    0.000
 RMSDP=2.71D-08 MaxDP=1.58D-06 DE= 2.09D-09 OVMax= 2.95D-06

 Cycle  19  Pass 1  IDiag  1:
 E= -1043.24813939539     Delta-E=        0.000000000572 Rises=F Damp=F
 DIIS: error= 2.10D-08 at cycle  19 NSaved=  19.
 NSaved=19 IEnMin=17 EnMin= -1043.24813939805     IErMin=19 ErrMin= 2.10D-08
 ErrMax= 2.10D-08  0.00D+00 EMaxC= 1.00D-01 BMatC= 3.41D-13 BMatP= 3.52D-11
 IDIUse=1 WtCom= 1.00D+00 WtEn= 0.00D+00
 Coeff-Com:  0.464D-07-0.423D-08-0.597D-07-0.495D-06 0.267D-05 0.529D-05
 Coeff-Com:  0.142D-04-0.785D-05-0.248D-04-0.602D-04-0.569D-04-0.203D-03
 Coeff-Com: -0.377D-03 0.104D-02 0.147D-01 0.495D-01 0.103D+00 0.128D+00
 Coeff-Com:  0.704D+00
 Coeff:      0.464D-07-0.423D-08-0.597D-07-0.495D-06 0.267D-05 0.529D-05
 Coeff:      0.142D-04-0.785D-05-0.248D-04-0.602D-04-0.569D-04-0.203D-03
 Coeff:     -0.377D-03 0.104D-02 0.147D-01 0.495D-01 0.103D+00 0.128D+00
 Coeff:      0.704D+00
 Gap=     0.089 Goal=   None    Shift=    0.000
 RMSDP=1.42D-09 MaxDP=8.23D-08 DE= 5.72D-10 OVMax= 1.13D-07

 Error on nuclear    polarization charges =  0.02361
 Error on electronic polarization charges = -0.06283
 SCF Done:  E(RB-P86) =  -1043.24813940     A.U. after   19 cycles
            NFock= 19  Conv=0.14D-08     -V/T= 2.7932
 KE= 5.817909762316D+02 PE=-3.504903174309D+03 EE= 1.262926986392D+03
 --------------------------------------------------------------------
 Variational C-PCM results
 =========================
 <psi(f)|   H    |psi(f)>                     (a.u.) =   -1043.206872
 <psi(f)|H+V(f)/2|psi(f)>                     (a.u.) =   -1043.248139
 Total free energy in solution:
 - with all non electrostatic terms           (a.u.) =   -1043.232099
 --------------------------------------------------------------------
 (Polarized solute)-Solvent               (kcal/mol) =     -25.90
 --------------------------------------------------------------------
 Cavitation energy                        (kcal/mol) =      22.46
 Dispersion energy                        (kcal/mol) =     -13.79
 Repulsion energy                         (kcal/mol) =       1.39
 Total non electrostatic                  (kcal/mol) =      10.07
 --------------------------------------------------------------------
 Partition over spheres:
 Sphere  on Atom  Surface  Charge   GEl     GCav    GDR
    1     Pa1      17.15  -0.317   -6.47    0.99   -0.22
    2      I2      56.01   0.372   -5.47    6.51   -4.73
    3      H3       9.18  -0.139   -2.94    1.30   -0.96
    4      O4      16.98   0.121   -0.85    2.46   -0.88
    5      H5       9.20  -0.136   -1.96    1.30   -0.91
    6      O6      16.69   0.105    0.03    2.38   -0.82
    7      H7       9.19  -0.141   -3.25    1.30   -0.99
    8      O8      17.29   0.145   -1.03    2.52   -1.15
    9      H9       9.20  -0.129   -2.88    1.30   -0.82
   10      O10     16.89   0.119   -1.07    2.41   -0.93
 --------------------------------------------------------------------
 - cavitation energy not included in the total energy.
 - dispersion energy not included in the total energy.
 - repulsion  energy not included in the total energy.
 After PCM corrections, the energy is  -1043.24813940     a.u.
 --------------------------------------------------------------------
 Writing COSMO formatted file "pa_oh4_I-bp86-cosmors-deftzvp-klamt.cosmo"
 Recomputed dielectric energy= -0.041475 old= -0.041268 diff=-2.07D-04
 Leave Link  502 at Wed Jun 28 18:34:45 2023, MaxMem=  2147483648 cpu:             670.1 elap:             116.6
 (Enter /home/pcmt/gaussian/g16.C.01/g16/l601.exe)
 Copying SCF densities to generalized density rwf, IOpCl= 0 IROHF=0.

 **********************************************************************

            Population analysis using the SCF Density.

 **********************************************************************

 Orbital symmetries:
       Occupied  (A) (A) (A) (A) (A) (A) (A) (A) (A) (A) (A) (A)
                 (A) (A) (A) (A) (A) (A) (A) (A) (A) (A) (A) (A)
                 (A) (A) (A) (A) (A) (A) (A) (A) (A) (A) (A) (A)
                 (A) (A) (A) (A) (A) (A) (A) (A) (A) (A)
       Virtual   (A) (A) (A) (A) (A) (A) (A) (A) (A) (A) (A) (A)
                 (A) (A) (A) (A) (A) (A) (A) (A) (A) (A) (A) (A)
                 (A) (A) (A) (A) (A) (A) (A) (A) (A) (A) (A) (A)
                 (A) (A) (A) (A) (A) (A) (A) (A) (A) (A) (A) (A)
                 (A) (A) (A) (A) (A) (A) (A) (A) (A) (A) (A) (A)
                 (A) (A) (A) (A) (A) (A) (A) (A) (A) (A) (A) (A)
                 (A) (A) (A) (A) (A) (A) (A) (A) (A) (A) (A) (A)
                 (A) (A) (A) (A) (A) (A) (A) (A) (A) (A) (A) (A)
                 (A) (A) (A) (A) (A) (A) (A) (A) (A) (A) (A) (A)
                 (A) (A) (A) (A) (A) (A) (A) (A) (A) (A) (A) (A)
                 (A) (A) (A) (A) (A) (A) (A) (A) (A) (A) (A) (A)
                 (A) (A) (A) (A) (A) (A) (A) (A) (A) (A) (A) (A)
                 (A) (A) (A) (A) (A) (A) (A) (A) (A) (A) (A) (A)
                 (A) (A) (A) (A) (A) (A) (A) (A) (A) (A) (A) (A)
                 (A) (A) (A) (A) (A) (A) (A) (A) (A) (A) (A) (A)
                 (A) (A) (A) (A) (A) (A) (A) (A) (A) (A) (A) (A)
                 (A) (A) (A) (A) (A) (A) (A) (A) (A) (A) (A) (A)
                 (A) (A) (A) (A) (A) (A) (A) (A) (A) (A) (A) (A)
                 (A) (A) (A) (A) (A) (A) (A) (A) (A) (A) (A) (A)
                 (A) (A) (A) (A) (A) (A) (A) (A) (A) (A) (A) (A)
                 (A) (A) (A) (A) (A) (A) (A) (A) (A) (A) (A)
 The electronic state is 1-A.
 Alpha  occ. eigenvalues --  -18.78374 -18.78099 -18.77994 -18.77322 -11.12810
 Alpha  occ. eigenvalues --   -7.19379  -7.19045  -7.18829  -6.58596  -4.64703
 Alpha  occ. eigenvalues --   -4.64500  -4.64440  -3.54852  -3.54822  -3.54764
 Alpha  occ. eigenvalues --   -3.54563  -3.54392  -1.78484  -1.78415  -1.78367
 Alpha  occ. eigenvalues --   -1.78191  -1.78188  -1.74235  -0.97368  -0.95182
 Alpha  occ. eigenvalues --   -0.93712  -0.90288  -0.81723  -0.81024  -0.79450
 Alpha  occ. eigenvalues --   -0.60782  -0.47519  -0.44304  -0.43201  -0.40622
 Alpha  occ. eigenvalues --   -0.32893  -0.31544  -0.31364  -0.30764  -0.30468
 Alpha  occ. eigenvalues --   -0.29770  -0.29098  -0.28404  -0.25095  -0.23544
 Alpha  occ. eigenvalues --   -0.23152
 Alpha virt. eigenvalues --   -0.14223  -0.13909  -0.13119  -0.12642  -0.12011
 Alpha virt. eigenvalues --   -0.11548  -0.10308  -0.08929  -0.02749  -0.01086
 Alpha virt. eigenvalues --   -0.00237   0.00620   0.01551   0.02191   0.02435
 Alpha virt. eigenvalues --    0.04149   0.05205   0.09261   0.10405   0.12140
[...]
  XXY=            -24.4485  XXZ=              0.5096  XZZ=             16.8515  YZZ=             -8.9518
  YYZ=             15.8774  XYZ=              0.4061
 Hexadecapole moment (field-independent basis, Debye-Ang**3):
 XXXX=          -1549.4557 YYYY=           -277.6782 ZZZZ=           -206.7308 XXXY=            -80.0218
 XXXZ=            -10.9232 YYYX=            -22.1963 YYYZ=             11.3244 ZZZX=             28.2413
 ZZZY=            -26.1115 XXYY=           -327.8262 XXZZ=           -301.1896 YYZZ=           -118.7922
 XXYZ=              8.9701 YYXZ=             11.9929 ZZXY=            -14.3947
 N-N= 6.169370722908D+02 E-N=-3.504903166164D+03  KE= 5.817909762316D+02
 Orbital energies and kinetic energies (alpha):
                                 1                 2
   1         O               -18.783745         29.111584
   2         O               -18.780986         29.112882
   3         O               -18.779937         29.111884
   4         O               -18.773218         29.113033
   5         O               -11.128100          4.704180
   6         O                -7.193792          5.037678
   7         O                -7.190449          5.037153
   8         O                -7.188287          5.035820
   9         O                -6.585961          3.224632
  10         O                -4.647033          4.693283
  11         O                -4.644998          4.694291
  12         O                -4.644399          4.694434
  13         O                -3.548522          6.839457
  14         O                -3.548220          6.838670
  15         O                -3.547641          6.838505
  16         O                -3.545627          6.837982
  17         O                -3.543917          6.837228
  18         O                -1.784841          7.061387
  19         O                -1.784152          7.065112
  20         O                -1.783668          7.065514
  21         O                -1.781909          7.068249
  22         O                -1.781881          7.068256
  23         O                -1.742350          6.465623
  24         O                -0.973685          2.304354
  25         O                -0.951822          2.395898
  26         O                -0.937121          2.471953
  27         O                -0.902881          2.977230
  28         O                -0.817226          2.600602
  29         O                -0.810236          2.567574
  30         O                -0.794500          2.621717
  31         O                -0.607817          1.354624
  32         O                -0.475189          3.259849
  33         O                -0.443036          4.133602
  34         O                -0.432010          2.793994
  35         O                -0.406216          2.642832
  36         O                -0.328930          2.799241
  37         O                -0.315445          2.165864
  38         O                -0.313639          2.331642
  39         O                -0.307636          3.440613
  40         O                -0.304682          2.433071
  41         O                -0.297704          2.960628
  42         O                -0.290980          5.014032
  43         O                -0.284037          3.348565
  44         O                -0.250946          2.466212
  45         O                -0.235441          1.127178
  46         O                -0.231523          1.127375
  47         V                -0.142229        148.059575
  48         V                -0.139090          7.491392
  49         V                -0.131192          5.244771
  50         V                -0.126421         18.419154
  51         V                -0.120109         14.374824
  52         V                -0.115477        131.464835
  53         V                -0.103075         73.267991
  54         V                -0.089290         12.530402
  55         V                -0.027493         15.349565
  56         V                -0.010857          2.168262
  57         V                -0.002367          1.679358
  58         V                 0.006197          1.798098
  59         V                 0.015506          1.093443
  60         V                 0.021907          1.041502
  61         V                 0.024348          1.161482
  62         V                 0.041491          2.007407
  63         V                 0.052046          1.654606
  64         V                 0.092610          9.489328
  65         V                 0.104054          1.261703
  66         V                 0.121396          1.133119
  67         V                 0.128861          1.020192
  68         V                 0.146059          1.192724
  69         V                 0.151586          0.911838
  70         V                 0.157809          0.933399
  71         V                 0.164677          1.026837
  72         V                 0.172587          1.032782
  73         V                 0.194074          1.208072
  74         V                 0.202359          1.214899
  75         V                 0.221648          1.333643
  76         V                 0.246122          1.277028
  77         V                 0.254019          1.146773
  78         V                 0.266289          1.221967
  79         V                 0.280283          1.265293
  80         V                 0.292345          1.689699
  81         V                 0.294481          1.551712
  82         V                 0.302720          1.257477
  83         V                 0.323357          1.750318
  84         V                 0.328851          1.308717
  85         V                 0.348070          1.418137
  86         V                 0.381935          1.727302
  87         V                 0.387964          2.233276
  88         V                 0.397809          1.872773
  89         V                 0.432433          1.591908
  90         V                 0.440800          2.004128
  91         V                 0.454042          1.782973
  92         V                 0.462055          1.737840
  93         V                 0.463810          1.643810
  94         V                 0.482762          1.767941
  95         V                 0.499428          1.833843
  96         V                 0.512950          1.493024
  97         V                 0.528595          1.887852
  98         V                 0.536697          1.743410
  99         V                 0.550659          2.361745
 100         V                 0.561290          1.533695
 101         V                 0.574155          1.728374
 102         V                 0.579983          2.347382
 103         V                 0.597456          1.734651
 104         V                 0.605176          1.665456
 105         V                 0.680963          1.810688
 106         V                 0.690381          1.748129
 107         V                 0.728466          1.739579
 108         V                 0.735476          1.688913
 109         V                 0.767983          2.152035
 110         V                 0.797568          2.101655
 111         V                 0.822605          2.427788
 112         V                 0.825938          2.526046
 113         V                 0.828131          2.489341
 114         V                 0.843835          2.478699
 115         V                 0.858230          2.514489
 116         V                 0.872065          2.328178
 117         V                 0.878557          2.442386
 118         V                 0.916043          2.327920
 119         V                 0.959377          3.773042
 120         V                 0.986956          2.436992
 121         V                 1.027622          2.619871
 122         V                 1.054778          2.283330
 123         V                 1.058064          2.519055
 124         V                 1.075564          2.862766
 125         V                 1.085916          2.944794
 126         V                 1.100484          3.295058
 127         V                 1.105760          3.513476
 128         V                 1.114058          3.102178
 129         V                 1.129946          2.752104
 130         V                 1.145706          2.931094
 131         V                 1.157334          2.693655
 132         V                 1.159749          2.831713
 133         V                 1.188965          2.708502
 134         V                 1.195043          2.974790
 135         V                 1.211909          2.870907
 136         V                 1.251974          3.055033
 137         V                 1.275895          3.502945
 138         V                 1.296333          3.137355
 139         V                 1.302162          2.865311
 140         V                 1.328275          3.796602
 141         V                 1.335153          4.162026
 142         V                 1.346473          3.635966
 143         V                 1.362619          3.624044
 144         V                 1.373955          3.037617
 145         V                 1.401756          3.017379
 146         V                 1.418266          2.872778
 147         V                 1.439318          2.805862
 148         V                 1.469933          3.618892
 149         V                 1.478337          3.944564
 150         V                 1.488642          3.640865
 151         V                 1.511089          3.063225
 152         V                 1.525987          3.409752
 153         V                 1.532638          3.370080
 154         V                 1.556760          3.351053
 155         V                 1.575224          3.238499
 156         V                 1.602894          3.517545
 157         V                 1.611530          3.367052
 158         V                 1.682646          3.348654
 159         V                 1.696472          3.062700
 160         V                 1.702430          3.336191
 161         V                 1.730755          3.489520
 162         V                 1.749458          3.492654
 163         V                 1.766901          3.685213
 164         V                 1.781754          3.198527
 165         V                 1.803831          3.476723
 166         V                 1.839330          3.419638
 167         V                 1.849202          3.644168
 168         V                 1.888412          3.803024
 169         V                 1.918370          3.611886
 170         V                 1.929043          3.781249
 171         V                 2.123996          4.174373
 172         V                 2.145538          3.909380
 173         V                 2.167400          3.796630
 174         V                 2.178768          3.523072
 175         V                 2.203342          3.703331
 176         V                 2.232524          4.666175
 177         V                 2.241177          4.114796
 178         V                 2.261564          5.147021
 179         V                 2.272638          3.974550
 180         V                 2.301970          3.975467
 181         V                 2.421039          4.796785
 182         V                 2.453124          4.271030
 183         V                 2.493959          4.398072
 184         V                 2.537340          4.512808
 185         V                 2.567804          6.458569
 186         V                 2.603439          6.937470
 187         V                 2.620770          7.004602
 188         V                 2.649926          6.097157
 189         V                 2.662907          6.371297
 190         V                 2.688930          6.178343
 191         V                 2.720884          6.630348
 192         V                 2.745920          6.576146
 193         V                 2.767102          6.475590
 194         V                 2.885600          7.203841
 195         V                 2.932334          7.130069
 196         V                 2.956303          9.408679
 197         V                 2.960920          9.551308
 198         V                 2.972164          9.510480
 199         V                 3.002578          9.198848
 200         V                 3.014344          8.712060
 201         V                 3.023042          9.264231
 202         V                 3.052005          7.733342
 203         V                 3.068028          9.285266
 204         V                 3.409602          8.565900
 205         V                 3.477907          8.260818
 206         V                 3.530122          8.310634
 207         V                 3.661347          8.448936
 208         V                 3.668431          6.889845
 209         V                 3.689494          7.505797
 210         V                 3.701491          8.544459
 211         V                 3.759809          7.562474
 212         V                 3.795089          9.202775
 213         V                 3.854930          9.445813
 214         V                 3.884694          8.983447
 215         V                 3.922850          9.015122
 216         V                 4.086902          9.253036
 217         V                 4.135364          9.395666
 218         V                 4.159040          8.978989
 219         V                 4.245616          9.066136
 220         V                 4.991073          6.450063
 221         V                 4.992929          6.434253
 222         V                 4.996306          6.438230
 223         V                 4.998128          6.450929
 224         V                 5.005179          6.460987
 225         V                 5.007457          6.466389
 226         V                 5.009373          6.482357
 227         V                 5.018763          6.485038
 228         V                 5.048969          6.614325
 229         V                 5.057083          6.618869
 230         V                 5.068146          6.651912
 231         V                 5.070862          6.659572
 232         V                 5.107256          6.773859
 233         V                 5.118556          6.810270
 234         V                 5.145087          6.857881
 235         V                 5.160840          6.986099
 236         V                 5.291331          6.888466
 237         V                 5.324757          6.943927
 238         V                 5.341062          7.847088
 239         V                 5.358378          7.008194
 240         V                 5.386204          7.075813
 241         V                 5.393819          7.160479
 242         V                 5.425280          7.195645
 243         V                 5.452065          7.314086
 244         V                 5.967982         10.770796
 245         V                 6.072382          8.955147
 246         V                 6.094175          9.239565
 247         V                 6.116924          9.123946
 248         V                 6.138535          9.306003
 249         V                 6.144750          9.239478
 250         V                 6.155396          9.316061
 251         V                 6.207835          9.496502
 252         V                 6.214478          9.490384
 253         V                 6.239916          9.083028
 254         V                 6.274236          9.236279
 255         V                 6.290785          9.330205
 256         V                 6.322883          9.509427
 257         V                 6.377566          9.594267
 258         V                 6.414091          9.637480
 259         V                 6.476795          9.684763
 260         V                 6.490977          9.705236
 261         V                 6.583985         10.059028
 262         V                 6.627868         10.162266
 263         V                 6.685965         10.270633
 264         V                 6.732798         10.351666
 265         V                 6.908623          9.856243
 266         V                 6.965831         10.514596
 267         V                 7.011229         10.071576
 268         V                 7.115006         10.663299
 269         V                 7.227580         13.152519
 270         V                 7.404045         13.484886
 271         V                 7.422671         13.820688
 272         V                 8.105883         15.812607
 273         V                 8.165839         15.801573
 274         V                 8.167505         15.799503
 275         V                 8.513734         16.073185
 276         V                 8.845199         16.316428
 277         V                29.300262         36.048713
 278         V                29.391491         36.129245
 279         V                29.446106         36.192646
 280         V                34.402397         27.527055
 281         V                34.407978         27.530729
 282         V                34.610658         27.687214
 283         V                42.621784         31.776691
 284         V                43.211605        108.474989
 285         V                43.285498        108.284665
 286         V                43.393053        108.755094
 287         V                43.464518        108.835276
 288         V                54.061063         39.978804
 289         V                70.204692         83.974976
 290         V                70.257210         84.070382
 291         V                70.288136         84.132278
 292         V               118.647490         48.327179
 293         V               142.608176        242.460892
 294         V               142.707805        242.585162
 295         V               142.769469        242.663859
 296         V               202.564740        130.084962
 297         V               626.080079       1034.495374
 Total kinetic energy from orbitals= 5.817909762316D+02
 No NMR shielding tensors so no spin-rotation constants.
 Leave Link  601 at Wed Jun 28 18:34:45 2023, MaxMem=  2147483648 cpu:               3.2 elap:               0.4
 (Enter /home/pcmt/gaussian/g16.C.01/g16/l9999.exe)

 Test job not archived.
 1\1\GINC-U-0-0\SP\RBP86\Gen\H4I1O4Pa1\ROOT\28-Jun-2023\0\\#p BP86/GEN 
 Pseudo=Read GFInput GFPrint IOP(6/7=3) Symm=(Loose) Int=(UltraFine) Gu
 ess=(Harris) SCRF=(COSMORS,Read) Scf=(NoVarAcc,MaxCycle=100,conver=8)\
 \pa_oh4_c2o4-bp86-cosmors-deftzvp-klamt.com SGP in PCM calculation\\0,
 1\Pa,0,0.7038194926,-0.3661400475,0.047466923\I,0,2.1691008019,1.59693
 52208,-1.9020463839\H,0,-1.7402975759,1.2085564633,0.3818110319\O,0,-0
 .8062734242,0.9909274174,0.4775190844\H,0,1.9349854896,1.0721582828,2.
 2501106473\O,0,-0.3432094943,-1.1106136011,-1.5792671426\H,0,-1.132155
 2036,-1.196406663,-2.1286740677\O,0,0.0698778745,-1.9941494551,1.23508
 22605\H,0,-0.5715623048,-2.6898735779,1.0424767151\O,0,1.8997712958,0.
 3545694895,1.6048606822\\Version=ES64L-G16RevC.01\State=1-A\HF=-1043.2
 481394\RMSD=1.425e-09\Dipole=-2.2579562,-1.9108933,0.9046112\Quadrupol
 e=6.1152805,-0.4283991,-5.6868814,0.10289,4.3805868,7.2646676\PG=C01 [
 X(H4I1O4Pa1)]\\@


      THE ONE-EYED VIEW OF OUR UNIVERSE SAYS YOU MUST NOT LOOK
      FAR AFIELD FOR PROBLEMS.  SUCH PROBLEMS MAY NEVER ARRIVE. 
      INSTEAD, TEND TO THE WOLF WITHIN YOUR FENCES.
      THE PACKS RANGING OUTSIDE MAY NOT EVEN EXIST.

                              -- THE AZHAR BOOK SHAMRA I:4
                                 CHILDREN OF DUNE, BY FRANK HERBERT
 Job cpu time:       0 days  0 hours 11 minutes 42.0 seconds.
 Elapsed time:       0 days  0 hours  2 minutes  1.2 seconds.
 File lengths (MBytes):  RWF=     48 Int=      0 D2E=      0 Chk=      7 Scr=      1
 Normal termination of Gaussian 16 at Wed Jun 28 18:34:45 2023.
