
 Working directory              : /state/partition2/shaaban/999395.phlam-s-sakura/molpro.aa5ZWy661c/
 Global scratch directory       : /state/partition2/shaaban/999395.phlam-s-sakura/molpro.aa5ZWy661c/
 Wavefunction directory         : /home/shaaban/wfu/
 Main file repository           : /state/partition2/shaaban/999395.phlam-s-sakura/molpro.aa5ZWy661c/

 id        : lill

 Nodes       nprocs
 u-0-13.local    8
 GA implementation: MPI file
 GA implementation (serial work in mppx): MPI file

 Using customized tuning parameters: mindgm=1; mindgv=20; mindgc=4; mindgr=1; noblas=0; minvec=7
 default implementation of scratch files=sf  


 Variables initialized (1040), CPU time= 0.01 sec
 ***,Pa(OH)4(Br)- MP2 and CCSD(T)
 memory, 2100, m;
 file, 1, pa_oh4_br.ccsd-tx.int, new;
 file, 2, pa_oh4_br.ccsd-tx.wfu, new;
 
 gprint, basis;
 gprint, orbital=10;
 
 nosym;
 
 geomtyp=xyz;
 
 geometry={
 Including file /home/shaaban/molpro/PhD/bromide/gp/pa_oh4_br/pa_oh4_br-B22-gp.xyz
 }
 
 charge=0;
 
                                                                                 ! Select X2C SR Hamiltonian
 SET,DKROLL=101
 
                                                                                 ! Calculation with VTZ basis set
 basis={
 Pa=cc-pVTZ-DK;
 O=aug-cc-pVTZ-DK;
 H=aug-cc-pVTZ-DK;
 Br=aug-cc-pVTZ-DK;
 }
 
 
                                                                                 ! Hartree-Fock calculation
 {hf;}
 
                                                                                 ! MP2 and CCSD(T) calculation
 {ccsd(t);}
 
                                                                  ! Save HF energy and CCSD(T) correlation energy for VTZ basis set
 energy_hf(1) = energr(1);
 corr_mp2(1) = EMP2-energr(1);
 corr_ccsdt(1) = ENERGT(1)-energr(1);
 
 Commands initialized (846), CPU time= 0.01 sec, 717 directives.
 Default parameters read. Elapsed time= 1.39 sec

 Checking input...
 Passed
1


                                         ***  PROGRAM SYSTEM MOLPRO  ***
                                       Copyright, TTI GmbH Stuttgart, 2015
                                    Version 2023.2 linked Fri Sep 22 09:27:09 2023


 **********************************************************************************************************************************
 LABEL *   Pa(OH)4(Br)- MP2 and CCSD(T)                                                                                                                                  
  64 bit mpp version                                                                     DATE: 11-Jan-24          TIME: 17:08:54  
 **********************************************************************************************************************************

 SHA1:             3c61bfe44d37c8635c785372c339f5cbdd4e4b59
 **********************************************************************************************************************************

 Memory per process:      2100 MW
 Total memory per node:  16800 MW

 GA preallocation disabled
 GA check disabled

 Variable memory set to 2100.0 MW



 Permanent file  1  pa_oh4_br.ccsd-tx.int            assigned.  Implementation=df  
 Permanent file  2  pa_oh4_br.ccsd-tx.wfu            assigned.  Implementation=df  



 **********************************************************************************************************************************
 DATASETS  * FILE   NREC   LENGTH (MB)   RECORD NAMES
              1       1        0.06       500   
                                          VAR  

              2       1        0.06       500   
                                          VAR  

 PROGRAMS   *        TOTAL      FILE
 CPU TIMES  *         0.21      0.01
 REAL TIME  *         2.36 SEC
 DISK USED  *         0.16 MB (local),        1.32 MB (total)
 **********************************************************************************************************************************


 SETTING GEOMTYP        =    XYZ
 ZSYMEL=NOSYM


 Geometry recognized as XYZ

 SETTING CHARGE         =      0.0000000D+00                                  
 SETTING DKROLL         =       101.00000000                                  
 SETTING BASIS          =    PA=CC-PVTZ-DK,O=AUG-CC-PVTZ-DK,H=AUG-CC-PVTZ-DK,BR=AUG-CC-PVTZ-DK


 Recomputing integrals since basis changed


 Using spherical harmonics

 Library entry PA     S cc-pVTZ-DK3          selected for orbital group  1
 Library entry PA     P cc-pVTZ-DK3          selected for orbital group  1
 Library entry PA     D cc-pVTZ-DK3          selected for orbital group  1
 Library entry PA     F cc-pVTZ-DK3          selected for orbital group  1
 Library entry PA     G cc-pVTZ-DK3          selected for orbital group  1
 Library entry PA     H cc-pVTZ-DK3          selected for orbital group  1
 Library entry BR     S aug-cc-pVTZ-DK       selected for orbital group  2
 Library entry BR     P aug-cc-pVTZ-DK       selected for orbital group  2
 Library entry BR     D aug-cc-pVTZ-DK       selected for orbital group  2
 Library entry BR     F aug-cc-pVTZ-DK       selected for orbital group  2
 Library entry H      S aug-cc-pVTZ-DK       selected for orbital group  3
 Library entry H      P aug-cc-pVTZ-DK       selected for orbital group  3
 Library entry H      D aug-cc-pVTZ-DK       selected for orbital group  3
 Library entry O      S aug-cc-pVTZ-DK       selected for orbital group  4
 Library entry O      P aug-cc-pVTZ-DK       selected for orbital group  4
 Library entry O      D aug-cc-pVTZ-DK       selected for orbital group  4
 Library entry O      F aug-cc-pVTZ-DK       selected for orbital group  4


 PROGRAM * SEWARD (Integral evaluation for generally contracted gaussian basis sets)     Author: Roland Lindh, 1990

 Geometry written to block  1 of record 700


 Point group  C1  



 ATOMIC COORDINATES

 NR  ATOM    CHARGE       X              Y              Z

   1  PA     91.00    0.566068670   -0.234243266    0.133073323
   2  BR     35.00    2.727259470    3.465740437   -2.909533617
   3  H       1.00   -3.687733954    3.523819435    0.940753057
   4  O       8.00   -2.441921560    2.214807391    0.809061220
   5  H       1.00    5.309337155    0.118295353    3.348315374
   6  O       8.00    0.383039941   -2.592437290   -3.015330125
   7  H       1.00    0.385570147   -3.471740206   -4.599459445
   8  O       8.00   -1.057825525   -2.990688462    2.406693098
   9  H       1.00   -1.956801870   -4.225719242    3.380689395
  10  O       8.00    3.767730314   -0.096224838    2.421255437

 Bond lengths in Bohr (Angstrom)

 1-2  5.255290864  1-3  5.733255495  1-4  3.937361296  1-5  5.741137591  1-6  3.937895738
     ( 2.780980162)     ( 3.033908152)     ( 2.083561869)     ( 3.038079178)     ( 2.083844683)

  1- 7  5.736796367   1- 8  3.924840043   1- 9  5.730948122   1-10  3.937697774   3- 4  1.811878526
       ( 3.035781901)       ( 2.076935907)       ( 3.032687143)       ( 2.083739925)       ( 0.958804825)

  5-10  1.811632051   6- 7  1.811807309   8- 9  1.811664506
       ( 0.958674396)       ( 0.958767138)       ( 0.958691570)

 Bond angles

  1- 3- 4    6.30376615   1- 4- 3  170.80000853   1- 5-10    4.51140909   1- 6- 7  171.73367719

  1- 7- 6    5.66378775   1- 8- 9  174.57416847   1- 9- 8    3.71292766   1-10- 5  173.41470046

  2-1-3   85.70965647   2-1-4   88.60473326   2-1-5   86.63153237   2-1-6   88.73044804

  2- 1- 7   86.13829043   2- 1- 8  179.82409005   2- 1- 9  178.14522650   2- 1-10   88.70403538

  3-1-4    2.89622532   3-1-5  119.59375699   3-1-6  118.07858946   3-1-7  117.56704996

  3- 1- 8   94.11523628   3- 1- 9   92.87041962   3- 1-10  119.89608676   4- 1- 5  119.79063178

  4-1-6  118.30995435   4-1-7  117.94440328   4-1-8   91.22018372   4-1-9   89.97767508

  4- 1-10  119.97312021   5- 1- 6  121.52895428   5- 1- 7  121.50991335   5- 1- 8   93.47063302

  5- 1- 9   95.11244023   5- 1-10    2.07389045   6- 1- 7    2.60253506   6- 1- 8   91.33772569

  6- 1- 9   90.88956991   6- 1-10  121.55895962   7- 1- 8   93.92921445   7- 1- 9   93.47306655

  7- 1-10  121.65035512   8- 1- 9    1.71290387   8- 1-10   91.39832614   9- 1-10   93.04089850


 BASIS DATA

   Nr Sym  Nuc  Type         Exponents   Contraction coefficients

    1.1 A     1  1s    57606659.000000    -0.000367    0.001999   -0.000726   -0.000116    0.000099   -0.000045
                                           0.000021    0.000037   -0.000048   -0.000061    0.000000
    2.1 A              15333099.000000    -0.000320    0.001748   -0.000634   -0.000102    0.000087   -0.000039
                                           0.000018    0.000032   -0.000042   -0.000054    0.000000
    3.1 A               5244434.800000    -0.000928    0.005048   -0.001835   -0.000295    0.000251   -0.000113
                                           0.000052    0.000094   -0.000122   -0.000155    0.000000
    4.1 A               1993947.300000    -0.001157    0.006271   -0.002285   -0.000367    0.000312   -0.000141
                                           0.000065    0.000117   -0.000153   -0.000193    0.000000
    5.1 A                831464.670000    -0.002291    0.012335   -0.004515   -0.000726    0.000618   -0.000279
                                           0.000128    0.000231   -0.000302   -0.000382    0.000000
    6.1 A                367473.800000    -0.003191    0.016990   -0.006266   -0.001010    0.000858   -0.000388
                                           0.000178    0.000321   -0.000420   -0.000532    0.000000
    7.1 A                170948.980000    -0.005514    0.028930   -0.010774   -0.001741    0.001479   -0.000668
                                           0.000307    0.000553   -0.000722   -0.000912    0.000000
    8.1 A                 82498.208000    -0.008096    0.041465   -0.015694   -0.002547    0.002160   -0.000976
                                           0.000448    0.000809   -0.001057   -0.001343    0.000000
    9.1 A                 41068.557000    -0.013295    0.066058   -0.025530   -0.004169    0.003528   -0.001595
                                           0.000733    0.001318   -0.001720   -0.002167    0.000000
   10.1 A                 20931.097000    -0.020180    0.095592   -0.038190   -0.006291    0.005308   -0.002400
                                           0.001102    0.001992   -0.002605   -0.003325    0.000000
   11.1 A                 10881.858000    -0.032132    0.142991   -0.059747   -0.009970    0.008375   -0.003787
                                           0.001739    0.003121   -0.004070   -0.005095    0.000000
                           5751.850200    -0.047664    0.193172   -0.086493   -0.014700    0.012273   -0.005550
                                           0.002550    0.004624   -0.006058   -0.007812    0.000000
                           3085.413800    -0.066495    0.240368   -0.117665   -0.020515    0.016984   -0.007683
                                           0.003528    0.006293   -0.008187   -0.010070    0.000000
                           1676.302600    -0.070537    0.231081   -0.122390   -0.021751    0.017896   -0.008097
                                           0.003721    0.006847   -0.009026   -0.012101    0.000000
                            920.364860    -0.023626    0.149744   -0.044426   -0.005530    0.005175   -0.002332
                                           0.001066    0.001619   -0.001931   -0.000993    0.000000
                            507.302700     0.114270    0.033479    0.202649    0.056505   -0.041129    0.018705
                                          -0.008589   -0.014887    0.019169    0.021466    0.000000
                            285.301180     0.244587   -0.013881    0.548461    0.172416   -0.122712    0.055943
                                          -0.025751   -0.047935    0.063734    0.088070    0.000000
                            162.083520     0.197985   -0.013442    0.605050    0.222521   -0.154869    0.070889
                                          -0.032578   -0.056192    0.072208    0.078604    0.000000
                             92.502257     0.134582   -0.014203    0.036384   -0.036593    0.019421   -0.009128
                                           0.004115    0.001534    0.001075    0.030263    0.000000
                             54.996696     0.249625   -0.043456   -0.678191   -0.645561    0.447427   -0.212041
                                           0.098447    0.193368   -0.267182   -0.419407    0.000000
                             32.498055     0.201939   -0.033776   -0.590782   -0.685300    0.476926   -0.227202
                                           0.104959    0.171310   -0.214887   -0.161724    0.000000
                             19.139224     0.048672   -0.008893   -0.102345    0.188180   -0.152559    0.072939
                                          -0.033085   -0.027730    0.028614   -0.135572    0.000000
                             11.382710     0.000154    0.001566    0.103892    0.862319   -0.976271    0.548029
                                          -0.263284   -0.581738    0.872326    1.707930    0.000000
                              6.786052    -0.001620    0.000219    0.057771    0.444812   -0.715550    0.417427
                                          -0.198011   -0.257648    0.233331   -0.802647    0.000000
                              4.149622    -0.000024    0.000424    0.007658    0.066411    0.448995   -0.350743
                                           0.170764    0.219628   -0.311481    1.107900    0.000000
                              2.398648     0.000213   -0.000251    0.000234    0.013877    0.872126   -0.849864
                                           0.456346    1.306700   -2.312130   -7.673080    0.000000
                              1.389239     0.000151    0.000095   -0.000474    0.002053    0.319027   -0.431399
                                           0.230037    0.271748    0.316072   10.899500    0.000000
                              0.799685    -0.000007   -0.000062    0.000088    0.000459    0.047512    0.436706
                                          -0.277849   -1.773160    4.827330   -2.764150    0.000000
                              0.427327     0.000014    0.000024   -0.000055   -0.000721    0.030699    0.715284
                                          -0.562089   -0.897175   -3.628160   -6.597810    0.000000
                              0.220940    -0.000002   -0.000010    0.000018   -0.000091    0.010077    0.233304
                                          -0.326108    1.532070   -1.217550    6.759770    0.000000
                              0.086038     0.000001    0.000003   -0.000007   -0.000059    0.001150    0.063372
                                           0.302160    1.024940    2.677980   -2.147740    0.000000
                              0.041219    -0.000000   -0.000002    0.000003   -0.000045    0.001535    0.118889
                                           0.692611   -0.772653   -0.537526   -1.019450    0.000000
                              0.018781     0.000000    0.000000   -0.000001   -0.000024    0.000588    0.043818
                                           0.253564   -0.484245   -0.804705    1.252550    1.000000
   12.1 A     1  2px   52575799.000000     0.000019
                       15301659.000000     0.000024
                        4822461.600000     0.000069
                        1632045.600000     0.000134
                         584338.640000     0.000304
                         219508.320000     0.000647
                          86085.039000     0.001453
                          35172.956000     0.003300
                          14975.745000     0.007723
                           6652.821900     0.018193
                           3084.270200     0.042170
                           1489.211300     0.090817
                            745.288670     0.167656
                            384.521300     0.234335
                            203.927220     0.219969
                            110.523340     0.174849
                             61.345569     0.191146
                             34.404375     0.137654
                             19.094147     0.033446
                             10.684628    -0.000968
                              5.931463    -0.000978
                              3.230992    -0.000011
                              1.730655     0.000166
                              0.869483     0.000022
                              0.440589     0.000009
                              0.215859    -0.000000
                              0.091015     0.000001
                              0.040174    -0.000000
                              0.017215     0.000000
   13.1 A     1  2py   52575799.000000     0.000019
                       15301659.000000     0.000024
                        4822461.600000     0.000069
                        1632045.600000     0.000134
                         584338.640000     0.000304
                         219508.320000     0.000647
                          86085.039000     0.001453
                          35172.956000     0.003300
                          14975.745000     0.007723
                           6652.821900     0.018193
                           3084.270200     0.042170
                           1489.211300     0.090817
                            745.288670     0.167656
                            384.521300     0.234335
                            203.927220     0.219969
                            110.523340     0.174849
                             61.345569     0.191146
                             34.404375     0.137654
                             19.094147     0.033446
                             10.684628    -0.000968
                              5.931463    -0.000978
                              3.230992    -0.000011
                              1.730655     0.000166
                              0.869483     0.000022
                              0.440589     0.000009
                              0.215859    -0.000000
                              0.091015     0.000001
                              0.040174    -0.000000
                              0.017215     0.000000
   14.1 A     1  2pz   52575799.000000     0.000019
                       15301659.000000     0.000024
                        4822461.600000     0.000069
                        1632045.600000     0.000134
                         584338.640000     0.000304
                         219508.320000     0.000647
                          86085.039000     0.001453
                          35172.956000     0.003300
                          14975.745000     0.007723
                           6652.821900     0.018193
                           3084.270200     0.042170
                           1489.211300     0.090817
                            745.288670     0.167656
                            384.521300     0.234335
                            203.927220     0.219969
                            110.523340     0.174849
                             61.345569     0.191146
                             34.404375     0.137654
                             19.094147     0.033446
                             10.684628    -0.000968
                              5.931463    -0.000978
                              3.230992    -0.000011
                              1.730655     0.000166
                              0.869483     0.000022
                              0.440589     0.000009
                              0.215859    -0.000000
                              0.091015     0.000001
                              0.040174    -0.000000
                              0.017215     0.000000
   15.1 A     1  2px   52575799.000000    -0.000022
                       15301659.000000    -0.000028
                        4822461.600000    -0.000083
                        1632045.600000    -0.000160
                         584338.640000    -0.000364
                         219508.320000    -0.000777
                          86085.039000    -0.001750
                          35172.956000    -0.003994
                          14975.745000    -0.009414
                           6652.821900    -0.022406
                           3084.270200    -0.052818
                           1489.211300    -0.116759
                            745.288670    -0.223675
                            384.521300    -0.322294
                            203.927220    -0.236594
                            110.523340     0.144783
                             61.345569     0.527162
                             34.404375     0.400928
                             19.094147     0.019444
                             10.684628    -0.122698
                              5.931463    -0.050980
                              3.230992    -0.002723
                              1.730655     0.002233
                              0.869483     0.000423
                              0.440589     0.000084
                              0.215859     0.000019
                              0.091015     0.000006
                              0.040174    -0.000002
                              0.017215     0.000001
   16.1 A     1  2py   52575799.000000    -0.000022
                       15301659.000000    -0.000028
                        4822461.600000    -0.000083
                        1632045.600000    -0.000160
                         584338.640000    -0.000364
                         219508.320000    -0.000777
                          86085.039000    -0.001750
                          35172.956000    -0.003994
                          14975.745000    -0.009414
                           6652.821900    -0.022406
                           3084.270200    -0.052818
                           1489.211300    -0.116759
                            745.288670    -0.223675
                            384.521300    -0.322294
                            203.927220    -0.236594
                            110.523340     0.144783
                             61.345569     0.527162
                             34.404375     0.400928
                             19.094147     0.019444
                             10.684628    -0.122698
                              5.931463    -0.050980
                              3.230992    -0.002723
                              1.730655     0.002233
                              0.869483     0.000423
                              0.440589     0.000084
                              0.215859     0.000019
                              0.091015     0.000006
                              0.040174    -0.000002
                              0.017215     0.000001
   17.1 A     1  2pz   52575799.000000    -0.000022
                       15301659.000000    -0.000028
                        4822461.600000    -0.000083
                        1632045.600000    -0.000160
                         584338.640000    -0.000364
                         219508.320000    -0.000777
                          86085.039000    -0.001750
                          35172.956000    -0.003994
                          14975.745000    -0.009414
                           6652.821900    -0.022406
                           3084.270200    -0.052818
                           1489.211300    -0.116759
                            745.288670    -0.223675
                            384.521300    -0.322294
                            203.927220    -0.236594
                            110.523340     0.144783
                             61.345569     0.527162
                             34.404375     0.400928
                             19.094147     0.019444
                             10.684628    -0.122698
                              5.931463    -0.050980
                              3.230992    -0.002723
                              1.730655     0.002233
                              0.869483     0.000423
                              0.440589     0.000084
                              0.215859     0.000019
                              0.091015     0.000006
                              0.040174    -0.000002
                              0.017215     0.000001
   18.1 A     1  2px   52575799.000000     0.000003
                       15301659.000000     0.000003
                        4822461.600000     0.000010
                        1632045.600000     0.000019
                         584338.640000     0.000042
                         219508.320000     0.000091
                          86085.039000     0.000206
                          35172.956000     0.000473
                          14975.745000     0.001130
                           6652.821900     0.002740
                           3084.270200     0.006653
                           1489.211300     0.015378
                            745.288670     0.031242
                            384.521300     0.047227
                            203.927220     0.017912
                            110.523340    -0.122974
                             61.345569    -0.327410
                             34.404375    -0.190189
                             19.094147     0.365250
                             10.684628     0.614511
                              5.931463     0.253732
                              3.230992     0.025246
                              1.730655     0.001447
                              0.869483    -0.000191
                              0.440589     0.000177
                              0.215859    -0.000001
                              0.091015     0.000034
                              0.040174    -0.000010
                              0.017215     0.000003
   19.1 A     1  2py   52575799.000000     0.000003
                       15301659.000000     0.000003
                        4822461.600000     0.000010
                        1632045.600000     0.000019
                         584338.640000     0.000042
                         219508.320000     0.000091
                          86085.039000     0.000206
                          35172.956000     0.000473
                          14975.745000     0.001130
                           6652.821900     0.002740
                           3084.270200     0.006653
                           1489.211300     0.015378
                            745.288670     0.031242
                            384.521300     0.047227
                            203.927220     0.017912
                            110.523340    -0.122974
                             61.345569    -0.327410
                             34.404375    -0.190189
                             19.094147     0.365250
                             10.684628     0.614511
                              5.931463     0.253732
                              3.230992     0.025246
                              1.730655     0.001447
                              0.869483    -0.000191
                              0.440589     0.000177
                              0.215859    -0.000001
                              0.091015     0.000034
                              0.040174    -0.000010
                              0.017215     0.000003
   20.1 A     1  2pz   52575799.000000     0.000003
                       15301659.000000     0.000003
                        4822461.600000     0.000010
                        1632045.600000     0.000019
                         584338.640000     0.000042
                         219508.320000     0.000091
                          86085.039000     0.000206
                          35172.956000     0.000473
                          14975.745000     0.001130
                           6652.821900     0.002740
                           3084.270200     0.006653
                           1489.211300     0.015378
                            745.288670     0.031242
                            384.521300     0.047227
                            203.927220     0.017912
                            110.523340    -0.122974
                             61.345569    -0.327410
                             34.404375    -0.190189
                             19.094147     0.365250
                             10.684628     0.614511
                              5.931463     0.253732
                              3.230992     0.025246
                              1.730655     0.001447
                              0.869483    -0.000191
                              0.440589     0.000177
                              0.215859    -0.000001
                              0.091015     0.000034
                              0.040174    -0.000010
                              0.017215     0.000003
   21.1 A     1  2px   52575799.000000    -0.000003
                       15301659.000000    -0.000004
                        4822461.600000    -0.000012
                        1632045.600000    -0.000022
                         584338.640000    -0.000051
                         219508.320000    -0.000109
                          86085.039000    -0.000246
                          35172.956000    -0.000564
                          14975.745000    -0.001337
                           6652.821900    -0.003210
                           3084.270200    -0.007664
                           1489.211300    -0.017293
                            745.288670    -0.034038
                            384.521300    -0.050240
                            203.927220    -0.027775
                            110.523340     0.078055
                             61.345569     0.225234
                             34.404375     0.124107
                             19.094147    -0.273398
                             10.684628    -0.553848
                              5.931463    -0.065400
                              3.230992     0.618467
                              1.730655     0.501115
                              0.869483     0.107385
                              0.440589     0.023200
                              0.215859     0.014696
                              0.091015     0.001512
                              0.040174     0.000132
                              0.017215    -0.000015
   22.1 A     1  2py   52575799.000000    -0.000003
                       15301659.000000    -0.000004
                        4822461.600000    -0.000012
                        1632045.600000    -0.000022
                         584338.640000    -0.000051
                         219508.320000    -0.000109
                          86085.039000    -0.000246
                          35172.956000    -0.000564
                          14975.745000    -0.001337
                           6652.821900    -0.003210
                           3084.270200    -0.007664
                           1489.211300    -0.017293
                            745.288670    -0.034038
                            384.521300    -0.050240
                            203.927220    -0.027775
                            110.523340     0.078055
                             61.345569     0.225234
                             34.404375     0.124107
                             19.094147    -0.273398
                             10.684628    -0.553848
                              5.931463    -0.065400
                              3.230992     0.618467
                              1.730655     0.501115
                              0.869483     0.107385
                              0.440589     0.023200
                              0.215859     0.014696
                              0.091015     0.001512
                              0.040174     0.000132
                              0.017215    -0.000015
   23.1 A     1  2pz   52575799.000000    -0.000003
                       15301659.000000    -0.000004
                        4822461.600000    -0.000012
                        1632045.600000    -0.000022
                         584338.640000    -0.000051
                         219508.320000    -0.000109
                          86085.039000    -0.000246
                          35172.956000    -0.000564
                          14975.745000    -0.001337
                           6652.821900    -0.003210
                           3084.270200    -0.007664
                           1489.211300    -0.017293
                            745.288670    -0.034038
                            384.521300    -0.050240
                            203.927220    -0.027775
                            110.523340     0.078055
                             61.345569     0.225234
                             34.404375     0.124107
                             19.094147    -0.273398
                             10.684628    -0.553848
                              5.931463    -0.065400
                              3.230992     0.618467
                              1.730655     0.501115
                              0.869483     0.107385
                              0.440589     0.023200
                              0.215859     0.014696
                              0.091015     0.001512
                              0.040174     0.000132
                              0.017215    -0.000015
   24.1 A     1  2px   52575799.000000     0.000001
                       15301659.000000     0.000002
                        4822461.600000     0.000005
                        1632045.600000     0.000010
                         584338.640000     0.000023
                         219508.320000     0.000049
                          86085.039000     0.000110
                          35172.956000     0.000253
                          14975.745000     0.000599
                           6652.821900     0.001437
                           3084.270200     0.003431
                           1489.211300     0.007737
                            745.288670     0.015236
                            384.521300     0.022464
                            203.927220     0.012457
                            110.523340    -0.035118
                             61.345569    -0.101380
                             34.404375    -0.055130
                             19.094147     0.131575
                             10.684628     0.274246
                              5.931463     0.008755
                              3.230992    -0.421565
                              1.730655    -0.381951
                              0.869483     0.226110
                              0.440589     0.602109
                              0.215859     0.367310
                              0.091015     0.055992
                              0.040174    -0.001133
                              0.017215     0.001123
   25.1 A     1  2py   52575799.000000     0.000001
                       15301659.000000     0.000002
                        4822461.600000     0.000005
                        1632045.600000     0.000010
                         584338.640000     0.000023
                         219508.320000     0.000049
                          86085.039000     0.000110
                          35172.956000     0.000253
                          14975.745000     0.000599
                           6652.821900     0.001437
                           3084.270200     0.003431
                           1489.211300     0.007737
                            745.288670     0.015236
                            384.521300     0.022464
                            203.927220     0.012457
                            110.523340    -0.035118
                             61.345569    -0.101380
                             34.404375    -0.055130
                             19.094147     0.131575
                             10.684628     0.274246
                              5.931463     0.008755
                              3.230992    -0.421565
                              1.730655    -0.381951
                              0.869483     0.226110
                              0.440589     0.602109
                              0.215859     0.367310
                              0.091015     0.055992
                              0.040174    -0.001133
                              0.017215     0.001123
   26.1 A     1  2pz   52575799.000000     0.000001
                       15301659.000000     0.000002
                        4822461.600000     0.000005
                        1632045.600000     0.000010
                         584338.640000     0.000023
                         219508.320000     0.000049
                          86085.039000     0.000110
                          35172.956000     0.000253
                          14975.745000     0.000599
                           6652.821900     0.001437
                           3084.270200     0.003431
                           1489.211300     0.007737
                            745.288670     0.015236
                            384.521300     0.022464
                            203.927220     0.012457
                            110.523340    -0.035118
                             61.345569    -0.101380
                             34.404375    -0.055130
                             19.094147     0.131575
                             10.684628     0.274246
                              5.931463     0.008755
                              3.230992    -0.421565
                              1.730655    -0.381951
                              0.869483     0.226110
                              0.440589     0.602109
                              0.215859     0.367310
                              0.091015     0.055992
                              0.040174    -0.001133
                              0.017215     0.001123
   27.1 A     1  2px   52575799.000000    -0.000000
                       15301659.000000    -0.000000
                        4822461.600000    -0.000001
                        1632045.600000    -0.000002
                         584338.640000    -0.000005
                         219508.320000    -0.000012
                          86085.039000    -0.000026
                          35172.956000    -0.000061
                          14975.745000    -0.000144
                           6652.821900    -0.000345
                           3084.270200    -0.000824
                           1489.211300    -0.001857
                            745.288670    -0.003658
                            384.521300    -0.005392
                            203.927220    -0.002989
                            110.523340     0.008470
                             61.345569     0.024432
                             34.404375     0.013266
                             19.094147    -0.032261
                             10.684628    -0.067372
                              5.931463    -0.001388
                              3.230992     0.110496
                              1.730655     0.103163
                              0.869483    -0.077537
                              0.440589    -0.217553
                              0.215859    -0.188949
                              0.091015     0.201050
                              0.040174     0.638180
                              0.017215     0.325623
   28.1 A     1  2py   52575799.000000    -0.000000
                       15301659.000000    -0.000000
                        4822461.600000    -0.000001
                        1632045.600000    -0.000002
                         584338.640000    -0.000005
                         219508.320000    -0.000012
                          86085.039000    -0.000026
                          35172.956000    -0.000061
                          14975.745000    -0.000144
                           6652.821900    -0.000345
                           3084.270200    -0.000824
                           1489.211300    -0.001857
                            745.288670    -0.003658
                            384.521300    -0.005392
                            203.927220    -0.002989
                            110.523340     0.008470
                             61.345569     0.024432
                             34.404375     0.013266
                             19.094147    -0.032261
                             10.684628    -0.067372
                              5.931463    -0.001388
                              3.230992     0.110496
                              1.730655     0.103163
                              0.869483    -0.077537
                              0.440589    -0.217553
                              0.215859    -0.188949
                              0.091015     0.201050
                              0.040174     0.638180
                              0.017215     0.325623
   29.1 A     1  2pz   52575799.000000    -0.000000
                       15301659.000000    -0.000000
                        4822461.600000    -0.000001
                        1632045.600000    -0.000002
                         584338.640000    -0.000005
                         219508.320000    -0.000012
                          86085.039000    -0.000026
                          35172.956000    -0.000061
                          14975.745000    -0.000144
                           6652.821900    -0.000345
                           3084.270200    -0.000824
                           1489.211300    -0.001857
                            745.288670    -0.003658
                            384.521300    -0.005392
                            203.927220    -0.002989
                            110.523340     0.008470
                             61.345569     0.024432
                             34.404375     0.013266
                             19.094147    -0.032261
                             10.684628    -0.067372
                              5.931463    -0.001388
                              3.230992     0.110496
                              1.730655     0.103163
                              0.869483    -0.077537
                              0.440589    -0.217553
                              0.215859    -0.188949
                              0.091015     0.201050
                              0.040174     0.638180
                              0.017215     0.325623
   30.1 A     1  2px   52575799.000000    -0.000001
                       15301659.000000    -0.000001
                        4822461.600000    -0.000003
                        1632045.600000    -0.000007
                         584338.640000    -0.000015
                         219508.320000    -0.000032
                          86085.039000    -0.000072
                          35172.956000    -0.000164
                          14975.745000    -0.000389
                           6652.821900    -0.000935
                           3084.270200    -0.002229
                           1489.211300    -0.005039
                            745.288670    -0.009894
                            384.521300    -0.014658
                            203.927220    -0.007979
                            110.523340     0.022762
                             61.345569     0.067088
                             34.404375     0.034676
                             19.094147    -0.086637
                             10.684628    -0.190694
                              5.931463     0.011165
                              3.230992     0.295554
                              1.730655     0.357960
                              0.869483    -0.483733
                              0.440589    -0.603813
                              0.215859     0.216450
                              0.091015     0.715516
                              0.040174     0.271379
                              0.017215     0.004110
   31.1 A     1  2py   52575799.000000    -0.000001
                       15301659.000000    -0.000001
                        4822461.600000    -0.000003
                        1632045.600000    -0.000007
                         584338.640000    -0.000015
                         219508.320000    -0.000032
                          86085.039000    -0.000072
                          35172.956000    -0.000164
                          14975.745000    -0.000389
                           6652.821900    -0.000935
                           3084.270200    -0.002229
                           1489.211300    -0.005039
                            745.288670    -0.009894
                            384.521300    -0.014658
                            203.927220    -0.007979
                            110.523340     0.022762
                             61.345569     0.067088
                             34.404375     0.034676
                             19.094147    -0.086637
                             10.684628    -0.190694
                              5.931463     0.011165
                              3.230992     0.295554
                              1.730655     0.357960
                              0.869483    -0.483733
                              0.440589    -0.603813
                              0.215859     0.216450
                              0.091015     0.715516
                              0.040174     0.271379
                              0.017215     0.004110
   32.1 A     1  2pz   52575799.000000    -0.000001
                       15301659.000000    -0.000001
                        4822461.600000    -0.000003
                        1632045.600000    -0.000007
                         584338.640000    -0.000015
                         219508.320000    -0.000032
                          86085.039000    -0.000072
                          35172.956000    -0.000164
                          14975.745000    -0.000389
                           6652.821900    -0.000935
                           3084.270200    -0.002229
                           1489.211300    -0.005039
                            745.288670    -0.009894
                            384.521300    -0.014658
                            203.927220    -0.007979
                            110.523340     0.022762
                             61.345569     0.067088
                             34.404375     0.034676
                             19.094147    -0.086637
                             10.684628    -0.190694
                              5.931463     0.011165
                              3.230992     0.295554
                              1.730655     0.357960
                              0.869483    -0.483733
                              0.440589    -0.603813
                              0.215859     0.216450
                              0.091015     0.715516
                              0.040174     0.271379
                              0.017215     0.004110
   33.1 A     1  2px   52575799.000000    -0.000002
                       15301659.000000    -0.000002
                        4822461.600000    -0.000006
                        1632045.600000    -0.000011
                         584338.640000    -0.000025
                         219508.320000    -0.000053
                          86085.039000    -0.000120
                          35172.956000    -0.000276
                          14975.745000    -0.000654
                           6652.821900    -0.001571
                           3084.270200    -0.003746
                           1489.211300    -0.008467
                            745.288670    -0.016630
                            384.521300    -0.024639
                            203.927220    -0.013376
                            110.523340     0.038624
                             61.345569     0.114098
                             34.404375     0.057529
                             19.094147    -0.152711
                             10.684628    -0.335337
                              5.931463     0.054060
                              3.230992     0.556644
                              1.730655     0.705623
                              0.869483    -1.835960
                              0.440589    -0.011551
                              0.215859     1.665810
                              0.091015    -0.586030
                              0.040174    -0.540877
                              0.017215     0.007337
   34.1 A     1  2py   52575799.000000    -0.000002
                       15301659.000000    -0.000002
                        4822461.600000    -0.000006
                        1632045.600000    -0.000011
                         584338.640000    -0.000025
                         219508.320000    -0.000053
                          86085.039000    -0.000120
                          35172.956000    -0.000276
                          14975.745000    -0.000654
                           6652.821900    -0.001571
                           3084.270200    -0.003746
                           1489.211300    -0.008467
                            745.288670    -0.016630
                            384.521300    -0.024639
                            203.927220    -0.013376
                            110.523340     0.038624
                             61.345569     0.114098
                             34.404375     0.057529
                             19.094147    -0.152711
                             10.684628    -0.335337
                              5.931463     0.054060
                              3.230992     0.556644
                              1.730655     0.705623
                              0.869483    -1.835960
                              0.440589    -0.011551
                              0.215859     1.665810
                              0.091015    -0.586030
                              0.040174    -0.540877
                              0.017215     0.007337
   35.1 A     1  2pz   52575799.000000    -0.000002
                       15301659.000000    -0.000002
                        4822461.600000    -0.000006
                        1632045.600000    -0.000011
                         584338.640000    -0.000025
                         219508.320000    -0.000053
                          86085.039000    -0.000120
                          35172.956000    -0.000276
                          14975.745000    -0.000654
                           6652.821900    -0.001571
                           3084.270200    -0.003746
                           1489.211300    -0.008467
                            745.288670    -0.016630
                            384.521300    -0.024639
                            203.927220    -0.013376
                            110.523340     0.038624
                             61.345569     0.114098
                             34.404375     0.057529
                             19.094147    -0.152711
                             10.684628    -0.335337
                              5.931463     0.054060
                              3.230992     0.556644
                              1.730655     0.705623
                              0.869483    -1.835960
                              0.440589    -0.011551
                              0.215859     1.665810
                              0.091015    -0.586030
                              0.040174    -0.540877
                              0.017215     0.007337
   36.1 A     1  2px   52575799.000000    -0.000002
                       15301659.000000    -0.000003
                        4822461.600000    -0.000008
                        1632045.600000    -0.000015
                         584338.640000    -0.000035
                         219508.320000    -0.000074
                          86085.039000    -0.000170
                          35172.956000    -0.000379
                          14975.745000    -0.000932
                           6652.821900    -0.002134
                           3084.270200    -0.005403
                           1489.211300    -0.011344
                            745.288670    -0.024550
                            384.521300    -0.031081
                            203.927220    -0.026696
                            110.523340     0.074398
                             61.345569     0.122627
                             34.404375     0.158172
                             19.094147    -0.396719
                             10.684628    -0.217338
                              5.931463    -0.310675
                              3.230992     1.976280
                              1.730655    -0.902813
                              0.869483    -2.796330
                              0.440589     4.377620
                              0.215859    -2.313900
                              0.091015    -0.327368
                              0.040174     0.867468
                              0.017215    -0.037484
   37.1 A     1  2py   52575799.000000    -0.000002
                       15301659.000000    -0.000003
                        4822461.600000    -0.000008
                        1632045.600000    -0.000015
                         584338.640000    -0.000035
                         219508.320000    -0.000074
                          86085.039000    -0.000170
                          35172.956000    -0.000379
                          14975.745000    -0.000932
                           6652.821900    -0.002134
                           3084.270200    -0.005403
                           1489.211300    -0.011344
                            745.288670    -0.024550
                            384.521300    -0.031081
                            203.927220    -0.026696
                            110.523340     0.074398
                             61.345569     0.122627
                             34.404375     0.158172
                             19.094147    -0.396719
                             10.684628    -0.217338
                              5.931463    -0.310675
                              3.230992     1.976280
                              1.730655    -0.902813
                              0.869483    -2.796330
                              0.440589     4.377620
                              0.215859    -2.313900
                              0.091015    -0.327368
                              0.040174     0.867468
                              0.017215    -0.037484
   38.1 A     1  2pz   52575799.000000    -0.000002
                       15301659.000000    -0.000003
                        4822461.600000    -0.000008
                        1632045.600000    -0.000015
                         584338.640000    -0.000035
                         219508.320000    -0.000074
                          86085.039000    -0.000170
                          35172.956000    -0.000379
                          14975.745000    -0.000932
                           6652.821900    -0.002134
                           3084.270200    -0.005403
                           1489.211300    -0.011344
                            745.288670    -0.024550
                            384.521300    -0.031081
                            203.927220    -0.026696
                            110.523340     0.074398
                             61.345569     0.122627
                             34.404375     0.158172
                             19.094147    -0.396719
                             10.684628    -0.217338
                              5.931463    -0.310675
                              3.230992     1.976280
                              1.730655    -0.902813
                              0.869483    -2.796330
                              0.440589     4.377620
                              0.215859    -2.313900
                              0.091015    -0.327368
                              0.040174     0.867468
                              0.017215    -0.037484
   39.1 A     1  2px   52575799.000000     0.000000
                       15301659.000000     0.000000
                        4822461.600000     0.000000
                        1632045.600000     0.000000
                         584338.640000     0.000000
                         219508.320000     0.000000
                          86085.039000     0.000000
                          35172.956000     0.000000
                          14975.745000     0.000000
                           6652.821900     0.000000
                           3084.270200     0.000000
                           1489.211300     0.000000
                            745.288670     0.000000
                            384.521300     0.000000
                            203.927220     0.000000
                            110.523340     0.000000
                             61.345569     0.000000
                             34.404375     0.000000
                             19.094147     0.000000
                             10.684628     0.000000
                              5.931463     0.000000
                              3.230992     0.000000
                              1.730655     0.000000
                              0.869483     0.000000
                              0.440589     0.000000
                              0.215859     0.000000
                              0.091015     0.000000
                              0.040174     0.000000
                              0.017215     1.000000
   40.1 A     1  2py   52575799.000000     0.000000
                       15301659.000000     0.000000
                        4822461.600000     0.000000
                        1632045.600000     0.000000
                         584338.640000     0.000000
                         219508.320000     0.000000
                          86085.039000     0.000000
                          35172.956000     0.000000
                          14975.745000     0.000000
                           6652.821900     0.000000
                           3084.270200     0.000000
                           1489.211300     0.000000
                            745.288670     0.000000
                            384.521300     0.000000
                            203.927220     0.000000
                            110.523340     0.000000
                             61.345569     0.000000
                             34.404375     0.000000
                             19.094147     0.000000
                             10.684628     0.000000
                              5.931463     0.000000
                              3.230992     0.000000
                              1.730655     0.000000
                              0.869483     0.000000
                              0.440589     0.000000
                              0.215859     0.000000
                              0.091015     0.000000
                              0.040174     0.000000
                              0.017215     1.000000
   41.1 A     1  2pz   52575799.000000     0.000000
                       15301659.000000     0.000000
                        4822461.600000     0.000000
                        1632045.600000     0.000000
                         584338.640000     0.000000
                         219508.320000     0.000000
                          86085.039000     0.000000
                          35172.956000     0.000000
                          14975.745000     0.000000
                           6652.821900     0.000000
                           3084.270200     0.000000
                           1489.211300     0.000000
                            745.288670     0.000000
                            384.521300     0.000000
                            203.927220     0.000000
                            110.523340     0.000000
                             61.345569     0.000000
                             34.404375     0.000000
                             19.094147     0.000000
                             10.684628     0.000000
                              5.931463     0.000000
                              3.230992     0.000000
                              1.730655     0.000000
                              0.869483     0.000000
                              0.440589     0.000000
                              0.215859     0.000000
                              0.091015     0.000000
                              0.040174     0.000000
                              0.017215     1.000000
   42.1 A     1  3d0     105911.200000     0.000022
                          24974.572000     0.000139
                           8108.852700     0.000701
                           3150.520500     0.003089
                           1380.647900     0.011984
                            658.188950     0.039719
                            332.909040     0.108866
                            176.023220     0.231711
                             95.780704     0.354943
                             53.337287     0.336108
                             29.864821     0.140614
                             16.526778    -0.033753
                              9.155323    -0.064060
                              4.984876    -0.024103
                              2.636633    -0.002234
                              1.354062     0.000305
                              0.656031     0.000103
                              0.269853     0.000008
                              0.103443     0.000000
                              0.036685     0.000000
   43.1 A     1  3d2-    105911.200000     0.000022
                          24974.572000     0.000139
                           8108.852700     0.000701
                           3150.520500     0.003089
                           1380.647900     0.011984
                            658.188950     0.039719
                            332.909040     0.108866
                            176.023220     0.231711
                             95.780704     0.354943
                             53.337287     0.336108
                             29.864821     0.140614
                             16.526778    -0.033753
                              9.155323    -0.064060
                              4.984876    -0.024103
                              2.636633    -0.002234
                              1.354062     0.000305
                              0.656031     0.000103
                              0.269853     0.000008
                              0.103443     0.000000
                              0.036685     0.000000
   44.1 A     1  3d1+    105911.200000     0.000022
                          24974.572000     0.000139
                           8108.852700     0.000701
                           3150.520500     0.003089
                           1380.647900     0.011984
                            658.188950     0.039719
                            332.909040     0.108866
                            176.023220     0.231711
                             95.780704     0.354943
                             53.337287     0.336108
                             29.864821     0.140614
                             16.526778    -0.033753
                              9.155323    -0.064060
                              4.984876    -0.024103
                              2.636633    -0.002234
                              1.354062     0.000305
                              0.656031     0.000103
                              0.269853     0.000008
                              0.103443     0.000000
                              0.036685     0.000000
   45.1 A     1  3d2+    105911.200000     0.000022
                          24974.572000     0.000139
                           8108.852700     0.000701
                           3150.520500     0.003089
                           1380.647900     0.011984
                            658.188950     0.039719
                            332.909040     0.108866
                            176.023220     0.231711
                             95.780704     0.354943
                             53.337287     0.336108
                             29.864821     0.140614
                             16.526778    -0.033753
                              9.155323    -0.064060
                              4.984876    -0.024103
                              2.636633    -0.002234
                              1.354062     0.000305
                              0.656031     0.000103
                              0.269853     0.000008
                              0.103443     0.000000
                              0.036685     0.000000
   46.1 A     1  3d1-    105911.200000     0.000022
                          24974.572000     0.000139
                           8108.852700     0.000701
                           3150.520500     0.003089
                           1380.647900     0.011984
                            658.188950     0.039719
                            332.909040     0.108866
                            176.023220     0.231711
                             95.780704     0.354943
                             53.337287     0.336108
                             29.864821     0.140614
                             16.526778    -0.033753
                              9.155323    -0.064060
                              4.984876    -0.024103
                              2.636633    -0.002234
                              1.354062     0.000305
                              0.656031     0.000103
                              0.269853     0.000008
                              0.103443     0.000000
                              0.036685     0.000000
   47.1 A     1  3d0     105911.200000    -0.000008
                          24974.572000    -0.000050
                           8108.852700    -0.000255
                           3150.520500    -0.001125
                           1380.647900    -0.004414
                            658.188950    -0.014783
                            332.909040    -0.041535
                            176.023220    -0.089246
                             95.780704    -0.132347
                             53.337287    -0.078124
                             29.864821     0.163122
                             16.526778     0.427754
                              9.155323     0.404335
                              4.984876     0.149854
                              2.636633     0.013530
                              1.354062    -0.001244
                              0.656031    -0.000625
                              0.269853    -0.000007
                              0.103443    -0.000015
                              0.036685     0.000003
   48.1 A     1  3d2-    105911.200000    -0.000008
                          24974.572000    -0.000050
                           8108.852700    -0.000255
                           3150.520500    -0.001125
                           1380.647900    -0.004414
                            658.188950    -0.014783
                            332.909040    -0.041535
                            176.023220    -0.089246
                             95.780704    -0.132347
                             53.337287    -0.078124
                             29.864821     0.163122
                             16.526778     0.427754
                              9.155323     0.404335
                              4.984876     0.149854
                              2.636633     0.013530
                              1.354062    -0.001244
                              0.656031    -0.000625
                              0.269853    -0.000007
                              0.103443    -0.000015
                              0.036685     0.000003
   49.1 A     1  3d1+    105911.200000    -0.000008
                          24974.572000    -0.000050
                           8108.852700    -0.000255
                           3150.520500    -0.001125
                           1380.647900    -0.004414
                            658.188950    -0.014783
                            332.909040    -0.041535
                            176.023220    -0.089246
                             95.780704    -0.132347
                             53.337287    -0.078124
                             29.864821     0.163122
                             16.526778     0.427754
                              9.155323     0.404335
                              4.984876     0.149854
                              2.636633     0.013530
                              1.354062    -0.001244
                              0.656031    -0.000625
                              0.269853    -0.000007
                              0.103443    -0.000015
                              0.036685     0.000003
   50.1 A     1  3d2+    105911.200000    -0.000008
                          24974.572000    -0.000050
                           8108.852700    -0.000255
                           3150.520500    -0.001125
                           1380.647900    -0.004414
                            658.188950    -0.014783
                            332.909040    -0.041535
                            176.023220    -0.089246
                             95.780704    -0.132347
                             53.337287    -0.078124
                             29.864821     0.163122
                             16.526778     0.427754
                              9.155323     0.404335
                              4.984876     0.149854
                              2.636633     0.013530
                              1.354062    -0.001244
                              0.656031    -0.000625
                              0.269853    -0.000007
                              0.103443    -0.000015
                              0.036685     0.000003
   51.1 A     1  3d1-    105911.200000    -0.000008
                          24974.572000    -0.000050
                           8108.852700    -0.000255
                           3150.520500    -0.001125
                           1380.647900    -0.004414
                            658.188950    -0.014783
                            332.909040    -0.041535
                            176.023220    -0.089246
                             95.780704    -0.132347
                             53.337287    -0.078124
                             29.864821     0.163122
                             16.526778     0.427754
                              9.155323     0.404335
                              4.984876     0.149854
                              2.636633     0.013530
                              1.354062    -0.001244
                              0.656031    -0.000625
                              0.269853    -0.000007
                              0.103443    -0.000015
                              0.036685     0.000003
   52.1 A     1  3d0     105911.200000     0.000005
                          24974.572000     0.000031
                           8108.852700     0.000156
                           3150.520500     0.000688
                           1380.647900     0.002701
                            658.188950     0.009017
                            332.909040     0.025307
                            176.023220     0.054170
                             95.780704     0.081016
                             53.337287     0.048863
                             29.864821    -0.090253
                             16.526778    -0.246108
                              9.155323    -0.206252
                              4.984876     0.172281
                              2.636633     0.505499
                              1.354062     0.395618
                              0.656031     0.111498
                              0.269853     0.006248
                              0.103443    -0.000028
                              0.036685    -0.000036
   53.1 A     1  3d2-    105911.200000     0.000005
                          24974.572000     0.000031
                           8108.852700     0.000156
                           3150.520500     0.000688
                           1380.647900     0.002701
                            658.188950     0.009017
                            332.909040     0.025307
                            176.023220     0.054170
                             95.780704     0.081016
                             53.337287     0.048863
                             29.864821    -0.090253
                             16.526778    -0.246108
                              9.155323    -0.206252
                              4.984876     0.172281
                              2.636633     0.505499
                              1.354062     0.395618
                              0.656031     0.111498
                              0.269853     0.006248
                              0.103443    -0.000028
                              0.036685    -0.000036
   54.1 A     1  3d1+    105911.200000     0.000005
                          24974.572000     0.000031
                           8108.852700     0.000156
                           3150.520500     0.000688
                           1380.647900     0.002701
                            658.188950     0.009017
                            332.909040     0.025307
                            176.023220     0.054170
                             95.780704     0.081016
                             53.337287     0.048863
                             29.864821    -0.090253
                             16.526778    -0.246108
                              9.155323    -0.206252
                              4.984876     0.172281
                              2.636633     0.505499
                              1.354062     0.395618
                              0.656031     0.111498
                              0.269853     0.006248
                              0.103443    -0.000028
                              0.036685    -0.000036
   55.1 A     1  3d2+    105911.200000     0.000005
                          24974.572000     0.000031
                           8108.852700     0.000156
                           3150.520500     0.000688
                           1380.647900     0.002701
                            658.188950     0.009017
                            332.909040     0.025307
                            176.023220     0.054170
                             95.780704     0.081016
                             53.337287     0.048863
                             29.864821    -0.090253
                             16.526778    -0.246108
                              9.155323    -0.206252
                              4.984876     0.172281
                              2.636633     0.505499
                              1.354062     0.395618
                              0.656031     0.111498
                              0.269853     0.006248
                              0.103443    -0.000028
                              0.036685    -0.000036
   56.1 A     1  3d1-    105911.200000     0.000005
                          24974.572000     0.000031
                           8108.852700     0.000156
                           3150.520500     0.000688
                           1380.647900     0.002701
                            658.188950     0.009017
                            332.909040     0.025307
                            176.023220     0.054170
                             95.780704     0.081016
                             53.337287     0.048863
                             29.864821    -0.090253
                             16.526778    -0.246108
                              9.155323    -0.206252
                              4.984876     0.172281
                              2.636633     0.505499
                              1.354062     0.395618
                              0.656031     0.111498
                              0.269853     0.006248
                              0.103443    -0.000028
                              0.036685    -0.000036
   57.1 A     1  3d0     105911.200000    -0.000001
                          24974.572000    -0.000009
                           8108.852700    -0.000043
                           3150.520500    -0.000191
                           1380.647900    -0.000748
                            658.188950    -0.002504
                            332.909040    -0.007015
                            176.023220    -0.015060
                             95.780704    -0.022418
                             53.337287    -0.013379
                             29.864821     0.026549
                             16.526778     0.070488
                              9.155323     0.058301
                              4.984876    -0.065821
                              2.636633    -0.177452
                              1.354062    -0.127087
                              0.656031     0.181724
                              0.269853     0.495430
                              0.103443     0.447107
                              0.036685     0.116435
   58.1 A     1  3d2-    105911.200000    -0.000001
                          24974.572000    -0.000009
                           8108.852700    -0.000043
                           3150.520500    -0.000191
                           1380.647900    -0.000748
                            658.188950    -0.002504
                            332.909040    -0.007015
                            176.023220    -0.015060
                             95.780704    -0.022418
                             53.337287    -0.013379
                             29.864821     0.026549
                             16.526778     0.070488
                              9.155323     0.058301
                              4.984876    -0.065821
                              2.636633    -0.177452
                              1.354062    -0.127087
                              0.656031     0.181724
                              0.269853     0.495430
                              0.103443     0.447107
                              0.036685     0.116435
   59.1 A     1  3d1+    105911.200000    -0.000001
                          24974.572000    -0.000009
                           8108.852700    -0.000043
                           3150.520500    -0.000191
                           1380.647900    -0.000748
                            658.188950    -0.002504
                            332.909040    -0.007015
                            176.023220    -0.015060
                             95.780704    -0.022418
                             53.337287    -0.013379
                             29.864821     0.026549
                             16.526778     0.070488
                              9.155323     0.058301
                              4.984876    -0.065821
                              2.636633    -0.177452
                              1.354062    -0.127087
                              0.656031     0.181724
                              0.269853     0.495430
                              0.103443     0.447107
                              0.036685     0.116435
   60.1 A     1  3d2+    105911.200000    -0.000001
                          24974.572000    -0.000009
                           8108.852700    -0.000043
                           3150.520500    -0.000191
                           1380.647900    -0.000748
                            658.188950    -0.002504
                            332.909040    -0.007015
                            176.023220    -0.015060
                             95.780704    -0.022418
                             53.337287    -0.013379
                             29.864821     0.026549
                             16.526778     0.070488
                              9.155323     0.058301
                              4.984876    -0.065821
                              2.636633    -0.177452
[...]
                                    8  1  px  -0.30914    8  1  py   0.34863
   73.1     2.00000    -0.52170     4  1  pz  -0.36018    6  1  px   0.45560   10  1  py   0.37208   10  1  pz   0.29366
   74.1     2.00000    -0.51370     4  1  px   0.30340    4  1  py   0.32788    4  1  pz   0.42530    6  1  px   0.50681
   75.1     2.00000    -0.51321     4  1  pz   0.30925    6  1  px  -0.32295   10  1  px  -0.25696   10  1  py   0.43491
                                   10  1  pz   0.34909
   76.1     2.00000    -0.50547     4  1  py   0.28092    4  1  pz  -0.33428    6  1  py   0.41366    6  1  pz  -0.25138
                                   10  1  py   0.36203   10  1  pz  -0.29751
   77.1     2.00000    -0.49138     4  1  pz   0.25917    8  1  px   0.50723    8  1  pz   0.43124   10  1  py   0.29152
                                   10  1  pz  -0.31487
   78.1     2.00000    -0.49099     4  1  px   0.29140    6  1  px  -0.25631    6  1  py  -0.26655    8  1  px  -0.28482
                                    8  1  py   0.47855    8  1  pz   0.35169
   79.1     2.00000    -0.40773     2  3  px   0.36250    2  3  py   0.62543    2  3  pz  -0.51407
   80.1     2.00000    -0.37832     2  3  px  -0.52653    2  3  py   0.63905    2  3  pz   0.40580
   81.1     2.00000    -0.37808     2  3  px   0.65661    2  3  pz   0.63325
   82.1     0.00000     0.02156     1  4  s   -0.36379    1  5  s   -1.14904    1  6  s   -4.03632    1  7  s   -5.16080
                                    1 11  s    2.82554    1  5  px   0.57610    1  5  py   0.93043    1  5  pz  -0.75276
                                    1  6  px   1.44818    1  6  py   2.42532    1  6  pz  -1.97269    1 10  px  -0.76259
                                    1 10  py  -1.28224    1 10  pz   1.02891    2  7  s   -1.39392    2  6  py   0.35034
                                    2  6  pz  -0.28408    3  4  s    0.65013    4  5  s    0.72191    4  4  px   0.43893
                                    4  4  py  -0.38073    5  4  s    0.62816    6  5  s    0.72351    6  4  py   0.34216
                                    6  4  pz   0.47559    7  4  s    0.64120    8  5  s    2.05387    8  4  px   0.39792
                                    8  4  py   0.65678    8  4  pz  -0.53728    9  4  s    0.54695   10  5  s    0.66824
                                   10  4  px  -0.44898   10  4  pz  -0.31126
   83.1     0.00000     0.03338     1  5  px  -1.12778    1  5  py  -0.25701    1  5  pz  -1.07569    1  6  px  -2.25105
                                    1  6  py  -0.51946    1  6  pz  -2.15781    1  7  px  -0.37814    1  7  pz  -0.35540
                                    1 10  px   2.03621    1 10  py   0.45133    1 10  pz   1.94782    1  4  d1+ -0.28949
                                    1  8  d1+  0.31344    1  8  d2+  0.27907    4  5  s   -0.67613    4  4  py   0.42513
                                    4  4  pz   0.47700    5  4  s    0.46872    6  5  s   -1.37272    6  4  px   0.32333
                                    6  4  py  -0.68781    6  4  pz  -0.57746   10  5  s    1.99455   10  4  px  -1.14404
                                   10  4  pz  -0.76029
   84.1     0.00000     0.03353     1  5  px   0.87324    1  5  py  -1.03573    1  5  pz  -0.68501    1  6  px   1.79624
                                    1  6  py  -2.14205    1  6  pz  -1.41608    1  7  px   0.26000    1  7  py  -0.30217
                                    1 10  px  -1.62354    1 10  py   1.93975    1 10  pz   1.25907    1  4  d2-  0.25100
                                    1  8  d0  -0.31972    1  8  d2- -0.30698    3  4  s    0.41000    3  3  px  -0.26954
                                    4  5  s    1.84339    4  4  px   1.07907    4  4  py  -0.67855    6  5  s   -1.41997
                                    6  4  px  -0.37200    6  4  py  -0.54908    6  4  pz  -0.87397    7  4  s   -0.37246
                                   10  5  s   -0.34434   10  4  py   0.37651   10  4  pz   0.46816
   85.1     0.00000     0.03805     1  6  s   -0.96502    1  7  s   -1.65589    1 11  s    0.52816    1  5  px   0.39662
                                    1  5  py   0.78818    1  5  pz  -0.65680    1  6  px   0.92008    1  6  py   1.83671
                                    1  6  pz  -1.53040    1 10  px  -0.50321    1 10  py  -1.11913    1 10  pz   0.94062
                                    1  4  d2- -0.37114    1  4  d1+  0.30239    1  4  d1-  0.52017    1  5  d1- -0.29930
                                    1  8  d1-  0.31185    2  7  s    1.20596    3  4  s   -0.90499    4  5  s   -0.42069
                                    4  4  px  -0.50175    4  4  py   0.40588    5  4  s   -0.86180    6  5  s   -0.43079
                                    6  4  py  -0.38885    6  4  pz  -0.48860    7  4  s   -0.88835    8  5  s    3.17137
                                    8  4  px   0.58164    8  4  py   0.96527    8  4  pz  -0.79455    9  4  s    1.78658
                                   10  5  s   -0.43720   10  4  px   0.48357   10  4  pz   0.31682
   86.1     0.00000     0.05383     1  5  px   0.45526    1  5  py  -0.43497    1  7  px   0.65746    1  7  py  -0.63275
                                    1  7  pz  -0.38067    1 10  px   2.21732    1 10  py  -2.30029    1 10  pz  -1.23031
                                    1  8  d0   0.71913    1  8  d2-  0.74043    1  8  d1+  0.34287    1  8  d1-  0.37420
                                    2  6  px  -0.25993    2  6  py   0.27251    3  3  s    0.90099    3  4  s    3.94426
                                    4  3  px   0.26771    4  3  py  -0.25701    4  4  px   0.50889    4  4  py  -0.68897
                                    5  3  s   -0.26180    5  4  s   -1.30491    6  5  s   -0.25057    6  4  px   0.33471
                                    6  4  py  -0.39229    6  4  pz  -0.49185    7  3  s   -0.59481    7  4  s   -2.79353
                                   10  4  px   0.47272   10  4  py  -0.29754
   87.1     0.00000     0.05434     1  5  px  -0.44525    1  5  pz  -0.46327    1  7  px  -0.66104    1  7  py  -0.27513
                                    1  7  pz  -0.69797    1 10  px  -2.32546    1 10  py  -0.83174    1 10  pz  -2.66603
                                    1  8  d0   0.35106    1  8  d1+ -0.67306    1  8  d2+ -0.65862    1  8  d1-  0.44037
                                    2  6  px   0.26625    2  6  pz   0.30696    3  4  s   -0.85394    4  4  px  -0.34229
                                    4  4  pz  -0.37065    5  3  s    0.89660    5  4  s    4.06748    6  4  px  -0.31174
                                    6  4  pz  -0.66509    7  3  s   -0.73390    7  4  s   -3.08202   10  3  px  -0.31425
                                   10  4  px  -0.71089   10  4  py  -0.25785   10  4  pz  -0.54196
   88.1     0.00000     0.06040     1  4  s    0.26787    1  5  s    0.86336    1  6  s    3.34115    1  7  s    5.00117
                                    1  8  s   -0.42738    1 11  s   -3.77442    1  6  px  -1.02017    1  6  py  -1.60565
                                    1  6  pz   1.30349    1  7  px   0.56805    1  7  py   1.03367    1  7  pz  -0.84515
                                    1  8  py  -0.26625    1 10  px   1.77170    1 10  py   2.89742    1 10  pz  -2.34589
                                    2  7  s   -1.61540    2  5  py   0.33881    2  5  pz  -0.27731    3  4  s   -0.49564
                                    4  5  s   -0.95572    4  4  px  -0.29101    5  4  s   -0.42581    6  5  s   -0.92065
                                    6  4  pz  -0.29216    7  4  s   -0.44294    8  4  s   -0.30297    8  5  s   -2.34591
                                    8  4  px   0.46739    8  4  py   0.64685    8  4  pz  -0.50775    9  3  s    1.50300
                                    9  4  s    4.09881   10  5  s   -0.88711   10  4  px   0.27802
   89.1     0.00000     0.06967     1  6  s    0.65507    1  7  s    0.63051    1  8  s    0.36346    1 11  s    7.46093
                                    1  6  px   0.55914    1  6  py   0.72330    1  6  pz  -0.59346    1 10  px  -0.90137
                                    1 10  py  -0.82211    1 10  pz   0.67452    1  4  d1-  0.28718    2  7  s   -1.00385
                                    3  3  s   -0.59483    3  4  s   -2.46673    4  4  px  -0.39722    4  4  py   0.46508
                                    5  3  s   -0.49890    5  4  s   -1.98951    6  4  pz  -0.54080    7  3  s   -0.55036
                                    7  4  s   -2.24028    8  5  s    0.92460    9  3  s   -0.55367    9  4  s   -2.40326
                                   10  4  px   0.46734   10  4  pz   0.28029
   90.1     0.00000     0.08723     1  5  s   -0.61241    1  6  s   -2.25847    1  7  s   -3.32556    1 11  s   12.82817
                                    1  4  py   0.39582    1  4  pz  -0.32214    1  5  px   1.42516    1  5  py   2.31294
                                    1  5  pz  -1.88322    1  6  px   4.77610    1  6  py   7.79256    1  6  pz  -6.32918
                                    1  7  px  -0.49225    1  7  py  -0.79258    1  7  pz   0.63493    1 10  px  -2.76443
                                    1 10  py  -4.33349    1 10  pz   3.50837    1  4  d2-  0.37577    1  4  d1+ -0.29425
                                    1  4  d1- -0.54572    1  8  d2-  1.29729    1  8  d1+ -0.96266    1  8  d2+ -0.71888
                                    1  8  d1- -1.84081    1  6  f1-  0.35214    1  6  f0   0.38195    1  6  f3+ -0.42776
                                    1  6  f2- -0.46656    2  6  s   -0.40135    2  7  s   -8.79041    2  5  px   0.61798
                                    2  5  py   1.05512    2  5  pz  -0.86593    2  6  px   1.21769    2  6  py   2.09732
                                    2  6  pz  -1.72364    2  4  d1-  0.29020    3  3  s   -0.65285    3  4  s   -1.88198
                                    4  5  s    2.23862    5  3  s   -0.53193    5  4  s   -1.79295    6  5  s    2.15571
                                    7  3  s   -0.61388    7  4  s   -1.85367    8  5  s    2.79350    8  4  py   0.52257
                                    8  4  pz  -0.46518    9  2  s    0.26171    9  4  s   -4.25595   10  5  s    1.96123
   91.1     0.00000     0.10193     1  7  s   -0.34190    1 11  s    0.45329    1  5  px  -0.29602    1  5  py   0.36972
                                    1  6  px  -0.62569    1  6  py   0.79059    1  6  pz   0.27778    1 10  px   0.35339
                                    1 10  py  -0.48682    1  4  d1+ -0.32491    1  4  d2+  0.46284    1  8  d0   0.34956
                                    1  8  d1+ -0.73396    1  8  d2+  0.95241    1  2  f0   0.40945    1  2  f3+  0.50497
                                    1  2  f2+ -0.28329    2  6  px  -0.36340    2  6  py   0.38489    4  5  s   -0.73193
                                    4  4  py   0.61780    4  4  pz  -0.38677    6  5  s    0.57480    6  4  py  -0.26900
                                    6  4  pz   0.39427    8  4  px   0.35056    8  4  py  -0.30529   10  5  s    0.28559


 HOMO     81.1    -0.378076 =     -10.2880eV
 LUMO     82.1     0.021564 =       0.5868eV
 LUMO-HOMO         0.399640 =      10.8747eV

 Orbitals saved in record  2100.2


 **********************************************************************************************************************************
 DATASETS  * FILE   NREC   LENGTH (MB)   RECORD NAMES
              1      22       50.31       500      610      700      900      950      970     1000      129      960     1700   
                                          VAR    BASINP    GEOM    SYMINP    ZMAT    AOBASIS   BASIS     P2S    ABASIS    OPER   
                                         1101     1401     1411     1412     1650     1100     1400     1410     1200     1210   
                                          SR      EKINR    POTR     PVPR    MOLCAS      S      EKIN      POT      H0       H01  
                                         1080     1600   
                                         AOSYM     SMH  

              2       6       15.89       500      610      700     1000      520     2100   
                                          VAR    BASINP    GEOM     BASIS   MCVARS     RHF  

 PROGRAMS   *        TOTAL    HF-SCF       INT      FILE
 CPU TIMES  *       574.27    235.54    338.51      0.01
 REAL TIME  *       621.85 SEC
 DISK USED  *        83.31 MB (local),       97.08 GB (total)
 GA USED    *         0.01 MB       (max)       0.00 MB       (current)
 **********************************************************************************************************************************


 PROGRAM * CCSD (Closed-shell coupled cluster)     Authors: C. Hampel, H.-J. Werner, 1991, M. Deegan, P.J. Knowles, 1992


 Convergence thresholds:  THRVAR = 1.00D-08  THRDEN = 1.00D-06

 CCSD(T)     terms to be evaluated (factor= 1.000)


 Number of core orbitals:          57 (  57 )
 Number of closed-shell orbitals:  24 (  24 )
 Number of external orbitals:     415 ( 415 )

 Molecular orbitals read from record     2100.2  Type=RHF/CANONICAL  

 Number of N-1 electron functions:              24
 Number of N-2 electron functions:             300
 Number of singly external CSFs:              9960
 Number of doubly external CSFs:          49605780
 Total number of CSFs:                    49615741

 Length of J-op  integral file:               0.00 MB
 Length of K-op  integral file:              16.89 MB
 Length of 3-ext integral record:             0.00 MB

 Integral transformation finished. Total CPU: 692.09 sec, npass=  1  Memory used:1651.94 MW

 Reference energy:                 -30084.47503605

 MP2 singlet pair energy:              -0.95888450
 MP2 triplet pair energy:              -0.64705044
 MP2 correlation energy:               -1.60593494
 MP2 total energy:                 -30086.08097099

 SCS-MP2 correlation energy:           -1.55327056   (PS=  1.200000  PT=  0.333333)
 SCS-MP2 total energy:             -30086.02830661

 ITER.      SQ.NORM     CORR.ENERGY   TOTAL ENERGY   ENERGY CHANGE        DEN1      VAR(S)    VAR(P)  DIIS     TIME  TIME/IT
   1      1.44129677    -1.61617791-30086.09121396    -0.01024297     0.05115344  0.29D-01  0.12D-01  1  1  1637.13   371.13
   2      1.47209063    -1.60734965-30086.08238570     0.00882826    -0.04162551  0.40D-03  0.22D-02  2  2  2035.52   388.37
   3      1.49330540    -1.60964862-30086.08468466    -0.00229896    -0.00537566  0.12D-02  0.15D-03  3  3  2420.65   389.61
   4      1.50552951    -1.60839596-30086.08343201     0.00125265    -0.00361061  0.21D-03  0.40D-04  4  4  2801.05   389.19
   5      1.51523006    -1.60770942-30086.08274547     0.00068654    -0.00172186  0.46D-04  0.52D-05  5  5  3182.94   389.36
   6      1.51829145    -1.60754377-30086.08257982     0.00016566    -0.00020661  0.69D-05  0.20D-05  6  6  3572.17   390.80
   7      1.51973961    -1.60742097-30086.08245702     0.00012279    -0.00005094  0.18D-05  0.29D-06  6  1  3956.97   391.14
   8      1.52017974    -1.60741194-30086.08244799     0.00000903    -0.00005820  0.33D-06  0.83D-07  6  2  4349.51   392.40
   9      1.52026360    -1.60741745-30086.08245350    -0.00000551     0.00001328  0.97D-07  0.17D-07  6  4  4752.61   394.57
  10      1.52030157    -1.60741884-30086.08245489    -0.00000140    -0.00000277  0.22D-07  0.53D-08  6  3  5135.26   394.22
  11      1.52032517    -1.60741735-30086.08245340     0.00000149    -0.00000488  0.71D-08  0.14D-08  6  5  5517.38   393.89
  12      1.52032699    -1.60741926-30086.08245531    -0.00000191     0.00000422  0.18D-08  0.47D-09  6  6  5900.15   393.66
  13      1.52032688    -1.60741861-30086.08245465     0.00000065    -0.00000025  0.26D-09  0.89D-10  6  1  6301.69   394.95
  14      1.52032428    -1.60741942-30086.08245547    -0.00000081     0.00000112  0.50D-10  0.14D-10  6  2  6690.94   395.15

 Norm of t1 vector:      0.24060336      S-energy:     0.00000026      T1 diagnostic:  0.02455648
                                                                       D1 diagnostic:  0.07111824
                                                                       D2 diagnostic:  0.14609198 (internal)

 Singles amplitudes (print threshold =  0.500E-01):

         I         SYM. A    A   T(IA)

        16         1        20      0.05716858

   CPU time for triples:   2117.78 sec for i =  1 -  7 / 24 (~   3.0 % done)
   CPU time for triples:   2117.18 sec for i =  8 - 17 / 24 (~  37.0 % done)
   CPU time for triples:   2657.89 sec for i = 18 - 21 / 24 (~  67.9 % done)
   CPU time for triples:   2796.83 sec for i = 22 - 24 / 24 (  100.0 % done)

 Total CPU time for triples:   9712.60 sec


 RESULTS
 =======

  Reference energy                   -30084.4750360483    
  CCSD singlet pair energy             -1.032213708133
  CCSD triplet pair energy             -0.575205971426
  CCSD correlation energy              -1.607419420069

  Triples (T) contribution             -0.079709196467
  Total correlation energy             -1.687128616536

  CCSD total energy                  -30086.0824554683    
  CCSD[T] energy                     -30086.1733587159    
  CCSD-T energy                      -30086.1584518652    
 !CCSD(T) total energy               -30086.1621646648    

 Timing summary (sec):

 STEP                 CPU(USER)    SYS     CPU(TOT)    WALL
 Transformation        694.04     28.18    722.22    722.65
 CCSD iterations      6010.40    107.48   6117.88   5545.51
 Triples              9712.60    134.35   9846.95   9852.20

 Program statistics:

 Available memory in ccsd:              2099997615
 Min. memory needed in ccsd:             114996998
 Max. memory used in ccsd:               160770074
 Max. memory used in cckext:             150227023 (14 integral passes)



 **********************************************************************************************************************************
 DATASETS  * FILE   NREC   LENGTH (MB)   RECORD NAMES
              1      23     7458.62       500      610      700      900      950      970     1000      129      960     1700   
                                          VAR    BASINP    GEOM    SYMINP    ZMAT    AOBASIS   BASIS     P2S    ABASIS    OPER   
                                         1101     1401     1411     1412     1650     1100     1400     1410     1200     1210   
                                          SR      EKINR    POTR     PVPR    MOLCAS      S      EKIN      POT      H0       H01  
                                         1080     1600     1380   
                                         AOSYM     SMH     JKOP   

              2       6       15.89       500      610      700     1000      520     2100   
                                          VAR    BASINP    GEOM     BASIS   MCVARS     RHF  

 PROGRAMS   *        TOTAL   CCSD(T)    HF-SCF       INT      FILE
 CPU TIMES  *     16415.76  15841.48    235.54    338.51      0.01
 REAL TIME  *     16746.06 SEC
 DISK USED  *        11.92 GB (local),      159.45 GB (total)
 SF USED    *        13.02 GB
 GA USED    *         0.01 MB       (max)       0.00 MB       (current)
 **********************************************************************************************************************************
 SETTING ENERGY_HF(1)   =    -30084.47503605  AU                              
 SETTING CORR_MP2(1)    =        -1.60593494  AU                              
 SETTING CORR_CCSDT(1)  =        -1.68712862  AU                              

 CCSD(T)/PA=CC-PVTZ-DK,O=AUG-CC-PVTZ-DK,H=AUG-CC-PVTZ-DK,BR=AUG-CC-PVTZ-DK energy= -30086.162164664795

         CCSD(T)          HF-SCF
 -30086.16216466 -30084.47503605
 **********************************************************************************************************************************
 Molpro calculation terminated
