

 Parallel Execution: Process Information
 ==============================================================================
 Rank   Node Name                              NodeID   MyNodeRank  NodeMaster
    0   u-0-11.local                              0          0          0
    1   u-0-11.local                              0          1         -1
    2   u-0-11.local                              1          0          1
    3   u-0-11.local                              1          1         -1
    4   u-0-11.local                              2          0          2
    5   u-0-11.local                              2          1         -1
    6   u-0-11.local                              3          0          3
    7   u-0-11.local                              3          1         -1
 ==============================================================================


May use up to 31200MB of RAM as shared memory on node 0
May use up to 31250MB of RAM as shared memory on node 1
May use up to 31250MB of RAM as shared memory on node 2
May use up to 31250MB of RAM as shared memory on node 3

 *******************************************************************************
 *                                                                             *
 *  --------------------------------                                           *
 *   Amsterdam Modeling Suite (AMS)              2022.103                      *
 *  --------------------------------                                           *
 *                                               r104886 2022-06-17            *
 *                                                                             *
 *                                                                             *
 *                              =================                              *
 *                              |               |                              *
 *                              |     A M S     |                              *
 *                              |               |                              *
 *                              =================                              *
 *                                                                             *
 *                                                                             *
 *   Online information and documentation:  https://www.scm.com/support/       *
 *   E-mail:  support@scm.com   info@scm.com                                   *
 *                                                                             *
 *   Scientific publications using AMS results must be properly referenced     *
 *   See the User Manuals (or the web site) for recommended citations          *
 *   The terms and conditions of the End User License Agreement apply to       *
 *   the use of AMS, https://www.scm.com/license-terms/                        *
 *                                                                             *
 **********************  x86_64_linux_intel / intelmpi  ************************
 
 Licensed to: Dr. Val?rie Vallet / Laboratoire PhLAM UMR 8523 / Villeneuve d'Ascq Cedex / FRANCE 2023-02-21 11:49:39
 SCM User ID: u10325
  
 AMS 2022.103  RunTime: Mar01-2023 23:51:41  ShM Nodes: 4  Procs: 8

 AMS jobname: pa_oh4_N.SR.b3lyp.tz2p.opt-freq-B22-solvation
 AMS jobid  : 1709430399

 Start   directory: /home/shaaban/ams/PhD/thiocyanate/bnN/pa_oh4_N/solvation/B22/
 Results directory: /home/shaaban/ams/PhD/thiocyanate/bnN/pa_oh4_N/solvation/B22/pa_oh4_N.SR.b3lyp.tz2p.opt-freq-B22-solvation.results/
 Scratch directory: /state/partition2/shaaban/929859.phlam-s-sakura/amstmp_pa_oh4_N.SR.b3lyp.tz2p.opt-freq-B22-solvation_kid0.1709430399/


 Communication costs MPI_COMM_WORLD:      1.879 usec per message,   0.0111 usec per 8-byte item
 Communication costs for intra-node:      0.387 usec per message,   0.0027 usec per 8-byte item

 RNG seed: 1997394131 518901970 -1899755568 -2107042546 943500347 -746615253 554618737 -507701087



                      ************************************************************************
                      *  ADF 2022.103  RunTime: Mar01-2023 23:51:43  ShM Nodes: 4  Procs: 8  *
                      ************************************************************************
  
       ***************************
       *  GEOMETRY OPTIMIZATION  *
       ***************************

Optimization Method                    Quasi Newton
Optimization Coordinates               Delocalized Coordinates
Optimize lattice                       F
 
 ------------------------------------------------------
 Convergence criteria (Hartree,Angstrom)
 ------------------------------------------------------
 Maximum gradient               0.000100000000
 Maximum rms gradient           0.000066666667
 Maximum step allowed           0.001000000000
 Maximum rms step allowed       0.000666666667
 Maximum energy change allowe   0.000012000000
 Maximum stress energy allowe   0.000500000000
 
Initial model Hessian                  Automatic Hessian
 
------------------------------------
Quasi-Newton Optimizer Parameters
------------------------------------
Hessian Update Method                  BFGS
Maximum number of steps                  250
First GDIIS cycle                          0
Maximum GDIIS vectors                      0
Trust radius (bohr)                        0.200000
Trust radius varies                        T
Constraints converged at all steps         T
Use projector                              T
 
 Rigid motions settings for: old optimizer
 Atomic rotations (x,y,z):     T T T
 Atomic translations (x,y,z):  T T T
 Tolerance:                   1.000000000000000E-006
 
--------
Geometry
--------
Formula: CH4NO4PaS
Atoms
  Index Symbol   x (angstrom)   y (angstrom)   z (angstrom)
      1     Pa     0.29899776    -0.05376758    -0.08220173       adf.R=2.200
      2      N     1.18346433     1.51757151    -1.51786765       adf.R=1.608
      3      H    -1.98071225     1.90729968     0.39247061       adf.R=1.350
      4      O    -1.27387828     1.27347807     0.25866002       adf.R=1.517
      5      H     2.85707116     0.17642682     1.55391515       adf.R=1.350
      6      O     0.19827506    -1.37379753    -1.69508807       adf.R=1.517
      7      H     0.14590493    -1.98228451    -2.43410444       adf.R=1.350
      8      O    -0.51000622    -1.46362206     1.22627273       adf.R=1.517
      9      H    -0.89643153    -2.10252096     1.82785313       adf.R=1.350
     10      O     2.05123312     0.09922378     1.04026131       adf.R=1.517
     11      C     1.63053337     2.36928163    -2.21913996       adf.R=1.700
     12      S     2.22660608     3.50613021    -3.15335022       adf.R=1.792
 
Total System Charge             0.00000
Bonding info available!
 
 
----------------
ADF Engine Input
----------------
 
 Basis
 Type TZ2P
 Core None
 End
 XC
 Hybrid B3LYP
 End
 Solvation
 Surf Delley
 Solv name=Water cav0=0.0 cav1=0.0067639
 Charged method=CONJ
 C-Mat POT
 SCF VAR ALL
 CSMRSP
 End
 NumericalQuality Good
 

 Title: *** (NO TITLE) ***

Bad geometry: could not add a dihedral for atom    3
Bad geometry: could not add a dihedral for atom    5
Bad geometry: could not add a dihedral for atom    7
Bad geometry: could not add a dihedral for atom    9
Bad geometry: could not add a dihedral for atom   12
 Using automatic Hessian for delocalized coordinates.
 *** GO1_GOStep1 ***

 SOLVATION
-------------------------------------------

  The Delley construction of COSMO surface surface is calculated

       Division Level for Surface Triangles (NDIV)                  3
       Final Division Level for Triangles (NFDIV)                   1
       Radius of the Solvent (RSOL)                           1.93000 angstr
  Dielectric Constant (EPSL)                                 78.39000

       COSMO equation is solved iteratively-               conjugate-gradient

       Maximun of Iterations for Charges (NCIX)                  1000
       Criterion for Charge convergence (CCNV)                1.0E-08

  COSMO charges included variationally in SCF

       COSMO included at every SCF cycle

  Geometry-dependent empirical factor                         0.00000

  C-Matrix calculated in cspmtx

  In cspmtx, C-Matrix calculated using fitted potential

-------------------------------------------



 -------------------------------------------
  COSMO surface
  Area             =          625.063
  Volume           =          956.323
  Number of Points =         1648
 -------------------------------------------



 ======================
 RI Hartree-Fock Scheme
 ======================
  
 Fit Set Quality     : GOOD
 Threshold Quality   : GOOD
 Integration Quality : GOOD
 Response Quality    : DEFAULT
 Is Range Separated  :  F
 
 RIHartreeFock Dependency: number of modified vectors:           6
 cosmo_calcen: 0.5 (esolb+esolc) (Hartrees) =   -0.029100

 Solvation energy (screening term,uncorrected) =    -18.260428 kcal/mol

 Solvation energy (dispersion and cavitation terms) =      1.168819 kcal/mol
 Solvation Energy Contributions (Hartrees)
          esola   esolb+esolc
     0.02909984   -0.05819968
 esol last cycle   -0.02909984
  
 Hartree-Fock exchange energy:   -537.453689732207     
 cosmo_calcen: 0.5 (esolb+esolc) (Hartrees) =   -0.029100

 Solvation energy (screening term,uncorrected) =    -18.260441 kcal/mol

 Solvation energy (dispersion and cavitation terms) =      1.168819 kcal/mol
 Solvation Energy Contributions (Hartrees)
          esola   esolb+esolc
     0.02909986   -0.05819972
 esol last cycle   -0.02909986

 Energy gradients wrt nuclear displacements
 ==========================================

     Atom      Cartesian (a.u./angstrom)
                 X         Y         Z
 ----------------------------------------
     1 Pa    0.009005  0.016839 -0.015332
     2 N    -0.016394 -0.029761  0.026272
     3 H     0.004805 -0.003391 -0.001389
     4 O    -0.003120  0.000359  0.002000
     5 H    -0.004681  0.000137 -0.003873
     6 O    -0.001264 -0.004087 -0.000539
     7 H     0.000772  0.004539  0.004068
     8 O    -0.000399 -0.000141  0.000397
     9 H     0.002597  0.004057 -0.003884
    10 O     0.001584 -0.001674  0.003368
    11 C     0.013996  0.026402 -0.021899
    12 S    -0.006902 -0.013279  0.010810
 ----------------------------------------
 Mulliken charges used for AMS results%charges...
 
----------------------------------------------------------------------
Geometry Convergence after Step   1       (Hartree/Angstrom,Angstrom)
----------------------------------------------------------------------
current energy                               -3.44625292 Hartree
energy change                      -3.44625292     0.00001200    F
constrained gradient max            0.02974149     0.00010000    F
constrained gradient rms            0.01100081     0.00006667    F
gradient max                        0.02974139
gradient rms                        0.01100081
cart. step max                      0.00917895     0.00100000    F
cart. step rms                      0.00425321     0.00066667    F
 
 
--------
Geometry
--------
Formula: CH4NO4PaS
Atoms
  Index Symbol   x (angstrom)   y (angstrom)   z (angstrom)
      1     Pa     0.29742091    -0.05919607    -0.07661477       adf.R=2.200
      2      N     1.18681394     1.52044881    -1.52138666       adf.R=1.608
      3      H    -1.98484077     1.90863820     0.38878433       adf.R=1.350
      4      O    -1.27141819     1.27735379     0.25589409       adf.R=1.517
      5      H     2.86386004     0.17719966     1.55405385       adf.R=1.350
      6      O     0.20034612    -1.37140634    -1.69800410       adf.R=1.517
      7      H     0.14530586    -1.98040517    -2.44043429       adf.R=1.350
      8      O    -0.51417658    -1.47004858     1.23370233       adf.R=1.517
      9      H    -0.90378977    -2.11013726     1.83703209       adf.R=1.350
     10      O     2.05476272     0.10266571     1.03937212       adf.R=1.517
     11      C     1.62919332     2.36698183    -2.21770701       adf.R=1.700
     12      S     2.22757992     3.51132446    -3.15701109       adf.R=1.792
 
Total System Charge             0.00000
Bonding info available!
 
 *** GO1_GOStep2 ***

 SOLVATION
-------------------------------------------

  The Delley construction of COSMO surface surface is calculated

       Division Level for Surface Triangles (NDIV)                  3
       Final Division Level for Triangles (NFDIV)                   1
       Radius of the Solvent (RSOL)                           1.93000 angstr
  Dielectric Constant (EPSL)                                 78.39000

       COSMO equation is solved iteratively-               conjugate-gradient

       Maximun of Iterations for Charges (NCIX)                  1000
       Criterion for Charge convergence (CCNV)                1.0E-08

  COSMO charges included variationally in SCF

       COSMO included at every SCF cycle

  Geometry-dependent empirical factor                         0.00000

  C-Matrix calculated in cspmtx

  In cspmtx, C-Matrix calculated using fitted potential

-------------------------------------------



 -------------------------------------------
  COSMO surface
  Area             =          626.179
  Volume           =          958.015
  Number of Points =         1648
 -------------------------------------------



 ======================
 RI Hartree-Fock Scheme
 ======================
  
 Fit Set Quality     : GOOD
 Threshold Quality   : GOOD
 Integration Quality : GOOD
 Response Quality    : DEFAULT
 Is Range Separated  :  F
 
 RIHartreeFock Dependency: number of modified vectors:           6
 cosmo_calcen: 0.5 (esolb+esolc) (Hartrees) =   -0.030303

 Solvation energy (screening term,uncorrected) =    -19.015706 kcal/mol

 Solvation energy (dispersion and cavitation terms) =      1.170906 kcal/mol
 Solvation Energy Contributions (Hartrees)
          esola   esolb+esolc
     0.03030345   -0.06060691
 esol last cycle   -0.03030345
  
 Hartree-Fock exchange energy:   -537.443973892548     
 cosmo_calcen: 0.5 (esolb+esolc) (Hartrees) =   -0.030303

 Solvation energy (screening term,uncorrected) =    -19.015706 kcal/mol

 Solvation energy (dispersion and cavitation terms) =      1.170906 kcal/mol
 Solvation Energy Contributions (Hartrees)
          esola   esolb+esolc
     0.03030345   -0.06060691
 esol last cycle   -0.03030345

 Energy gradients wrt nuclear displacements
 ==========================================

     Atom      Cartesian (a.u./angstrom)
                 X         Y         Z
 ----------------------------------------
     1 Pa    0.008809  0.016116 -0.014655
     2 N    -0.006084 -0.010358  0.010110
     3 H     0.000472  0.000474 -0.000569
     4 O    -0.000909 -0.001430  0.001427
     5 H     0.000241  0.000599 -0.000734
     6 O    -0.000941 -0.001911  0.001511
     7 H     0.000451  0.000777 -0.000482
     8 O     0.000538  0.001380 -0.001058
     9 H     0.000189  0.000056 -0.000129
    10 O    -0.000782 -0.001693  0.001538
    11 C     0.001464  0.002799 -0.002458
    12 S    -0.003448 -0.006808  0.005498
 ----------------------------------------
 Mulliken charges used for AMS results%charges...

 dE(predicted):    -0.41296E-03, dE(actual):    -0.56536E-03, Trust radius:    0.200000, all in a.u.
 
----------------------------------------------------------------------
Geometry Convergence after Step   2       (Hartree/Angstrom,Angstrom)
----------------------------------------------------------------------
current energy                               -3.44681827 Hartree
energy change                      -0.00056536     0.00001200    F
constrained gradient max            0.01611121     0.00010000    F
constrained gradient rms            0.00507380     0.00006667    F
gradient max                        0.01611123
gradient rms                        0.00507380
cart. step max                      0.01869697     0.00100000    F
cart. step rms                      0.00915181     0.00066667    F
 
 
--------
Geometry
--------
Formula: CH4NO4PaS
Atoms
  Index Symbol   x (angstrom)   y (angstrom)   z (angstrom)
      1     Pa     0.29315558    -0.07252034    -0.06261627       adf.R=2.200
      2      N     1.19478409     1.52660322    -1.52842556       adf.R=1.608
      3      H    -1.99256562     1.90162568     0.38333296       adf.R=1.350
      4      O    -1.26521398     1.28247618     0.25193911       adf.R=1.517
      5      H     2.87076349     0.17364418     1.55530239       adf.R=1.350
      6      O     0.20372439    -1.36636301    -1.70056287       adf.R=1.517
      7      H     0.14109639    -1.97473611    -2.44598120       adf.R=1.350
      8      O    -0.52287512    -1.48447599     1.25001540       adf.R=1.517
      9      H    -0.91811215    -2.12415707     1.85407964       adf.R=1.350
     10      O     2.05904787     0.10825369     1.03908495       adf.R=1.517
     11      C     1.63375798     2.37304718    -2.22453392       adf.R=1.700
     12      S     2.23349462     3.53002143    -3.17395375       adf.R=1.792
 
Total System Charge             0.00000
Bonding info available!
 
 *** GO1_GOStep3 ***

 SOLVATION
-------------------------------------------

  The Delley construction of COSMO surface surface is calculated

       Division Level for Surface Triangles (NDIV)                  3
       Final Division Level for Triangles (NFDIV)                   1
       Radius of the Solvent (RSOL)                           1.93000 angstr
  Dielectric Constant (EPSL)                                 78.39000

       COSMO equation is solved iteratively-               conjugate-gradient

       Maximun of Iterations for Charges (NCIX)                  1000
       Criterion for Charge convergence (CCNV)                1.0E-08

  COSMO charges included variationally in SCF

       COSMO included at every SCF cycle

  Geometry-dependent empirical factor                         0.00000

  C-Matrix calculated in cspmtx

  In cspmtx, C-Matrix calculated using fitted potential

-------------------------------------------



 -------------------------------------------
  COSMO surface
  Area             =          626.182
  Volume           =          957.895
  Number of Points =         1641
 -------------------------------------------



 ======================
 RI Hartree-Fock Scheme
 ======================
  
 Fit Set Quality     : GOOD
 Threshold Quality   : GOOD
 Integration Quality : GOOD
 Response Quality    : DEFAULT
 Is Range Separated  :  F
 
 RIHartreeFock Dependency: number of modified vectors:           6
 cosmo_calcen: 0.5 (esolb+esolc) (Hartrees) =   -0.032344

 Solvation energy (screening term,uncorrected) =    -20.296434 kcal/mol

 Solvation energy (dispersion and cavitation terms) =      1.170912 kcal/mol
 Solvation Energy Contributions (Hartrees)
          esola   esolb+esolc
     0.03234442   -0.06468884
 esol last cycle   -0.03234442
  
 Hartree-Fock exchange energy:   -537.421316335245     
 cosmo_calcen: 0.5 (esolb+esolc) (Hartrees) =   -0.032344

 Solvation energy (screening term,uncorrected) =    -20.296440 kcal/mol

 Solvation energy (dispersion and cavitation terms) =      1.170912 kcal/mol
 Solvation Energy Contributions (Hartrees)
          esola   esolb+esolc
     0.03234443   -0.06468886
 esol last cycle   -0.03234443

 Energy gradients wrt nuclear displacements
 ==========================================

     Atom      Cartesian (a.u./angstrom)
                 X         Y         Z
 ----------------------------------------
     1 Pa    0.006645  0.011544 -0.010426
     2 N    -0.004189 -0.007036  0.006743
     3 H    -0.002634  0.003127 -0.000034
     4 O    -0.000359 -0.001019  0.000846
     5 H     0.003728  0.000909  0.001455
     6 O    -0.000490 -0.000910  0.001283
     7 H     0.000170 -0.001862 -0.003727
     8 O     0.000366  0.000914 -0.000670
     9 H    -0.001913 -0.003338  0.003072
    10 O    -0.000829 -0.001084  0.000725
    11 C    -0.003290 -0.006521  0.005140
    12 S     0.002794  0.005275 -0.004406
 ----------------------------------------
 Mulliken charges used for AMS results%charges...

 dE(predicted):    -0.46881E-03, dE(actual):    -0.64957E-03, Trust radius:    0.200000, all in a.u.
 
----------------------------------------------------------------------
Geometry Convergence after Step   3       (Hartree/Angstrom,Angstrom)
----------------------------------------------------------------------
current energy                               -3.44746784 Hartree
energy change                      -0.00064957     0.00001200    F
constrained gradient max            0.01153881     0.00010000    F
constrained gradient rms            0.00414009     0.00006667    F
gradient max                        0.01153894
gradient rms                        0.00414009
cart. step max                      0.01588247     0.00100000    F
cart. step rms                      0.00616689     0.00066667    F
 
 
--------
Geometry
--------
Formula: CH4NO4PaS
Atoms
  Index Symbol   x (angstrom)   y (angstrom)   z (angstrom)
      1     Pa     0.29164014    -0.07939821    -0.05514664       adf.R=2.200
      2      N     1.20343602     1.53440043    -1.53652172       adf.R=1.608
      3      H    -1.99950195     1.88574321     0.38239779       adf.R=1.350
      4      O    -1.25890459     1.28440663     0.24935715       adf.R=1.517
      5      H     2.86921565     0.16493548     1.55761715       adf.R=1.350
      6      O     0.20559453    -1.36203681    -1.70000709       adf.R=1.517
      7      H     0.13402776    -1.97162335    -2.44234516       adf.R=1.350
      8      O    -0.52578746    -1.48964364     1.25797397       adf.R=1.517
      9      H    -0.92415932    -2.12628896     1.86072505       adf.R=1.350
     10      O     2.05968640     0.11237342     1.03828447       adf.R=1.517
     11      C     1.63893867     2.38006026    -2.23149009       adf.R=1.700
     12      S     2.23687169     3.54049059    -3.18316400       adf.R=1.792
 
Total System Charge             0.00000
Bonding info available!
 
 *** GO1_GOStep4 ***

 SOLVATION
-------------------------------------------

  The Delley construction of COSMO surface surface is calculated

       Division Level for Surface Triangles (NDIV)                  3
       Final Division Level for Triangles (NFDIV)                   1
       Radius of the Solvent (RSOL)                           1.93000 angstr
  Dielectric Constant (EPSL)                                 78.39000

       COSMO equation is solved iteratively-               conjugate-gradient

       Maximun of Iterations for Charges (NCIX)                  1000
       Criterion for Charge convergence (CCNV)                1.0E-08

  COSMO charges included variationally in SCF

       COSMO included at every SCF cycle

  Geometry-dependent empirical factor                         0.00000

  C-Matrix calculated in cspmtx

  In cspmtx, C-Matrix calculated using fitted potential

-------------------------------------------



 -------------------------------------------
  COSMO surface
  Area             =          626.912
  Volume           =          959.251
  Number of Points =         1642
 -------------------------------------------



 ======================
 RI Hartree-Fock Scheme
 ======================
  
 Fit Set Quality     : GOOD
 Threshold Quality   : GOOD
 Integration Quality : GOOD
 Response Quality    : DEFAULT
 Is Range Separated  :  F
 
 RIHartreeFock Dependency: number of modified vectors:           6
 cosmo_calcen: 0.5 (esolb+esolc) (Hartrees) =   -0.033677

 Solvation energy (screening term,uncorrected) =    -21.132891 kcal/mol

 Solvation energy (dispersion and cavitation terms) =      1.172276 kcal/mol
 Solvation Energy Contributions (Hartrees)
          esola   esolb+esolc
     0.03367740   -0.06735480
 esol last cycle   -0.03367740
  
 Hartree-Fock exchange energy:   -537.421797489762     
 cosmo_calcen: 0.5 (esolb+esolc) (Hartrees) =   -0.033677

 Solvation energy (screening term,uncorrected) =    -21.132890 kcal/mol

 Solvation energy (dispersion and cavitation terms) =      1.172276 kcal/mol
 Solvation Energy Contributions (Hartrees)
          esola   esolb+esolc
     0.03367740   -0.06735480
 esol last cycle   -0.03367740

 Energy gradients wrt nuclear displacements
 ==========================================

     Atom      Cartesian (a.u./angstrom)
                 X         Y         Z
 ----------------------------------------
     1 Pa    0.004373  0.007197 -0.006434
     2 N     0.000093  0.000825 -0.000125
     3 H    -0.001162  0.001821 -0.000336
     4 O    -0.001697  0.000669  0.000803
     5 H     0.002057  0.000755  0.000383
     6 O    -0.000418 -0.001830 -0.000641
     7 H     0.000276 -0.000594 -0.002159
     8 O    -0.001358 -0.001927  0.002015
     9 H    -0.000742 -0.001398  0.001256
    10 O     0.001033 -0.000587  0.001470
    11 C    -0.005474 -0.010668  0.008538
    12 S     0.003021  0.005738 -0.004771
 ----------------------------------------
 Mulliken charges used for AMS results%charges...

 dE(predicted):    -0.17733E-03, dE(actual):    -0.28139E-03, Trust radius:    0.200000, all in a.u.
 
----------------------------------------------------------------------
Geometry Convergence after Step   4       (Hartree/Angstrom,Angstrom)
----------------------------------------------------------------------
current energy                               -3.44774923 Hartree
energy change                      -0.00028139     0.00001200    F
constrained gradient max            0.01063570     0.00010000    F
constrained gradient rms            0.00347397     0.00006667    F
gradient max                        0.01063702
gradient rms                        0.00347397
cart. step max                      0.03018835     0.00100000    F
cart. step rms                      0.00965989     0.00066667    F
 
 
--------
Geometry
--------
Formula: CH4NO4PaS
Atoms
  Index Symbol   x (angstrom)   y (angstrom)   z (angstrom)
      1     Pa     0.29186110    -0.08250388    -0.05067773       adf.R=2.200
      2      N     1.21555834     1.54626788    -1.54880063       adf.R=1.608
      3      H    -2.01383221     1.85555487     0.38856856       adf.R=1.350
      4      O    -1.25194862     1.28464249     0.24854275       adf.R=1.517
      5      H     2.86208059     0.14764869     1.56576872       adf.R=1.350
      6      O     0.20613115    -1.35751033    -1.69698637       adf.R=1.517
      7      H     0.12002346    -1.97320494    -2.43145038       adf.R=1.350
      8      O    -0.52444034    -1.48911959     1.26154952       adf.R=1.517
      9      H    -0.92654861    -2.12255977     1.86330221       adf.R=1.350
     10      O     2.05785508     0.11714146     1.03817688       adf.R=1.517
     11      C     1.64972001     2.39324213    -2.24434250       adf.R=1.700
     12      S     2.24459760     3.55382002    -3.19597014       adf.R=1.792
 
Total System Charge             0.00000
Bonding info available!
 
 *** GO1_GOStep5 ***

 SOLVATION
-------------------------------------------

  The Delley construction of COSMO surface surface is calculated

       Division Level for Surface Triangles (NDIV)                  3
       Final Division Level for Triangles (NFDIV)                   1
       Radius of the Solvent (RSOL)                           1.93000 angstr
  Dielectric Constant (EPSL)                                 78.39000

       COSMO equation is solved iteratively-               conjugate-gradient

       Maximun of Iterations for Charges (NCIX)                  1000
       Criterion for Charge convergence (CCNV)                1.0E-08

  COSMO charges included variationally in SCF

       COSMO included at every SCF cycle

  Geometry-dependent empirical factor                         0.00000

  C-Matrix calculated in cspmtx

  In cspmtx, C-Matrix calculated using fitted potential

-------------------------------------------



 -------------------------------------------
  COSMO surface
  Area             =          627.087
  Volume           =          959.449
  Number of Points =         1639
 -------------------------------------------



 ======================
 RI Hartree-Fock Scheme
 ======================
  
 Fit Set Quality     : GOOD
 Threshold Quality   : GOOD
 Integration Quality : GOOD
 Response Quality    : DEFAULT
 Is Range Separated  :  F
 
 RIHartreeFock Dependency: number of modified vectors:           6
 cosmo_calcen: 0.5 (esolb+esolc) (Hartrees) =   -0.034892

 Solvation energy (screening term,uncorrected) =    -21.895207 kcal/mol

 Solvation energy (dispersion and cavitation terms) =      1.172604 kcal/mol
 Solvation Energy Contributions (Hartrees)
          esola   esolb+esolc
     0.03489223   -0.06978446
 esol last cycle   -0.03489223
  
 Hartree-Fock exchange energy:   -537.424522940126     
 cosmo_calcen: 0.5 (esolb+esolc) (Hartrees) =   -0.034892

 Solvation energy (screening term,uncorrected) =    -21.895205 kcal/mol

 Solvation energy (dispersion and cavitation terms) =      1.172604 kcal/mol
 Solvation Energy Contributions (Hartrees)
          esola   esolb+esolc
     0.03489223   -0.06978445
 esol last cycle   -0.03489223

 Energy gradients wrt nuclear displacements
 ==========================================

     Atom      Cartesian (a.u./angstrom)
                 X         Y         Z
 ----------------------------------------
     1 Pa    0.001391  0.002022 -0.001601
     2 N     0.000478  0.001129 -0.000799
     3 H     0.000342  0.000609 -0.000651
     4 O    -0.001511  0.000589  0.000606
     5 H     0.000410  0.000661 -0.000710
     6 O    -0.000384 -0.001625 -0.000715
     7 H     0.000400  0.000715 -0.000611
     8 O    -0.001861 -0.002709  0.002796
     9 H     0.000185  0.000146 -0.000184
    10 O     0.001005 -0.000488  0.001265
    11 C    -0.002020 -0.004097  0.003167
    12 S     0.001565  0.003047 -0.002562
 ----------------------------------------
 Mulliken charges used for AMS results%charges...

 dE(predicted):    -0.14932E-03, dE(actual):    -0.22870E-03, Trust radius:    0.200000, all in a.u.
 
----------------------------------------------------------------------
Geometry Convergence after Step   5       (Hartree/Angstrom,Angstrom)
----------------------------------------------------------------------
current energy                               -3.44797793 Hartree
energy change                      -0.00022870     0.00001200    F
constrained gradient max            0.00406471     0.00010000    F
constrained gradient rms            0.00158841     0.00006667    F
gradient max                        0.00406700
gradient rms                        0.00158841
cart. step max                      0.02709138     0.00100000    F
cart. step rms                      0.00868966     0.00066667    F
 
 
--------
Geometry
--------
Formula: CH4NO4PaS
Atoms
  Index Symbol   x (angstrom)   y (angstrom)   z (angstrom)
      1     Pa     0.29410278    -0.07882557    -0.05266377       adf.R=2.200
      2      N     1.22376341     1.55537202    -1.55848070       adf.R=1.608
      3      H    -2.02833037     1.82846349     0.39946660       adf.R=1.350
      4      O    -1.24869689     1.28509989     0.24995904       adf.R=1.517
      5      H     2.85389024     0.13152295     1.57599845       adf.R=1.350
      6      O     0.20539843    -1.35536719    -1.69463257       adf.R=1.517
      7      H     0.10740694    -1.97927822    -2.42021204       adf.R=1.350
      8      O    -0.51935815    -1.48284855     1.25799721       adf.R=1.517
      9      H    -0.92336634    -2.11488957     1.85952597       adf.R=1.350
     10      O     2.05568546     0.12082100     1.03909126       adf.R=1.517
     11      C     1.65808542     2.40251440    -2.25412595       adf.R=1.700
     12      S     2.25247660     3.56083440    -3.20424259       adf.R=1.792
 
Total System Charge             0.00000
Bonding info available!
 
 *** GO1_GOStep6 ***

 SOLVATION
-------------------------------------------

  The Delley construction of COSMO surface surface is calculated

       Division Level for Surface Triangles (NDIV)                  3
       Final Division Level for Triangles (NFDIV)                   1
       Radius of the Solvent (RSOL)                           1.93000 angstr
  Dielectric Constant (EPSL)                                 78.39000

       COSMO equation is solved iteratively-               conjugate-gradient

       Maximun of Iterations for Charges (NCIX)                  1000
       Criterion for Charge convergence (CCNV)                1.0E-08

  COSMO charges included variationally in SCF

       COSMO included at every SCF cycle

  Geometry-dependent empirical factor                         0.00000

  C-Matrix calculated in cspmtx

  In cspmtx, C-Matrix calculated using fitted potential

-------------------------------------------



 -------------------------------------------
  COSMO surface
  Area             =          626.957
  Volume           =          959.087
  Number of Points =         1648
 -------------------------------------------



 ======================
 RI Hartree-Fock Scheme
 ======================
  
 Fit Set Quality     : GOOD
 Threshold Quality   : GOOD
 Integration Quality : GOOD
 Response Quality    : DEFAULT
 Is Range Separated  :  F
 
 RIHartreeFock Dependency: number of modified vectors:           6
 cosmo_calcen: 0.5 (esolb+esolc) (Hartrees) =   -0.035385

 Solvation energy (screening term,uncorrected) =    -22.204252 kcal/mol

 Solvation energy (dispersion and cavitation terms) =      1.172361 kcal/mol
 Solvation Energy Contributions (Hartrees)
          esola   esolb+esolc
     0.03538472   -0.07076945
 esol last cycle   -0.03538472
  
 Hartree-Fock exchange energy:   -537.429159707607     
 cosmo_calcen: 0.5 (esolb+esolc) (Hartrees) =   -0.035385

 Solvation energy (screening term,uncorrected) =    -22.204251 kcal/mol

 Solvation energy (dispersion and cavitation terms) =      1.172361 kcal/mol
 Solvation Energy Contributions (Hartrees)
          esola   esolb+esolc
     0.03538472   -0.07076945
 esol last cycle   -0.03538472

 Energy gradients wrt nuclear displacements
 ==========================================

     Atom      Cartesian (a.u./angstrom)
                 X         Y         Z
 ----------------------------------------
     1 Pa   -0.000185 -0.000322  0.000742
     2 N     0.001084  0.001974 -0.001688
     3 H     0.000914  0.000226 -0.000801
     4 O    -0.000612 -0.000554  0.000548
     5 H    -0.000127  0.000673 -0.001123
     6 O    -0.000463 -0.001000  0.000470
     7 H     0.000475  0.001203 -0.000131
     8 O    -0.001192 -0.001669  0.001812
     9 H     0.000396  0.000550 -0.000543
    10 O    -0.000172 -0.000806  0.000724
    11 C    -0.000051 -0.000124 -0.000060
    12 S    -0.000069 -0.000149  0.000049
 ----------------------------------------
 Mulliken charges used for AMS results%charges...

 dE(predicted):    -0.53484E-04, dE(actual):    -0.10298E-03, Trust radius:    0.200000, all in a.u.
 
----------------------------------------------------------------------
Geometry Convergence after Step   6       (Hartree/Angstrom,Angstrom)
----------------------------------------------------------------------
current energy                               -3.44808091 Hartree
energy change                      -0.00010298     0.00001200    F
constrained gradient max            0.00199365     0.00010000    F
constrained gradient rms            0.00084096     0.00006667    F
gradient max                        0.00199167
gradient rms                        0.00084097
cart. step max                      0.03613195     0.00100000    F
cart. step rms                      0.01177953     0.00066667    F
 
 
--------
Geometry
--------
Formula: CH4NO4PaS
Atoms
  Index Symbol   x (angstrom)   y (angstrom)   z (angstrom)
      1     Pa     0.29789777    -0.07068067    -0.05842676       adf.R=2.200
      2      N     1.23220702     1.56546830    -1.56978935       adf.R=1.608
      3      H    -2.04846220     1.79233154     0.41725316       adf.R=1.350
      4      O    -1.24605461     1.28772909     0.25266325       adf.R=1.517
      5      H     2.84243775     0.11050850     1.59113988       adf.R=1.350
      6      O     0.20413982    -1.35342000    -1.69325320       adf.R=1.517
      7      H     0.09080731    -1.98984988    -2.40567146       adf.R=1.350
      8      O    -0.51135620    -1.47233018     1.25043963       adf.R=1.517
      9      H    -0.91666661    -2.10345707     1.85223663       adf.R=1.350
     10      O     2.05346960     0.12666206     1.04074549       adf.R=1.517
     11      C     1.66848820     2.41234222    -2.26541857       adf.R=1.700
     12      S     2.26414967     3.56811514    -3.21423782       adf.R=1.792
 
Total System Charge             0.00000
Bonding info available!
 
 *** GO1_GOStep7 ***

 SOLVATION
-------------------------------------------

  The Delley construction of COSMO surface surface is calculated

       Division Level for Surface Triangles (NDIV)                  3
       Final Division Level for Triangles (NFDIV)                   1
       Radius of the Solvent (RSOL)                           1.93000 angstr
  Dielectric Constant (EPSL)                                 78.39000

       COSMO equation is solved iteratively-               conjugate-gradient

       Maximun of Iterations for Charges (NCIX)                  1000
       Criterion for Charge convergence (CCNV)                1.0E-08

  COSMO charges included variationally in SCF

       COSMO included at every SCF cycle

  Geometry-dependent empirical factor                         0.00000

  C-Matrix calculated in cspmtx

  In cspmtx, C-Matrix calculated using fitted potential

-------------------------------------------



 -------------------------------------------
  COSMO surface
  Area             =          629.410
  Volume           =          962.787
  Number of Points =         1660
 -------------------------------------------



 ======================
 RI Hartree-Fock Scheme
 ======================
  
 Fit Set Quality     : GOOD
 Threshold Quality   : GOOD
 Integration Quality : GOOD
 Response Quality    : DEFAULT
 Is Range Separated  :  F
 
 RIHartreeFock Dependency: number of modified vectors:           6
 cosmo_calcen: 0.5 (esolb+esolc) (Hartrees) =   -0.035774

 Solvation energy (screening term,uncorrected) =    -22.448521 kcal/mol

 Solvation energy (dispersion and cavitation terms) =      1.176948 kcal/mol
 Solvation Energy Contributions (Hartrees)
          esola   esolb+esolc
     0.03577399   -0.07154798
 esol last cycle   -0.03577399
  
 Hartree-Fock exchange energy:   -537.432617084694     
 cosmo_calcen: 0.5 (esolb+esolc) (Hartrees) =   -0.035774

 Solvation energy (screening term,uncorrected) =    -22.448514 kcal/mol

 Solvation energy (dispersion and cavitation terms) =      1.176948 kcal/mol
 Solvation Energy Contributions (Hartrees)
          esola   esolb+esolc
     0.03577398   -0.07154796
 esol last cycle   -0.03577398

 Energy gradients wrt nuclear displacements
 ==========================================

     Atom      Cartesian (a.u./angstrom)
                 X         Y         Z
 ----------------------------------------
     1 Pa   -0.001404 -0.001870  0.002461
     2 N     0.001049  0.001709 -0.001633
     3 H     0.000946  0.000280 -0.000886
     4 O     0.000558 -0.001969  0.000551
     5 H    -0.000065  0.000714 -0.001143
     6 O    -0.000580 -0.000263  0.002084
     7 H     0.000498  0.001245 -0.000223
     8 O    -0.000054  0.000055  0.000135
     9 H     0.000313  0.000505 -0.000471
    10 O    -0.001755 -0.001297  0.000086
    11 C     0.001757  0.003314 -0.002843
    12 S    -0.001264 -0.002424  0.001881
 ----------------------------------------
 Mulliken charges used for AMS results%charges...

 dE(predicted):    -0.45454E-04, dE(actual):    -0.10625E-03, Trust radius:    0.200000, all in a.u.
 
----------------------------------------------------------------------
Geometry Convergence after Step   7       (Hartree/Angstrom,Angstrom)
----------------------------------------------------------------------
current energy                               -3.44818716 Hartree
energy change                      -0.00010625     0.00001200    F
constrained gradient max            0.00335161     0.00010000    F
constrained gradient rms            0.00140832     0.00006667    F
gradient max                        0.00334703
gradient rms                        0.00140832
cart. step max                      0.07839529     0.00100000    F
cart. step rms                      0.02400830     0.00066667    F
 
 
--------
Geometry
--------
Formula: CH4NO4PaS
Atoms
  Index Symbol   x (angstrom)   y (angstrom)   z (angstrom)
      1     Pa     0.30524032    -0.05237925    -0.07248497       adf.R=2.200
      2      N     1.24598688     1.58353588    -1.59116260       adf.R=1.608
      3      H    -2.08600069     1.71393625     0.45667028       adf.R=1.350
      4      O    -1.24207994     1.29620925     0.25793998       adf.R=1.517
      5      H     2.81707461     0.07111599     1.61948151       adf.R=1.350
      6      O     0.20139925    -1.34937503    -1.69380760       adf.R=1.517
      7      H     0.05746115    -2.01173461    -2.37670519       adf.R=1.350
      8      O    -0.49568996    -1.44997552     1.23464442       adf.R=1.517
      9      H    -0.90244899    -2.07939881     1.83778355       adf.R=1.350
     10      O     2.05020925     0.14220713     1.04240635       adf.R=1.517
     11      C     1.68837754     2.42889833    -2.28561771       adf.R=1.700
     12      S     2.29152811     3.58037942    -3.23146712       adf.R=1.792
 
Total System Charge             0.00000
Bonding info available!
 
 *** GO1_GOStep8 ***

 SOLVATION
-------------------------------------------

  The Delley construction of COSMO surface surface is calculated

       Division Level for Surface Triangles (NDIV)                  3
       Final Division Level for Triangles (NFDIV)                   1
       Radius of the Solvent (RSOL)                           1.93000 angstr
  Dielectric Constant (EPSL)                                 78.39000

       COSMO equation is solved iteratively-               conjugate-gradient

       Maximun of Iterations for Charges (NCIX)                  1000
       Criterion for Charge convergence (CCNV)                1.0E-08

  COSMO charges included variationally in SCF

       COSMO included at every SCF cycle

  Geometry-dependent empirical factor                         0.00000

  C-Matrix calculated in cspmtx

  In cspmtx, C-Matrix calculated using fitted potential

-------------------------------------------



 -------------------------------------------
  COSMO surface
  Area             =          629.154
  Volume           =          962.785
  Number of Points =         1647
 -------------------------------------------



 ======================
 RI Hartree-Fock Scheme
 ======================
  
 Fit Set Quality     : GOOD
 Threshold Quality   : GOOD
 Integration Quality : GOOD
 Response Quality    : DEFAULT
 Is Range Separated  :  F
 
 RIHartreeFock Dependency: number of modified vectors:           6
 cosmo_calcen: 0.5 (esolb+esolc) (Hartrees) =   -0.036543

 Solvation energy (screening term,uncorrected) =    -22.931160 kcal/mol

 Solvation energy (dispersion and cavitation terms) =      1.176469 kcal/mol
 Solvation Energy Contributions (Hartrees)
          esola   esolb+esolc
     0.03654313   -0.07308625
 esol last cycle   -0.03654313
  
 Hartree-Fock exchange energy:   -537.437025781633     
 cosmo_calcen: 0.5 (esolb+esolc) (Hartrees) =   -0.036543

 Solvation energy (screening term,uncorrected) =    -22.931161 kcal/mol

 Solvation energy (dispersion and cavitation terms) =      1.176469 kcal/mol
 Solvation Energy Contributions (Hartrees)
          esola   esolb+esolc
     0.03654313   -0.07308626
 esol last cycle   -0.03654313

 Energy gradients wrt nuclear displacements
 ==========================================

     Atom      Cartesian (a.u./angstrom)
                 X         Y         Z
 ----------------------------------------
     1 Pa   -0.003210 -0.003251  0.004393
     2 N     0.001197  0.001576 -0.001728
     3 H     0.000753  0.000445 -0.000947
     4 O     0.002298 -0.004186  0.000605
     5 H     0.000255  0.000756 -0.001064
     6 O    -0.000779  0.000501  0.004284
     7 H     0.000492  0.001188 -0.000546
     8 O     0.001921  0.002767 -0.002551
     9 H     0.000051  0.000295 -0.000190
    10 O    -0.003943 -0.001919 -0.000501
    11 C     0.003351  0.006392 -0.005343
    12 S    -0.002385 -0.004563  0.003589
 ----------------------------------------
 Mulliken charges used for AMS results%charges...

 dE(predicted):    -0.81824E-04, dE(actual):    -0.19431E-03, Trust radius:    0.200000, all in a.u.
 
----------------------------------------------------------------------
Geometry Convergence after Step   8       (Hartree/Angstrom,Angstrom)
----------------------------------------------------------------------
current energy                               -3.44838148 Hartree
energy change                      -0.00019431     0.00001200    F
constrained gradient max            0.00643273     0.00010000    F
constrained gradient rms            0.00264734     0.00006667    F
gradient max                        0.00642503
gradient rms                        0.00264735
cart. step max                      0.11212876     0.00100000    F
cart. step rms                      0.03151536     0.00066667    F
 
 
--------
Geometry
--------
Formula: CH4NO4PaS
Atoms
  Index Symbol   x (angstrom)   y (angstrom)   z (angstrom)
      1     Pa     0.31462891    -0.02759368    -0.09284158       adf.R=2.200
      2      N     1.25989528     1.60443480    -1.61715591       adf.R=1.608
      3      H    -2.12051156     1.60180749     0.51090211       adf.R=1.350
      4      O    -1.23574066     1.31335064     0.26323067       adf.R=1.517
      5      H     2.77827526     0.02201685     1.65294573       adf.R=1.350
      6      O     0.19899474    -1.34375513    -1.69848339       adf.R=1.517
      7      H     0.01714073    -2.04076451    -2.33687032       adf.R=1.350
      8      O    -0.47935516    -1.41925949     1.21373055       adf.R=1.517
      9      H    -0.88762316    -2.04596350     1.81944503       adf.R=1.350
     10      O     2.04786816     0.16610752     1.04246767       adf.R=1.517
     11      C     1.71138039     2.44764262    -2.30894007       adf.R=1.700
     12      S     2.32610461     3.59539544    -3.25074961       adf.R=1.792
 
Total System Charge             0.00000
Bonding info available!
 
 *** GO1_GOStep9 ***

 SOLVATION
-------------------------------------------

  The Delley construction of COSMO surface surface is calculated

       Division Level for Surface Triangles (NDIV)                  3
       Final Division Level for Triangles (NFDIV)                   1
       Radius of the Solvent (RSOL)                           1.93000 angstr
  Dielectric Constant (EPSL)                                 78.39000

       COSMO equation is solved iteratively-               conjugate-gradient

       Maximun of Iterations for Charges (NCIX)                  1000
       Criterion for Charge convergence (CCNV)                1.0E-08

  COSMO charges included variationally in SCF

       COSMO included at every SCF cycle

  Geometry-dependent empirical factor                         0.00000

  C-Matrix calculated in cspmtx

  In cspmtx, C-Matrix calculated using fitted potential

-------------------------------------------



 -------------------------------------------
  COSMO surface
  Area             =          626.702
  Volume           =          960.889
  Number of Points =         1637
 -------------------------------------------



 ======================
 RI Hartree-Fock Scheme
 ======================
  
 Fit Set Quality     : GOOD
 Threshold Quality   : GOOD
 Integration Quality : GOOD
 Response Quality    : DEFAULT
 Is Range Separated  :  F
 
 RIHartreeFock Dependency: number of modified vectors:           6
 cosmo_calcen: 0.5 (esolb+esolc) (Hartrees) =   -0.037688

 Solvation energy (screening term,uncorrected) =    -23.649868 kcal/mol

 Solvation energy (dispersion and cavitation terms) =      1.171885 kcal/mol
 Solvation Energy Contributions (Hartrees)
          esola   esolb+esolc
     0.03768846   -0.07537692
 esol last cycle   -0.03768846
  
 Hartree-Fock exchange energy:   -537.440078931493     
 cosmo_calcen: 0.5 (esolb+esolc) (Hartrees) =   -0.037688

 Solvation energy (screening term,uncorrected) =    -23.649872 kcal/mol

 Solvation energy (dispersion and cavitation terms) =      1.171885 kcal/mol
 Solvation Energy Contributions (Hartrees)
          esola   esolb+esolc
     0.03768847   -0.07537693
 esol last cycle   -0.03768847

 Energy gradients wrt nuclear displacements
 ==========================================

     Atom      Cartesian (a.u./angstrom)
                 X         Y         Z
 ----------------------------------------
     1 Pa   -0.005055 -0.003453  0.005963
     2 N     0.001203  0.001362 -0.001731
     3 H     0.000217  0.000418 -0.000829
     4 O     0.004314 -0.005902  0.000430
     5 H     0.000744  0.000679 -0.000813
     6 O    -0.001066  0.000841  0.005940
     7 H     0.000467  0.000937 -0.001087
     8 O     0.003872  0.005285 -0.005173
     9 H    -0.000346 -0.000023  0.000264
    10 O    -0.005555 -0.002386 -0.000880
    11 C     0.003930  0.007288 -0.006053
    12 S    -0.002723 -0.005046  0.003969
 ----------------------------------------
 Mulliken charges used for AMS results%charges...

 dE(predicted):    -0.12527E-03, dE(actual):    -0.26424E-03, Trust radius:    0.400000, all in a.u.
 
----------------------------------------------------------------------
Geometry Convergence after Step   9       (Hartree/Angstrom,Angstrom)
----------------------------------------------------------------------
current energy                               -3.44864571 Hartree
energy change                      -0.00026424     0.00001200    F
constrained gradient max            0.00733254     0.00010000    F
constrained gradient rms            0.00347991     0.00006667    F
gradient max                        0.00732012
gradient rms                        0.00347993
cart. step max                      0.19713359     0.00100000    F
cart. step rms                      0.05136236     0.00066667    F
 
 
--------
Geometry
--------
Formula: CH4NO4PaS
Atoms
  Index Symbol   x (angstrom)   y (angstrom)   z (angstrom)
      1     Pa     0.32710236     0.01283587    -0.12877914       adf.R=2.200
      2      N     1.27307097     1.63365529    -1.65575179       adf.R=1.608
      3      H    -2.13074662     1.40467390     0.60039910       adf.R=1.350
      4      O    -1.22619323     1.34994049     0.27104114       adf.R=1.517
      5      H     2.69789139    -0.04873378     1.69727614       adf.R=1.350
      6      O     0.19596883    -1.33346407    -1.71315262       adf.R=1.517
      7      H    -0.04015039    -2.08594460    -2.26589524       adf.R=1.350
      8      O    -0.46129474    -1.36928559     1.17905432       adf.R=1.517
      9      H    -0.87006705    -1.99149358     1.79015171       adf.R=1.350
     10      O     2.04420670     0.21228879     1.03936433       adf.R=1.517
     11      C     1.74162375     2.47300188    -2.34118411       adf.R=1.700
     12      S     2.37964556     3.61594443    -3.27484295       adf.R=1.792
 
Total System Charge             0.00000
Bonding info available!
 
 *** GO1_GOStep10 ***

 SOLVATION
-------------------------------------------

  The Delley construction of COSMO surface surface is calculated

       Division Level for Surface Triangles (NDIV)                  3
       Final Division Level for Triangles (NFDIV)                   1
       Radius of the Solvent (RSOL)                           1.93000 angstr
  Dielectric Constant (EPSL)                                 78.39000

       COSMO equation is solved iteratively-               conjugate-gradient

       Maximun of Iterations for Charges (NCIX)                  1000
       Criterion for Charge convergence (CCNV)                1.0E-08

  COSMO charges included variationally in SCF

       COSMO included at every SCF cycle

  Geometry-dependent empirical factor                         0.00000

  C-Matrix calculated in cspmtx

  In cspmtx, C-Matrix calculated using fitted potential

-------------------------------------------



 -------------------------------------------
  COSMO surface
  Area             =          622.577
  Volume           =          959.109
  Number of Points =         1611
 -------------------------------------------



 ======================
 RI Hartree-Fock Scheme
 ======================
  
 Fit Set Quality     : GOOD
 Threshold Quality   : GOOD
 Integration Quality : GOOD
 Response Quality    : DEFAULT
 Is Range Separated  :  F
 
 RIHartreeFock Dependency: number of modified vectors:           6
 cosmo_calcen: 0.5 (esolb+esolc) (Hartrees) =   -0.039820

 Solvation energy (screening term,uncorrected) =    -24.987344 kcal/mol

 Solvation energy (dispersion and cavitation terms) =      1.164170 kcal/mol
 Solvation Energy Contributions (Hartrees)
          esola   esolb+esolc
     0.03981986   -0.07963973
 esol last cycle   -0.03981986
  
 Hartree-Fock exchange energy:   -537.442132671197     
 cosmo_calcen: 0.5 (esolb+esolc) (Hartrees) =   -0.039820

 Solvation energy (screening term,uncorrected) =    -24.987354 kcal/mol

 Solvation energy (dispersion and cavitation terms) =      1.164170 kcal/mol
 Solvation Energy Contributions (Hartrees)
          esola   esolb+esolc
     0.03981988   -0.07963976
 esol last cycle   -0.03981988

 Energy gradients wrt nuclear displacements
 ==========================================

     Atom      Cartesian (a.u./angstrom)
                 X         Y         Z
 ----------------------------------------
     1 Pa   -0.008029 -0.001425  0.007259
     2 N     0.001205  0.001068 -0.001669
     3 H    -0.000073 -0.001016 -0.000482
     4 O     0.007087 -0.006285 -0.000426
     5 H     0.001217  0.000221 -0.000216
     6 O    -0.001375  0.000549  0.006748
     7 H     0.000369  0.000352 -0.001740
     8 O     0.005968  0.007475 -0.007803
     9 H    -0.000904 -0.000465  0.000969
    10 O    -0.006414 -0.002192 -0.001061
    11 C     0.002765  0.004948 -0.004112
    12 S    -0.001815 -0.003230  0.002533
 ----------------------------------------
 Mulliken charges used for AMS results%charges...
 Rebuilding optimization coordinates
Bad geometry: could not add a dihedral for atom    9
Bad geometry: could not add a dihedral for atom   12

 dE(predicted):    -0.22908E-03, dE(actual):    -0.31223E-03, Trust radius:    0.800000, all in a.u.
 
----------------------------------------------------------------------
Geometry Convergence after Step  10       (Hartree/Angstrom,Angstrom)
----------------------------------------------------------------------
current energy                               -3.44895794 Hartree
energy change                      -0.00031223     0.00001200    F
constrained gradient max            0.00803080     0.00010000    F
constrained gradient rms            0.00386903     0.00006667    F
gradient max                        0.00803143
gradient rms                        0.00386907
cart. step max                      0.01895806     0.00100000    F
cart. step rms                      0.00666161     0.00066667    F
 
 
--------
Geometry
--------
Formula: CH4NO4PaS
Atoms
  Index Symbol   x (angstrom)   y (angstrom)   z (angstrom)
      1     Pa     0.32942698     0.01115455    -0.13149573       adf.R=2.200
      2      N     1.26350692     1.62464873    -1.64790750       adf.R=1.608
      3      H    -2.12786739     1.42363196     0.60091869       adf.R=1.350
      4      O    -1.22463980     1.35783197     0.26848479       adf.R=1.517
      5      H     2.70284002    -0.04537266     1.69532915       adf.R=1.350
      6      O     0.20451166    -1.33367318    -1.72262130       adf.R=1.517
      7      H    -0.03132660    -2.08918778    -2.27148745       adf.R=1.350
      8      O    -0.46757953    -1.37159976     1.17882993       adf.R=1.517
      9      H    -0.87402997    -1.99426146     1.79094807       adf.R=1.350
     10      O     2.05167572     0.21749270     1.03553820       adf.R=1.517
     11      C     1.73268690     2.46413004    -2.33251157       adf.R=1.700
     12      S     2.37185262     3.60862393    -3.26634439       adf.R=1.792
 
Total System Charge             0.00000
Bonding info available!
 
 *** GO1_GOStep11 ***

 SOLVATION
-------------------------------------------

  The Delley construction of COSMO surface surface is calculated

       Division Level for Surface Triangles (NDIV)                  3
       Final Division Level for Triangles (NFDIV)                   1
       Radius of the Solvent (RSOL)                           1.93000 angstr
  Dielectric Constant (EPSL)                                 78.39000

       COSMO equation is solved iteratively-               conjugate-gradient

       Maximun of Iterations for Charges (NCIX)                  1000
       Criterion for Charge convergence (CCNV)                1.0E-08

  COSMO charges included variationally in SCF

       COSMO included at every SCF cycle

  Geometry-dependent empirical factor                         0.00000

  C-Matrix calculated in cspmtx

  In cspmtx, C-Matrix calculated using fitted potential

-------------------------------------------



 -------------------------------------------
  COSMO surface
  Area             =          622.455
  Volume           =          959.087
  Number of Points =         1612
 -------------------------------------------



 ======================
 RI Hartree-Fock Scheme
 ======================
  
 Fit Set Quality     : GOOD
 Threshold Quality   : GOOD
 Integration Quality : GOOD
 Response Quality    : DEFAULT
 Is Range Separated  :  F
 
 RIHartreeFock Dependency: number of modified vectors:           6
 cosmo_calcen: 0.5 (esolb+esolc) (Hartrees) =   -0.039303

 Solvation energy (screening term,uncorrected) =    -24.662700 kcal/mol

 Solvation energy (dispersion and cavitation terms) =      1.163942 kcal/mol
 Solvation Energy Contributions (Hartrees)
          esola   esolb+esolc
     0.03930251   -0.07860502
 esol last cycle   -0.03930251
  
 Hartree-Fock exchange energy:   -537.435501093682     
 cosmo_calcen: 0.5 (esolb+esolc) (Hartrees) =   -0.039303

 Solvation energy (screening term,uncorrected) =    -24.662701 kcal/mol

 Solvation energy (dispersion and cavitation terms) =      1.163942 kcal/mol
 Solvation Energy Contributions (Hartrees)
          esola   esolb+esolc
     0.03930251   -0.07860502
 esol last cycle   -0.03930251

 Energy gradients wrt nuclear displacements
 ==========================================

     Atom      Cartesian (a.u./angstrom)
                 X         Y         Z
 ----------------------------------------
     1 Pa   -0.003849  0.000963  0.002744
     2 N     0.000480  0.000094 -0.000586
     3 H    -0.001261 -0.000523 -0.000113
     4 O     0.004397 -0.003524  0.000154
     5 H     0.001360  0.000216 -0.000053
     6 O    -0.001431 -0.000985  0.004279
     7 H     0.000329  0.000177 -0.001863
     8 O     0.003992  0.004982 -0.005224
     9 H    -0.000828 -0.000488  0.000957
    10 O    -0.003566 -0.001558  0.000367
    11 C     0.000685  0.001172 -0.000976
    12 S    -0.000309 -0.000526  0.000313
 ----------------------------------------
 Mulliken charges used for AMS results%charges...

 dE(predicted):    -0.16601E-03, dE(actual):    -0.24936E-03, Trust radius:    0.800000, all in a.u.
 
----------------------------------------------------------------------
Geometry Convergence after Step  11       (Hartree/Angstrom,Angstrom)
----------------------------------------------------------------------
current energy                               -3.44920731 Hartree
energy change                      -0.00024936     0.00001200    F
constrained gradient max            0.00525676     0.00010000    F
constrained gradient rms            0.00219059     0.00006667    F
gradient max                        0.00525712
gradient rms                        0.00219059
cart. step max                      0.01638987     0.00100000    F
cart. step rms                      0.00576929     0.00066667    F
 
 
--------
Geometry
--------
Formula: CH4NO4PaS
Atoms
  Index Symbol   x (angstrom)   y (angstrom)   z (angstrom)
      1     Pa     0.33065827     0.01252844    -0.13468800       adf.R=2.200
      2      N     1.26066680     1.62464998    -1.64979879       adf.R=1.608
      3      H    -2.12044790     1.40724210     0.61133288       adf.R=1.350
      4      O    -1.22020118     1.36852664     0.26695331       adf.R=1.517
      5      H     2.69060670    -0.05365836     1.69867738       adf.R=1.350
      6      O     0.21055548    -1.32987560    -1.73013362       adf.R=1.517
      7      H    -0.03288089    -2.09441986    -2.26287074       adf.R=1.350
      8      O    -0.47076882    -1.36961498     1.17653320       adf.R=1.517
      9      H    -0.87595486    -1.99202075     1.78950189       adf.R=1.350
     10      O     2.05427403     0.22803805     1.03224796       adf.R=1.517
     11      C     1.73139903     2.46377624    -2.33342005       adf.R=1.700
     12      S     2.37315089     3.60824715    -3.26665451       adf.R=1.792
 
Total System Charge             0.00000
Bonding info available!
 
 *** GO1_GOStep12 ***

 SOLVATION
-------------------------------------------

  The Delley construction of COSMO surface surface is calculated

       Division Level for Surface Triangles (NDIV)                  3
       Final Division Level for Triangles (NFDIV)                   1
       Radius of the Solvent (RSOL)                           1.93000 angstr
  Dielectric Constant (EPSL)                                 78.39000

       COSMO equation is solved iteratively-               conjugate-gradient

       Maximun of Iterations for Charges (NCIX)                  1000
       Criterion for Charge convergence (CCNV)                1.0E-08

  COSMO charges included variationally in SCF

       COSMO included at every SCF cycle

  Geometry-dependent empirical factor                         0.00000

  C-Matrix calculated in cspmtx

  In cspmtx, C-Matrix calculated using fitted potential

-------------------------------------------



 -------------------------------------------
  COSMO surface
  Area             =          623.314
  Volume           =          961.541
  Number of Points =         1613
 -------------------------------------------



 ======================
 RI Hartree-Fock Scheme
 ======================
  
 Fit Set Quality     : GOOD
 Threshold Quality   : GOOD
 Integration Quality : GOOD
 Response Quality    : DEFAULT
 Is Range Separated  :  F
 
 RIHartreeFock Dependency: number of modified vectors:           6
 cosmo_calcen: 0.5 (esolb+esolc) (Hartrees) =   -0.039796

 Solvation energy (screening term,uncorrected) =    -24.972515 kcal/mol

 Solvation energy (dispersion and cavitation terms) =      1.165548 kcal/mol
 Solvation Energy Contributions (Hartrees)
          esola   esolb+esolc
     0.03979623   -0.07959246
 esol last cycle   -0.03979623
  
 Hartree-Fock exchange energy:   -537.433650135855     
 cosmo_calcen: 0.5 (esolb+esolc) (Hartrees) =   -0.039796

 Solvation energy (screening term,uncorrected) =    -24.972516 kcal/mol

 Solvation energy (dispersion and cavitation terms) =      1.165548 kcal/mol
 Solvation Energy Contributions (Hartrees)
          esola   esolb+esolc
     0.03979623   -0.07959247
 esol last cycle   -0.03979623

 Energy gradients wrt nuclear displacements
 ==========================================

     Atom      Cartesian (a.u./angstrom)
                 X         Y         Z
 ----------------------------------------
     1 Pa   -0.002793  0.001061  0.002005
     2 N     0.000605  0.000381 -0.000838
     3 H    -0.000833 -0.000817 -0.000185
     4 O     0.003125 -0.001999  0.000283
     5 H     0.001090  0.000173 -0.000150
     6 O    -0.001368 -0.001350  0.003140
     7 H     0.000387  0.000319 -0.001694
     8 O     0.002991  0.003521 -0.003842
     9 H    -0.000681 -0.000274  0.000772
    10 O    -0.002524 -0.001054  0.000638
    11 C    -0.000193 -0.000304  0.000273
    12 S     0.000194  0.000343 -0.000400
 ----------------------------------------
 Mulliken charges used for AMS results%charges...

 dE(predicted):    -0.65784E-04, dE(actual):    -0.11487E-03, Trust radius:    0.800000, all in a.u.
 
----------------------------------------------------------------------
Geometry Convergence after Step  12       (Hartree/Angstrom,Angstrom)
----------------------------------------------------------------------
current energy                               -3.44932217 Hartree
energy change                      -0.00011487     0.00001200    F
constrained gradient max            0.00387099     0.00010000    F
constrained gradient rms            0.00160680     0.00006667    F
gradient max                        0.00387132
gradient rms                        0.00160680
cart. step max                      0.02386275     0.00100000    F
cart. step rms                      0.01188338     0.00066667    F
 
 
--------
Geometry
--------
Formula: CH4NO4PaS
Atoms
  Index Symbol   x (angstrom)   y (angstrom)   z (angstrom)
      1     Pa     0.33138826     0.00666405    -0.13828462       adf.R=2.200
      2      N     1.24733602     1.61793901    -1.64590892       adf.R=1.608
      3      H    -2.10038174     1.41886388     0.62394470       adf.R=1.350
      4      O    -1.20839701     1.39238939     0.25838511       adf.R=1.517
      5      H     2.66985340    -0.06483465     1.69944901       adf.R=1.350
      6      O     0.23229484    -1.32208617    -1.75037034       adf.R=1.517
      7      H    -0.02287298    -2.10598043    -2.24807006       adf.R=1.350
      8      O    -0.48323993    -1.37696306     1.17533184       adf.R=1.517
      9      H    -0.88083411    -2.00150803     1.79009517       adf.R=1.350
     10      O     2.06301337     0.24857316     1.01996092       adf.R=1.517
     11      C     1.71970675     2.45759993    -2.32765203       adf.R=1.700
     12      S     2.36319066     3.60276196    -3.25919987       adf.R=1.792
 
Total System Charge             0.00000
Bonding info available!
 
 *** GO1_GOStep13 ***

 SOLVATION
-------------------------------------------

  The Delley construction of COSMO surface surface is calculated

       Division Level for Surface Triangles (NDIV)                  3
       Final Division Level for Triangles (NFDIV)                   1
       Radius of the Solvent (RSOL)                           1.93000 angstr
  Dielectric Constant (EPSL)                                 78.39000

       COSMO equation is solved iteratively-               conjugate-gradient

       Maximun of Iterations for Charges (NCIX)                  1000
       Criterion for Charge convergence (CCNV)                1.0E-08

  COSMO charges included variationally in SCF

       COSMO included at every SCF cycle

  Geometry-dependent empirical factor                         0.00000

  C-Matrix calculated in cspmtx

  In cspmtx, C-Matrix calculated using fitted potential

-------------------------------------------



 -------------------------------------------
  COSMO surface
  Area             =          626.507
  Volume           =          968.020
  Number of Points =         1615
 -------------------------------------------



 ======================
 RI Hartree-Fock Scheme
 ======================
  
 Fit Set Quality     : GOOD
 Threshold Quality   : GOOD
 Integration Quality : GOOD
 Response Quality    : DEFAULT
 Is Range Separated  :  F
 
 RIHartreeFock Dependency: number of modified vectors:           6
 cosmo_calcen: 0.5 (esolb+esolc) (Hartrees) =   -0.040615

 Solvation energy (screening term,uncorrected) =    -25.486422 kcal/mol

 Solvation energy (dispersion and cavitation terms) =      1.171520 kcal/mol
 Solvation Energy Contributions (Hartrees)
          esola   esolb+esolc
     0.04061519   -0.08123039
 esol last cycle   -0.04061519
  
 Hartree-Fock exchange energy:   -537.427985308793     
 cosmo_calcen: 0.5 (esolb+esolc) (Hartrees) =   -0.040615

 Solvation energy (screening term,uncorrected) =    -25.486421 kcal/mol

 Solvation energy (dispersion and cavitation terms) =      1.171520 kcal/mol
 Solvation Energy Contributions (Hartrees)
          esola   esolb+esolc
     0.04061519   -0.08123039
 esol last cycle   -0.04061519

 Energy gradients wrt nuclear displacements
 ==========================================

     Atom      Cartesian (a.u./angstrom)
                 X         Y         Z
 ----------------------------------------
     1 Pa    0.001654  0.000002 -0.001312
     2 N     0.000101  0.000037 -0.000367
     3 H    -0.000110 -0.000802 -0.000361
     4 O    -0.001156  0.002449  0.000728
     5 H     0.000333  0.000177 -0.000486
     6 O    -0.001053 -0.001721  0.000264
     7 H     0.000505  0.000786 -0.001079
     8 O    -0.000481 -0.001196  0.000866
     9 H    -0.000102  0.000462  0.000041
    10 O     0.000647  0.000364  0.001228
    11 C    -0.001077 -0.001871  0.001689
    12 S     0.000740  0.001314 -0.001211
 ----------------------------------------
 Mulliken charges used for AMS results%charges...

 dE(predicted):    -0.16364E-03, dE(actual):    -0.14885E-03, Trust radius:    0.800000, all in a.u.
 
----------------------------------------------------------------------
Geometry Convergence after Step  13       (Hartree/Angstrom,Angstrom)
----------------------------------------------------------------------
current energy                               -3.44947102 Hartree
energy change                      -0.00014885     0.00001200    F
constrained gradient max            0.00243754     0.00010000    F
constrained gradient rms            0.00099643     0.00006667    F
gradient max                        0.00243737
gradient rms                        0.00099643
cart. step max                      0.02006649     0.00100000    F
cart. step rms                      0.00686827     0.00066667    F
 
 
--------
Geometry
--------
Formula: CH4NO4PaS
Atoms
  Index Symbol   x (angstrom)   y (angstrom)   z (angstrom)
      1     Pa     0.33146806     0.00999299    -0.14369561       adf.R=2.200
      2      N     1.24585277     1.62141290    -1.65040477       adf.R=1.608
      3      H    -2.09197210     1.41025678     0.63890822       adf.R=1.350
      4      O    -1.20587336     1.39934825     0.25843254       adf.R=1.517
      5      H     2.64978691    -0.07541705     1.70504211       adf.R=1.350
      6      O     0.23724591    -1.31987796    -1.75539311       adf.R=1.517
      7      H    -0.02356410    -2.11569198    -2.23092293       adf.R=1.350
      8      O    -0.48300106    -1.37509676     1.16844620       adf.R=1.517
      9      H    -0.87637033    -2.00187886     1.78362685       adf.R=1.350
     10      O     2.06161517     0.25529260     1.01726506       adf.R=1.517
     11      C     1.71999754     2.46070401    -2.33168825       adf.R=1.700
     12      S     2.36587211     3.60437412    -3.26193543       adf.R=1.792
 
Total System Charge             0.00000
Bonding info available!
 
 *** GO1_GOStep14 ***

 SOLVATION
-------------------------------------------

  The Delley construction of COSMO surface surface is calculated

       Division Level for Surface Triangles (NDIV)                  3
       Final Division Level for Triangles (NFDIV)                   1
       Radius of the Solvent (RSOL)                           1.93000 angstr
  Dielectric Constant (EPSL)                                 78.39000

       COSMO equation is solved iteratively-               conjugate-gradient

       Maximun of Iterations for Charges (NCIX)                  1000
       Criterion for Charge convergence (CCNV)                1.0E-08

  COSMO charges included variationally in SCF

       COSMO included at every SCF cycle

  Geometry-dependent empirical factor                         0.00000

  C-Matrix calculated in cspmtx

  In cspmtx, C-Matrix calculated using fitted potential

-------------------------------------------



 -------------------------------------------
  COSMO surface
  Area             =          625.793
  Volume           =          967.995
  Number of Points =         1619
 -------------------------------------------



 ======================
 RI Hartree-Fock Scheme
 ======================
  
 Fit Set Quality     : GOOD
 Threshold Quality   : GOOD
 Integration Quality : GOOD
 Response Quality    : DEFAULT
 Is Range Separated  :  F
 
 RIHartreeFock Dependency: number of modified vectors:           6
 cosmo_calcen: 0.5 (esolb+esolc) (Hartrees) =   -0.040985

 Solvation energy (screening term,uncorrected) =    -25.718714 kcal/mol

 Solvation energy (dispersion and cavitation terms) =      1.170185 kcal/mol
 Solvation Energy Contributions (Hartrees)
          esola   esolb+esolc
     0.04098538   -0.08197075
 esol last cycle   -0.04098538
  
 Hartree-Fock exchange energy:   -537.428659677744     
 cosmo_calcen: 0.5 (esolb+esolc) (Hartrees) =   -0.040985

 Solvation energy (screening term,uncorrected) =    -25.718744 kcal/mol

 Solvation energy (dispersion and cavitation terms) =      1.170185 kcal/mol
 Solvation Energy Contributions (Hartrees)
          esola   esolb+esolc
     0.04098542   -0.08197085
 esol last cycle   -0.04098542

 Energy gradients wrt nuclear displacements
 ==========================================

     Atom      Cartesian (a.u./angstrom)
                 X         Y         Z
 ----------------------------------------
     1 Pa    0.001986 -0.000586 -0.001399
     2 N     0.000020 -0.000124 -0.000241
     3 H     0.000076 -0.000976 -0.000343
     4 O    -0.001247  0.002812  0.000623
     5 H     0.000160  0.000104 -0.000483
     6 O    -0.000945 -0.001244  0.000489
     7 H     0.000469  0.000801 -0.000977
     8 O    -0.000627 -0.001445  0.001052
     9 H    -0.000069  0.000505  0.000014
    10 O     0.000480  0.000558  0.000880
    11 C    -0.000730 -0.001108  0.001086
    12 S     0.000428  0.000704 -0.000701
 ----------------------------------------
 Mulliken charges used for AMS results%charges...

 dE(predicted):    -0.20414E-04, dE(actual):    -0.33199E-04, Trust radius:    0.800000, all in a.u.
 
----------------------------------------------------------------------
Geometry Convergence after Step  14       (Hartree/Angstrom,Angstrom)
----------------------------------------------------------------------
current energy                               -3.44950422 Hartree
energy change                      -0.00003320     0.00001200    F
constrained gradient max            0.00280150     0.00010000    F
constrained gradient rms            0.00093204     0.00006667    F
gradient max                        0.00280134
gradient rms                        0.00093204
cart. step max                      0.07186676     0.00100000    F
cart. step rms                      0.02442162     0.00066667    F
 
 
--------
Geometry
--------
Formula: CH4NO4PaS
Atoms
  Index Symbol   x (angstrom)   y (angstrom)   z (angstrom)
      1     Pa     0.32840821     0.01859592    -0.16213619       adf.R=2.200
      2      N     1.23783120     1.63268251    -1.66291272       adf.R=1.608
      3      H    -2.06332271     1.43396024     0.68921655       adf.R=1.350
      4      O    -1.19959471     1.41672985     0.26056390       adf.R=1.517
      5      H     2.57792015    -0.10859166     1.72450690       adf.R=1.350
      6      O     0.25819658    -1.31521435    -1.77195514       adf.R=1.517
      7      H    -0.01028596    -2.15288696    -2.16513436       adf.R=1.350
      8      O    -0.48174465    -1.37825797     1.14023101       adf.R=1.517
      9      H    -0.85279466    -2.01909647     1.75478062       adf.R=1.350
     10      O     2.05404630     0.26653077     1.00758338       adf.R=1.517
     11      C     1.71624530     2.47048490    -2.34444836       adf.R=1.700
     12      S     2.36615249     3.60848225    -3.27261470       adf.R=1.792
 
Total System Charge             0.00000
Bonding info available!
 
 *** GO1_GOStep15 ***

 SOLVATION
-------------------------------------------

  The Delley construction of COSMO surface surface is calculated

       Division Level for Surface Triangles (NDIV)                  3
       Final Division Level for Triangles (NFDIV)                   1
       Radius of the Solvent (RSOL)                           1.93000 angstr
  Dielectric Constant (EPSL)                                 78.39000

       COSMO equation is solved iteratively-               conjugate-gradient

       Maximun of Iterations for Charges (NCIX)                  1000
       Criterion for Charge convergence (CCNV)                1.0E-08

  COSMO charges included variationally in SCF

       COSMO included at every SCF cycle

  Geometry-dependent empirical factor                         0.00000

  C-Matrix calculated in cspmtx

  In cspmtx, C-Matrix calculated using fitted potential

-------------------------------------------



 -------------------------------------------
  COSMO surface
  Area             =          626.435
  Volume           =          971.164
  Number of Points =         1613
 -------------------------------------------



 ======================
 RI Hartree-Fock Scheme
 ======================
  
 Fit Set Quality     : GOOD
 Threshold Quality   : GOOD
 Integration Quality : GOOD
 Response Quality    : DEFAULT
 Is Range Separated  :  F
 
 RIHartreeFock Dependency: number of modified vectors:           6
 cosmo_calcen: 0.5 (esolb+esolc) (Hartrees) =   -0.041701

 Solvation energy (screening term,uncorrected) =    -26.168046 kcal/mol

 Solvation energy (dispersion and cavitation terms) =      1.171385 kcal/mol
 Solvation Energy Contributions (Hartrees)
          esola   esolb+esolc
     0.04170143   -0.08340286
 esol last cycle   -0.04170143
  
 Hartree-Fock exchange energy:   -537.431366819629     
 cosmo_calcen: 0.5 (esolb+esolc) (Hartrees) =   -0.041701

 Solvation energy (screening term,uncorrected) =    -26.168039 kcal/mol

 Solvation energy (dispersion and cavitation terms) =      1.171385 kcal/mol
 Solvation Energy Contributions (Hartrees)
          esola   esolb+esolc
     0.04170142   -0.08340284
 esol last cycle   -0.04170142

 Energy gradients wrt nuclear displacements
 ==========================================

     Atom      Cartesian (a.u./angstrom)
                 X         Y         Z
 ----------------------------------------
     1 Pa    0.004245 -0.003453 -0.002452
     2 N    -0.000711 -0.001020  0.000578
     3 H     0.000094 -0.000915 -0.000192
     4 O    -0.001697  0.003619  0.000436
     5 H    -0.000366 -0.000214 -0.000299
     6 O    -0.000357  0.001085  0.001960
     7 H     0.000212  0.000645 -0.000531
     8 O    -0.000995 -0.001906  0.001382
     9 H     0.000009  0.000532 -0.000046
    10 O    -0.000532  0.001145 -0.000585
    11 C     0.001232  0.002511 -0.001782
    12 S    -0.001134 -0.002030  0.001530
 ----------------------------------------
 Mulliken charges used for AMS results%charges...

 dE(predicted):    -0.89742E-04, dE(actual):    -0.11251E-03, Trust radius:    0.800000, all in a.u.
 
----------------------------------------------------------------------
Geometry Convergence after Step  15       (Hartree/Angstrom,Angstrom)
----------------------------------------------------------------------
current energy                               -3.44961673 Hartree
[...]
                                   -1.56%     2 S             -15.357  2.00    11 C
                                   -1.38%     2 P:x            10.337  0.00     8 O
                                    1.27%     3 S              15.032  0.00     2 N
                                    1.26%     7 P:z            10.994  0.00     1 Pa
                                    1.24%     1 P:x            -7.330  1.00     2 N
                                    1.20%     6 D:xy           15.477  0.00     1 Pa
                                    1.18%     6 D:yz           15.477  0.00     1 Pa
       1.271  0.00    92 A        -26.30%     4 S               5.908  0.00    12 S
                                   21.79%     5 D:yz            2.281  0.00     1 Pa
                                   13.48%     5 D:xy            2.281  0.00     1 Pa
                                   10.75%     1 S              -6.641  1.00     3 H
                                    9.75%     6 P:z            -0.215  0.00     1 Pa
                                    9.45%     4 D:xy           -1.808  0.20     1 Pa
                                    6.90%     4 D:yz           -1.808  0.20     1 Pa
                                    5.77%     2 S               2.836  0.00     3 H
                                    4.96%     2 P:y            -7.386  1.33    12 S
                                    4.83%     1 S              -6.641  1.00     5 H
                                    4.80%     3 S              15.032  0.00     2 N
                                    4.60%     3 S             -18.914  2.00    12 S
                                    4.48%     2 P:y             8.459  0.00     2 N
                                    4.33%     2 P:z             8.459  0.00     2 N
                                    3.64%     6 P:y            -0.215  0.00     1 Pa
                                    3.63%     2 P:y             5.205  0.00    11 C
                                    2.90%     8 S               0.841  0.00     1 Pa
                                    2.87%     2 P:x            -7.386  1.33    12 S
                                    2.84%     1 P:z            -5.107  0.67    11 C
                                   -2.63%     2 S             -15.357  2.00    11 C
                                    2.53%     2 P:z             5.205  0.00    11 C
                                    2.32%     2 S               2.836  0.00     5 H
                                    2.13%     2 P:x             8.459  0.00     2 N
                                    2.00%     2 P:z            -7.386  1.33    12 S
                                    1.94%     1 P:x            -5.107  0.67    11 C
                                    1.77%     2 S               2.836  0.00     4 H
                                    1.75%     1 S              -6.641  1.00     4 H
                                   -1.63%     1 S              -6.641  1.00     6 H
                                   -1.55%     2 P:z            10.337  0.00     7 O
                                   -1.31%     2 P:y            10.337  0.00     8 O
                                    1.10%     1 P:y            -7.330  1.00     2 N
                                    1.09%     5 S              56.875  0.00    12 S
                                   -1.04%     3 S              10.927  0.00    11 C
       1.333  0.00    93 A         30.18%     2 S               2.836  0.00     4 H
                                   19.04%     1 S              -6.641  1.00     4 H
                                   18.20%     4 D:yz           -1.808  0.20     1 Pa
                                    9.87%     4 D:xy           -1.808  0.20     1 Pa
                                    5.86%     6 P:x            -0.215  0.00     1 Pa
                                    4.49%     4 D:z2           -1.808  0.20     1 Pa
                                    2.96%     2 P:x             5.205  0.00    11 C
                                   -2.76%     6 P:z            -0.215  0.00     1 Pa
                                    2.55%     5 D:xy            2.281  0.00     1 Pa
                                   -2.38%     2 P:x            10.337  0.00    10 O
                                    2.05%     1 P:y            -5.107  0.67    11 C
                                   -1.84%     4 S               5.908  0.00    12 S
                                    1.68%     7 S              -4.550  2.00     1 Pa
                                   -1.60%     5 D:xz            2.281  0.00     1 Pa
                                    1.57%     2 P:x             8.459  0.00     2 N
                                    1.52%     1 P:x            -9.818  1.33     8 O
                                    1.22%     1 P:y            -9.818  1.33    10 O
                                    1.12%     2 S               2.836  0.00     3 H
                                   -1.08%     2 P:y             5.205  0.00    11 C
                                    1.06%     1 P:z            -9.818  1.33     8 O
                                   -1.01%     5 D:x2-y2         2.281  0.00     1 Pa
       1.422  0.00    94 A         17.37%     4 D:z2           -1.808  0.20     1 Pa
                                   15.25%     4 D:x2-y2        -1.808  0.20     1 Pa
                                    9.25%     2 S               2.836  0.00     3 H
                                    7.57%     1 S              -6.641  1.00     3 H
                                    7.34%     5 D:xz            2.281  0.00     1 Pa
                                    6.17%     6 P:x            -0.215  0.00     1 Pa
                                   -4.59%     6 P:z            -0.215  0.00     1 Pa
                                    4.44%     7 S              -4.550  2.00     1 Pa
                                    4.39%     4 D:xy           -1.808  0.20     1 Pa
                                    4.31%     4 D:xz           -1.808  0.20     1 Pa
                                    3.32%     1 P:z            -9.818  1.33    10 O
                                    2.93%     1 S              -6.641  1.00     4 H
                                   -2.82%     4 S               5.908  0.00    12 S
                                    2.44%     2 S               2.836  0.00     5 H
                                    2.39%     5 D:yz            2.281  0.00     1 Pa
                                   -2.33%     2 P:z            10.337  0.00     7 O
                                    2.24%     2 S               2.836  0.00     4 H
                                    1.99%     2 P:y             5.205  0.00    11 C
                                    1.71%     6 P:y            -0.215  0.00     1 Pa
                                    1.58%     1 P:z            -9.818  1.33     7 O
                                    1.28%     1 P:x            -5.107  0.67    11 C
                                    1.17%     2 P:x             5.205  0.00    11 C
                                   -1.11%     2 P:z            10.337  0.00     9 O
                                    1.07%     2 P:y             8.459  0.00     2 N
                                    1.00%     1 P:x            -9.818  1.33     7 O
       1.780  0.00    95 A         18.70%     4 D:z2           -1.808  0.20     1 Pa
                                   15.57%     1 P:x            -5.107  0.67    11 C
                                   11.26%     1 P:z            -7.330  1.00     2 N
                                    9.16%     1 P:x            -7.330  1.00     2 N
                                    9.12%     4 D:xy           -1.808  0.20     1 Pa
                                    8.64%     1 P:z            -5.107  0.67    11 C
                                    8.35%     4 D:xz           -1.808  0.20     1 Pa
                                    5.59%     4 D:yz           -1.808  0.20     1 Pa
                                   -5.55%     2 P:z             8.459  0.00     2 N
                                    3.47%     2 P:x            -7.386  1.33    12 S
                                   -2.71%     2 P:x             8.459  0.00     2 N
                                    2.68%     4 D:x2-y2        -1.808  0.20     1 Pa
                                    2.02%     2 P:z            -7.386  1.33    12 S
                                    1.64%     1 P:x            -9.818  1.33     9 O
                                    1.54%     5 D:x2-y2         2.281  0.00     1 Pa
                                    1.33%     2 S               2.836  0.00     6 H
                                    1.17%     1 D:z2           13.094  0.00    12 S
                                    1.09%     1 P:x            -9.818  1.33    10 O
       2.006  0.00    96 A         17.38%     5 D:z2            2.281  0.00     1 Pa
                                   15.18%     5 D:x2-y2         2.281  0.00     1 Pa
                                   11.22%     5 D:xz            2.281  0.00     1 Pa
                                    8.92%     4 D:x2-y2        -1.808  0.20     1 Pa
                                    5.77%     1 P:y            -7.330  1.00     2 N
                                    5.43%     1 P:y            -5.107  0.67    11 C
                                   -4.12%     2 P:y             5.205  0.00    11 C
                                    3.42%     4 D:xz           -1.808  0.20     1 Pa
                                    3.30%     4 D:z2           -1.808  0.20     1 Pa
                                    2.97%     1 P:z            -7.330  1.00     2 N
                                    2.71%     1 P:z            -5.107  0.67    11 C
                                    2.49%     4 D:xy           -1.808  0.20     1 Pa
                                    2.29%     3 P:y             3.991  0.00    12 S
                                    1.91%     3 P:z             3.991  0.00    12 S
                                   -1.77%     2 P:z             5.205  0.00    11 C
                                    1.75%     2 S               2.836  0.00     5 H
                                    1.73%     5 D:xy            2.281  0.00     1 Pa
                                    1.48%     3 P:x             3.991  0.00    12 S
                                    1.45%     5 D:yz            2.281  0.00     1 Pa
                                    1.07%     2 S               2.836  0.00     3 H
                                    1.07%     6 P:y            -0.215  0.00     1 Pa
                                    1.07%     1 P:z            -9.818  1.33     9 O
                                    1.06%     1 P:x            -9.818  1.33     8 O
                                    1.00%     2 P:z            -7.386  1.33    12 S
       2.099  0.00    97 A        -18.11%     3 S              10.927  0.00    11 C
                                   14.95%     2 P:y            -7.386  1.33    12 S
                                   12.14%     3 P:y             3.991  0.00    12 S
                                   11.87%     2 S             -15.357  2.00    11 C
                                   11.00%     3 P:x             3.991  0.00    12 S
                                   10.76%     2 P:x            -7.386  1.33    12 S
                                    8.96%     8 S               0.841  0.00     1 Pa
                                    8.54%     2 P:z            -7.386  1.33    12 S
                                    6.52%     3 P:z             3.991  0.00    12 S
                                    4.65%     3 S             -18.914  2.00    12 S
                                    3.64%     1 D:xy           13.094  0.00    12 S
                                    2.87%     1 D:yz           13.094  0.00    12 S
                                    2.78%     1 S              -6.641  1.00     3 H
                                    2.64%     1 S              -6.641  1.00     5 H
                                    2.57%     4 D:x2-y2        -1.808  0.20     1 Pa
                                    2.06%     1 D:xz           13.094  0.00    12 S
                                    2.04%     6 P:x            -0.215  0.00     1 Pa
                                   -1.97%     4 S               5.908  0.00    12 S
                                   -1.82%     7 S              -4.550  2.00     1 Pa
                                    1.42%     5 D:yz            2.281  0.00     1 Pa
                                    1.41%     5 D:xy            2.281  0.00     1 Pa
                                    1.36%     5 D:x2-y2         2.281  0.00     1 Pa
                                    1.08%     5 D:z2            2.281  0.00     1 Pa
       2.305  0.00    98 A         25.58%     4 D:x2-y2        -1.808  0.20     1 Pa
                                   22.57%     5 D:x2-y2         2.281  0.00     1 Pa
                                   11.94%     4 D:z2           -1.808  0.20     1 Pa
                                   11.58%     4 D:xz           -1.808  0.20     1 Pa
                                    9.89%     5 D:z2            2.281  0.00     1 Pa
                                    9.49%     5 D:xz            2.281  0.00     1 Pa
                                   -4.86%     2 P:y             8.459  0.00     2 N
                                    3.80%     1 P:y            -5.107  0.67    11 C
                                    3.60%     2 P:y             5.205  0.00    11 C
                                    2.96%     1 P:y            -7.330  1.00     2 N
                                   -2.29%     2 P:z             8.459  0.00     2 N
                                   -2.25%     2 P:x             8.459  0.00     2 N
                                   -2.19%     2 P:y            10.337  0.00     7 O
                                    1.66%     2 P:x             5.205  0.00    11 C
                                    1.63%     1 P:z            -5.107  0.67    11 C
                                    1.59%     5 D:yz            2.281  0.00     1 Pa
                                   -1.53%     2 P:y            10.337  0.00     9 O
                                    1.49%     2 P:z             5.205  0.00    11 C
                                    1.45%     1 P:z            -7.330  1.00     2 N
                                   -1.27%     2 P:z            10.337  0.00     8 O
                                    1.26%     5 D:xy            2.281  0.00     1 Pa
                                    1.17%     1 P:y            -9.818  1.33     7 O
                                   -1.07%     2 P:y            10.337  0.00     8 O
       2.310  0.00    99 A         31.62%     5 D:xy            2.281  0.00     1 Pa
                                   23.58%     5 D:yz            2.281  0.00     1 Pa
                                   16.13%     5 D:x2-y2         2.281  0.00     1 Pa
                                   11.78%     5 D:z2            2.281  0.00     1 Pa
                                    7.51%     5 D:xz            2.281  0.00     1 Pa
                                    3.67%     4 D:xy           -1.808  0.20     1 Pa
                                    3.09%     4 D:yz           -1.808  0.20     1 Pa
                                    2.41%     4 D:z2           -1.808  0.20     1 Pa
                                   -1.35%     2 P:y            10.337  0.00    10 O
                                    1.15%     2 S               2.836  0.00     4 H
                                    1.00%     3 P:y             3.991  0.00    12 S
       2.394  0.00   100 A         51.70%     5 D:z2            2.281  0.00     1 Pa
                                   21.07%     5 D:xy            2.281  0.00     1 Pa
                                    8.68%     5 D:yz            2.281  0.00     1 Pa
                                    7.51%     5 D:x2-y2         2.281  0.00     1 Pa
                                    4.82%     3 P:z             3.991  0.00    12 S
                                    2.78%     4 D:z2           -1.808  0.20     1 Pa
                                    2.49%     3 P:x             3.991  0.00    12 S
                                    2.45%     5 D:xz            2.281  0.00     1 Pa
                                   -1.06%     2 P:z             5.205  0.00    11 C

 Energy gradients wrt nuclear displacements
 ==========================================

     Atom      Cartesian (a.u./angstrom)
                 X         Y         Z
 ----------------------------------------
     1 Pa   -0.000231 -0.000128 -0.000004
     2 N    -0.000062  0.000023  0.000004
     3 H     0.000045 -0.000007  0.000050
     4 O     0.000092  0.000031  0.000000
     5 H     0.000025  0.000014 -0.000039
     6 O     0.000067  0.000066  0.000011
     7 H     0.000005  0.000002 -0.000001
     8 O     0.000086 -0.000029  0.000092
     9 H     0.000050 -0.000000  0.000035
    10 O     0.000099  0.000043  0.000001
    11 C    -0.000064 -0.000019 -0.000083
    12 S    -0.000111  0.000005 -0.000067
 ----------------------------------------



 =======================================================================
 Electrostatic potential at the Nuclei due to electrons and other nuclei
 =======================================================================
  
         Atom                  Potential
         ----                  ---------
     1)   Pa                787.30995485
     2)   N                  18.44233510
     3)   H                   0.95709115
     4)   O                  22.38366907
     5)   H                   0.95709827
     6)   O                  22.36331654
     7)   H                   0.93403875
     8)   O                  22.36074139
     9)   H                   0.93555276
    10)   O                  22.39083149
    11)   C                  14.75324897
    12)   S                  59.66254609
 Mulliken charges used for AMS results%charges...


    =====================
     CALCULATION RESULTS
    =====================

Energy (hartree)            -3.44998242

Gradients (hartree/bohr)
  Index   Atom            d/dx            d/dy            d/dz
      1     Pa   -0.0001224701   -0.0000677917   -0.0000020212
      2      N   -0.0000328484    0.0000119482    0.0000021084
      3      H    0.0000236435   -0.0000037622    0.0000262503
      4      O    0.0000485175    0.0000162807    0.0000001342
      5      H    0.0000131339    0.0000075653   -0.0000204483
      6      O    0.0000353296    0.0000348702    0.0000059256
      7      H    0.0000026000    0.0000011193   -0.0000004270
      8      O    0.0000457142   -0.0000154677    0.0000488619
      9      H    0.0000262456   -0.0000002301    0.0000185367
     10      O    0.0000523659    0.0000226464    0.0000005938
     11      C   -0.0000336316   -0.0000098748   -0.0000440003
     12      S   -0.0000586001    0.0000026963   -0.0000355141

PES point character: Geometry corresponds to a non-stationary point on the PES.
                     At least one gradient component is too large!
                     (Hint: The threshold for what is considered a small enough gradient is
                     configured with the GeometryOptimization%Convergence%Gradients keyword.)


--------------
Atomic charges
--------------
  Index   Atom    Charge
      1     Pa    2.8699
      2      N   -0.4539
      3      H    0.1358
      4      O   -0.6630
      5      H    0.1298
      6      O   -0.6506
      7      H    0.1177
      8      O   -0.6693
      9      H    0.1036
     10      O   -0.6870
     11      C    0.0942
     12      S   -0.3273


Dipole moment vector    (Debye):    -4.63563746   -9.12000565    4.89245642
              magnitude (Debye):    11.34018375


ERROR: Geometry optimization failed! (Did not converge.)


AMS application finished. Exiting.
NORMAL TERMINATION
     Total cpu time:  242641.37
  Total system time:   12517.75
 Total elapsed time:  255559.60
