

 Parallel Execution: Process Information
 ==============================================================================
 Rank   Node Name                              NodeID   MyNodeRank  NodeMaster
    0   u-5-4.local                               0          0          0
    1   u-5-4.local                               0          1         -1
    2   u-5-4.local                               0          2         -1
    3   u-5-4.local                               0          3         -1
    4   u-5-4.local                               1          0          1
    5   u-5-4.local                               1          1         -1
    6   u-5-4.local                               1          2         -1
    7   u-5-4.local                               1          3         -1
 ==============================================================================


May use up to 31144MB of RAM as shared memory on node 0
May use up to 31250MB of RAM as shared memory on node 1

 *******************************************************************************
 *                                                                             *
 *  --------------------------------                                           *
 *   Amsterdam Modeling Suite (AMS)              2022.103                      *
 *  --------------------------------                                           *
 *                                               r104886 2022-06-17            *
 *                                                                             *
 *                                                                             *
 *                              =================                              *
 *                              |               |                              *
 *                              |     A M S     |                              *
 *                              |               |                              *
 *                              =================                              *
 *                                                                             *
 *                                                                             *
 *   Online information and documentation:  https://www.scm.com/support/       *
 *   E-mail:  support@scm.com   info@scm.com                                   *
 *                                                                             *
 *   Scientific publications using AMS results must be properly referenced     *
 *   See the User Manuals (or the web site) for recommended citations          *
 *   The terms and conditions of the End User License Agreement apply to       *
 *   the use of AMS, https://www.scm.com/license-terms/                        *
 *                                                                             *
 **********************  x86_64_linux_intel / intelmpi  ************************
 
 Licensed to: Dr. Val?rie Vallet / Laboratoire PhLAM UMR 8523 / Villeneuve d'Ascq Cedex / FRANCE 2023-02-21 11:49:39
 SCM User ID: u10325
  
 AMS 2022.103  RunTime: Mar20-2023 12:00:43  ShM Nodes: 2  Procs: 8

 AMS jobname: pao_oh2_no3_h2o.SR.b3lyp.tz2p.opt-freq-A2-solvation
 AMS jobid  : 1812507615

 Start   directory: /home/shaaban/ams/PhD/nitrate/pao_oh2_no3_h2o/solvation/
 Results directory: /home/shaaban/ams/PhD/nitrate/pao_oh2_no3_h2o/solvation/pao_oh2_no3_h2o.SR.b3lyp.tz2p.opt-freq-A2-solvation.results/
 Scratch directory: /state/partition1/shaaban/941908.phlam-s-sakura/amstmp_pao_oh2_no3_h2o.SR.b3lyp.tz2p.opt-freq-A2-solvation_kid0.1812507615/


 Communication costs MPI_COMM_WORLD:      1.684 usec per message,   0.0054 usec per 8-byte item
 Communication costs for intra-node:      0.827 usec per message,   0.0033 usec per 8-byte item

 RNG seed: 256902987 -1883768096 -1359094093 1123837524 1190246522 540458340 -894060295 -1877634585



                      ************************************************************************
                      *  ADF 2022.103  RunTime: Mar20-2023 12:00:43  ShM Nodes: 2  Procs: 8  *
                      ************************************************************************
  
       ***************************
       *  GEOMETRY OPTIMIZATION  *
       ***************************

Optimization Method                    Quasi Newton
Optimization Coordinates               Delocalized Coordinates
Optimize lattice                       F
 
 ------------------------------------------------------
 Convergence criteria (Hartree,Angstrom)
 ------------------------------------------------------
 Maximum gradient               0.000100000000
 Maximum rms gradient           0.000066666667
 Maximum step allowed           0.001000000000
 Maximum rms step allowed       0.000666666667
 Maximum energy change allowe   0.000013000000
 Maximum stress energy allowe   0.000500000000
 
 Initial Hessian from file: dep-adf.rkf
 
------------------------------------
Quasi-Newton Optimizer Parameters
------------------------------------
Hessian Update Method                  BFGS
Maximum number of steps                  250
First GDIIS cycle                          0
Maximum GDIIS vectors                      0
Trust radius (bohr)                        0.200000
Trust radius varies                        T
Constraints converged at all steps         T
Use projector                              T
 
 Rigid motions settings for: old optimizer
 Atomic rotations (x,y,z):     T T T
 Atomic translations (x,y,z):  T T T
 Tolerance:                   1.000000000000000E-006
 
--------
Geometry
--------
Formula: H4NO7Pa
Atoms
  Index Symbol   x (angstrom)   y (angstrom)   z (angstrom)
      1     Pa    -0.26933423     0.49281672     0.00661809       adf.R=2.200
      2      O     1.29622435     1.12060009    -1.26054598       adf.R=1.517
      3      H    -1.39090471     0.59111910    -2.61483594       adf.R=1.350
      4      O    -1.49057762    -0.31601312     1.17566805       adf.R=1.517
      5      O    -1.56228098     0.26168494    -1.72487936       adf.R=1.517
      6      O     0.82120689    -1.75828452    -0.21782119       adf.R=1.517
      7      H     1.52129150    -1.97949456    -0.84563194       adf.R=1.350
      8      H     0.46168864    -2.59058405     0.11494796       adf.R=1.350
      9      H     1.43172109     1.54448022    -2.11730670       adf.R=1.350
     10      O     0.45770510     2.15282211     1.67238504       adf.R=1.517
     11      O    -1.21072216     2.73874161     0.11223263       adf.R=1.517
     12      N    -0.43449724     3.32915528     1.28926024       adf.R=1.608
     13      O    -0.33582676     4.52663539     1.92636739       adf.R=1.517
 
Total System Charge             0.00000
Bonding info available!
 
 
----------------
ADF Engine Input
----------------
 
 Basis
 Type TZ2P
 Core None
 End
 XC
 Hybrid B3LYP
 End
 Solvation
 Surf Delley
 Solv name=Water cav0=0.0 cav1=0.0067639
 Charged method=CONJ
 C-Mat POT
 SCF VAR ALL
 CSMRSP
 End
 NumericalQuality Good
 

 Title: *** (NO TITLE) ***

 QuasiNewton optimization: Reading initial Hessian from file.
 *** GO1_GOStep1 ***

 SOLVATION
-------------------------------------------

  The Delley construction of COSMO surface surface is calculated

       Division Level for Surface Triangles (NDIV)                  3
       Final Division Level for Triangles (NFDIV)                   1
       Radius of the Solvent (RSOL)                           1.93000 angstr
  Dielectric Constant (EPSL)                                 78.39000

       COSMO equation is solved iteratively-               conjugate-gradient

       Maximun of Iterations for Charges (NCIX)                  1000
       Criterion for Charge convergence (CCNV)                1.0E-08

  COSMO charges included variationally in SCF

       COSMO included at every SCF cycle

  Geometry-dependent empirical factor                         0.00000

  C-Matrix calculated in cspmtx

  In cspmtx, C-Matrix calculated using fitted potential

-------------------------------------------



 -------------------------------------------
  COSMO surface
  Area             =          588.041
  Volume           =          975.737
  Number of Points =         1588
 -------------------------------------------



 ======================
 RI Hartree-Fock Scheme
 ======================
  
 Fit Set Quality     : GOOD
 Threshold Quality   : GOOD
 Integration Quality : GOOD
 Response Quality    : DEFAULT
 Is Range Separated  :  F
 
 RIHartreeFock Dependency: number of modified vectors:           4
 cosmo_calcen: 0.5 (esolb+esolc) (Hartrees) =   -0.058304

 Solvation energy (screening term,uncorrected) =    -36.586436 kcal/mol

 Solvation energy (dispersion and cavitation terms) =      1.099591 kcal/mol
 Solvation Energy Contributions (Hartrees)
          esola   esolb+esolc
     0.05830419   -0.11660838
 esol last cycle   -0.05830419
  
 Hartree-Fock exchange energy:   -531.288948942646     
 cosmo_calcen: 0.5 (esolb+esolc) (Hartrees) =   -0.058304

 Solvation energy (screening term,uncorrected) =    -36.586428 kcal/mol

 Solvation energy (dispersion and cavitation terms) =      1.099591 kcal/mol
 Solvation Energy Contributions (Hartrees)
          esola   esolb+esolc
     0.05830418   -0.11660836
 esol last cycle   -0.05830418

 Energy gradients wrt nuclear displacements
 ==========================================

     Atom      Cartesian (a.u./angstrom)
                 X         Y         Z
 ----------------------------------------
     1 Pa   -0.002877  0.027837  0.005900
     2 O     0.006628  0.000493 -0.007722
     3 H    -0.000138  0.000057  0.001004
     4 O    -0.008001 -0.007085  0.006974
     5 O    -0.002247 -0.006104 -0.007134
     6 O     0.001148 -0.002710 -0.000293
     7 H    -0.000277 -0.000190  0.000175
     8 H     0.000205  0.000019 -0.000341
     9 H     0.000093  0.000361  0.001393
    10 O     0.106045 -0.179637  0.021262
    11 O    -0.061936 -0.138899 -0.143950
    12 N    -0.084074  0.043442 -0.038699
    13 O     0.045430  0.262414  0.161431
 ----------------------------------------
 Mulliken charges used for AMS results%charges...
 
----------------------------------------------------------------------
Geometry Convergence after Step   1       (Hartree/Angstrom,Angstrom)
----------------------------------------------------------------------
current energy                               -3.63124149 Hartree
energy change                      -3.63124149     0.00001300    F
constrained gradient max            0.26242383     0.00010000    F
constrained gradient rms            0.07097234     0.00006667    F
gradient max                        0.26242383
gradient rms                        0.07097234
cart. step max                      0.07615678     0.00100000    F
cart. step rms                      0.01676722     0.00066667    F
 
 
--------
Geometry
--------
Formula: H4NO7Pa
Atoms
  Index Symbol   x (angstrom)   y (angstrom)   z (angstrom)
      1     Pa    -0.27138473     0.49638035     0.00724199       adf.R=2.200
      2      O     1.29792149     1.12372014    -1.25879801       adf.R=1.517
      3      H    -1.39831624     0.59867177    -2.61734645       adf.R=1.350
      4      O    -1.49166171    -0.31431153     1.17189371       adf.R=1.517
      5      O    -1.56774436     0.26787160    -1.72364355       adf.R=1.517
      6      O     0.82266135    -1.75673736    -0.21209261       adf.R=1.517
      7      H     1.52328519    -1.97617268    -0.83764155       adf.R=1.350
      8      H     0.46802887    -2.59410988     0.12224040       adf.R=1.350
      9      H     1.43020696     1.54893059    -2.11836745       adf.R=1.350
     10      O     0.44145235     2.17926685     1.66761270       adf.R=1.517
     11      O    -1.19401162     2.77083298     0.13905491       adf.R=1.517
     12      N    -0.42493808     3.31885776     1.28802369       adf.R=1.608
     13      O    -0.33980559     4.45047861     1.88828048       adf.R=1.517
 
Total System Charge             0.00000
Bonding info available!
 
 *** GO1_GOStep2 ***

 SOLVATION
-------------------------------------------

  The Delley construction of COSMO surface surface is calculated

       Division Level for Surface Triangles (NDIV)                  3
       Final Division Level for Triangles (NFDIV)                   1
       Radius of the Solvent (RSOL)                           1.93000 angstr
  Dielectric Constant (EPSL)                                 78.39000

       COSMO equation is solved iteratively-               conjugate-gradient

       Maximun of Iterations for Charges (NCIX)                  1000
       Criterion for Charge convergence (CCNV)                1.0E-08

  COSMO charges included variationally in SCF

       COSMO included at every SCF cycle

  Geometry-dependent empirical factor                         0.00000

  C-Matrix calculated in cspmtx

  In cspmtx, C-Matrix calculated using fitted potential

-------------------------------------------



 -------------------------------------------
  COSMO surface
  Area             =          584.537
  Volume           =          969.612
  Number of Points =         1575
 -------------------------------------------



 ======================
 RI Hartree-Fock Scheme
 ======================
  
 Fit Set Quality     : GOOD
 Threshold Quality   : GOOD
 Integration Quality : GOOD
 Response Quality    : DEFAULT
 Is Range Separated  :  F
 
 RIHartreeFock Dependency: number of modified vectors:           4
 cosmo_calcen: 0.5 (esolb+esolc) (Hartrees) =   -0.058427

 Solvation energy (screening term,uncorrected) =    -36.663780 kcal/mol

 Solvation energy (dispersion and cavitation terms) =      1.093040 kcal/mol
 Solvation Energy Contributions (Hartrees)
          esola   esolb+esolc
     0.05842745   -0.11685489
 esol last cycle   -0.05842745
  
 Hartree-Fock exchange energy:   -531.391698839383     
 cosmo_calcen: 0.5 (esolb+esolc) (Hartrees) =   -0.058427

 Solvation energy (screening term,uncorrected) =    -36.663812 kcal/mol

 Solvation energy (dispersion and cavitation terms) =      1.093040 kcal/mol
 Solvation Energy Contributions (Hartrees)
          esola   esolb+esolc
     0.05842750   -0.11685500
 esol last cycle   -0.05842750

 Energy gradients wrt nuclear displacements
 ==========================================

     Atom      Cartesian (a.u./angstrom)
                 X         Y         Z
 ----------------------------------------
     1 Pa   -0.003147  0.020366  0.006977
     2 O     0.006586 -0.001228 -0.003684
     3 H     0.000847  0.002264 -0.005287
     4 O    -0.006316 -0.006194  0.005142
     5 O    -0.003991 -0.007833 -0.001260
     6 O     0.005104  0.001555 -0.003805
     7 H    -0.002452  0.000108  0.002104
     8 H    -0.001427 -0.005154  0.001329
     9 H     0.000763  0.002436 -0.002953
    10 O     0.094416 -0.157719  0.019654
    11 O    -0.057764 -0.126227 -0.133433
    12 N    -0.076296  0.071481 -0.019887
    13 O     0.043679  0.206146  0.135103
 ----------------------------------------
 Mulliken charges used for AMS results%charges...

 dE(predicted):    -0.39012E-01, dE(actual):    -0.40681E-01, Trust radius:    0.400000, all in a.u.
 
----------------------------------------------------------------------
Geometry Convergence after Step   2       (Hartree/Angstrom,Angstrom)
----------------------------------------------------------------------
current energy                               -3.67192280 Hartree
energy change                      -0.04068131     0.00001300    F
constrained gradient max            0.20615979     0.00010000    F
constrained gradient rms            0.06120197     0.00006667    F
gradient max                        0.20615979
gradient rms                        0.06120197
cart. step max                      0.11779794     0.00100000    F
cart. step rms                      0.03183538     0.00066667    F
 
 
--------
Geometry
--------
Formula: H4NO7Pa
Atoms
  Index Symbol   x (angstrom)   y (angstrom)   z (angstrom)
      1     Pa    -0.27544119     0.49515168     0.01066031       adf.R=2.200
      2      O     1.30083274     1.13495937    -1.25545350       adf.R=1.517
      3      H    -1.40015418     0.57986394    -2.60985796       adf.R=1.350
      4      O    -1.49799385    -0.29960106     1.17507340       adf.R=1.517
      5      O    -1.57314568     0.26106915    -1.71286873       adf.R=1.517
      6      O     0.81970173    -1.75797609    -0.20707486       adf.R=1.517
      7      H     1.52367405    -1.96197929    -0.85227522       adf.R=1.350
      8      H     0.46676483    -2.60263415     0.11564687       adf.R=1.350
      9      H     1.44216771     1.56418191    -2.10409742       adf.R=1.350
     10      O     0.39056871     2.24086868     1.65162613       adf.R=1.517
     11      O    -1.14564091     2.82958238     0.20807834       adf.R=1.517
     12      N    -0.41072964     3.29751200     1.28324005       adf.R=1.608
     13      O    -0.34491044     4.33268067     1.81376087       adf.R=1.517
 
Total System Charge             0.00000
Bonding info available!
 
 *** GO1_GOStep3 ***

 SOLVATION
-------------------------------------------

  The Delley construction of COSMO surface surface is calculated

       Division Level for Surface Triangles (NDIV)                  3
       Final Division Level for Triangles (NFDIV)                   1
       Radius of the Solvent (RSOL)                           1.93000 angstr
  Dielectric Constant (EPSL)                                 78.39000

       COSMO equation is solved iteratively-               conjugate-gradient

       Maximun of Iterations for Charges (NCIX)                  1000
       Criterion for Charge convergence (CCNV)                1.0E-08

  COSMO charges included variationally in SCF

       COSMO included at every SCF cycle

  Geometry-dependent empirical factor                         0.00000

  C-Matrix calculated in cspmtx

  In cspmtx, C-Matrix calculated using fitted potential

-------------------------------------------



 -------------------------------------------
  COSMO surface
  Area             =          579.665
  Volume           =          960.440
  Number of Points =         1563
 -------------------------------------------



 ======================
 RI Hartree-Fock Scheme
 ======================
  
 Fit Set Quality     : GOOD
 Threshold Quality   : GOOD
 Integration Quality : GOOD
 Response Quality    : DEFAULT
 Is Range Separated  :  F
 
 RIHartreeFock Dependency: number of modified vectors:           4
 cosmo_calcen: 0.5 (esolb+esolc) (Hartrees) =   -0.059354

 Solvation energy (screening term,uncorrected) =    -37.245038 kcal/mol

 Solvation energy (dispersion and cavitation terms) =      1.083928 kcal/mol
 Solvation Energy Contributions (Hartrees)
          esola   esolb+esolc
     0.05935374   -0.11870748
 esol last cycle   -0.05935374
  
 Hartree-Fock exchange energy:   -531.639350553425     
 cosmo_calcen: 0.5 (esolb+esolc) (Hartrees) =   -0.059354

 Solvation energy (screening term,uncorrected) =    -37.245063 kcal/mol

 Solvation energy (dispersion and cavitation terms) =      1.083928 kcal/mol
 Solvation Energy Contributions (Hartrees)
          esola   esolb+esolc
     0.05935378   -0.11870756
 esol last cycle   -0.05935378

 Energy gradients wrt nuclear displacements
 ==========================================

     Atom      Cartesian (a.u./angstrom)
                 X         Y         Z
 ----------------------------------------
     1 Pa   -0.007858  0.002981  0.007717
     2 O     0.011685  0.006236 -0.017059
     3 H     0.000764  0.001877 -0.004657
     4 O    -0.003210 -0.003795  0.001862
     5 O    -0.003620 -0.006879 -0.000326
     6 O    -0.008500  0.005659  0.008960
     7 H     0.013347 -0.002464 -0.012486
     8 H    -0.003572 -0.007444  0.003332
     9 H    -0.000605 -0.002935  0.007593
    10 O     0.041206 -0.081694 -0.001967
    11 O    -0.021337 -0.093620 -0.077685
    12 N    -0.051719  0.221960  0.074122
    13 O     0.033418 -0.039882  0.010595
 ----------------------------------------
 Mulliken charges used for AMS results%charges...

 dE(predicted):    -0.57777E-01, dE(actual):    -0.50476E-01, Trust radius:    0.800000, all in a.u.
 
----------------------------------------------------------------------
Geometry Convergence after Step   3       (Hartree/Angstrom,Angstrom)
----------------------------------------------------------------------
current energy                               -3.72239904 Hartree
energy change                      -0.05047624     0.00001300    F
constrained gradient max            0.22196116     0.00010000    F
constrained gradient rms            0.04675837     0.00006667    F
gradient max                        0.22196116
gradient rms                        0.04675837
cart. step max                      0.12923548     0.00100000    F
cart. step rms                      0.04678716     0.00066667    F
 
 
--------
Geometry
--------
Formula: H4NO7Pa
Atoms
  Index Symbol   x (angstrom)   y (angstrom)   z (angstrom)
      1     Pa    -0.24149991     0.47350790    -0.00781779       adf.R=2.200
      2      O     1.30072321     1.13471159    -1.25229637       adf.R=1.517
      3      H    -1.39077335     0.61957598    -2.53933583       adf.R=1.350
      4      O    -1.44230123    -0.25335122     1.15646792       adf.R=1.517
      5      O    -1.57397923     0.26861033    -1.70542492       adf.R=1.517
      6      O     0.81921314    -1.75887187    -0.22384960       adf.R=1.517
      7      H     1.44733629    -1.95724123    -0.81831493       adf.R=1.350
      8      H     0.49011585    -2.64433177     0.12407535       adf.R=1.350
      9      H     1.45867378     1.59164962    -2.11269141       adf.R=1.350
     10      O     0.28622481     2.30560779     1.59019319       adf.R=1.517
     11      O    -1.07905056     2.86449189     0.30365379       adf.R=1.517
     12      N    -0.38220923     3.16827652     1.21393435       adf.R=1.608
     13      O    -0.39677965     4.30104367     1.78786452       adf.R=1.517
 
Total System Charge             0.00000
Bonding info available!
 
 *** GO1_GOStep4 ***

 SOLVATION
-------------------------------------------

  The Delley construction of COSMO surface surface is calculated

       Division Level for Surface Triangles (NDIV)                  3
       Final Division Level for Triangles (NFDIV)                   1
       Radius of the Solvent (RSOL)                           1.93000 angstr
  Dielectric Constant (EPSL)                                 78.39000

       COSMO equation is solved iteratively-               conjugate-gradient

       Maximun of Iterations for Charges (NCIX)                  1000
       Criterion for Charge convergence (CCNV)                1.0E-08

  COSMO charges included variationally in SCF

       COSMO included at every SCF cycle

  Geometry-dependent empirical factor                         0.00000

  C-Matrix calculated in cspmtx

  In cspmtx, C-Matrix calculated using fitted potential

-------------------------------------------



 -------------------------------------------
  COSMO surface
  Area             =          569.536
  Volume           =          937.749
  Number of Points =         1535
 -------------------------------------------



 ======================
 RI Hartree-Fock Scheme
 ======================
  
 Fit Set Quality     : GOOD
 Threshold Quality   : GOOD
 Integration Quality : GOOD
 Response Quality    : DEFAULT
 Is Range Separated  :  F
 
 RIHartreeFock Dependency: number of modified vectors:           4
 cosmo_calcen: 0.5 (esolb+esolc) (Hartrees) =   -0.070712

 Solvation energy (screening term,uncorrected) =    -44.372176 kcal/mol

 Solvation energy (dispersion and cavitation terms) =      1.064988 kcal/mol
 Solvation Energy Contributions (Hartrees)
          esola   esolb+esolc
     0.07071156   -0.14142311
 esol last cycle   -0.07071156
  
 Hartree-Fock exchange energy:   -532.006199695234     
 cosmo_calcen: 0.5 (esolb+esolc) (Hartrees) =   -0.070712

 Solvation energy (screening term,uncorrected) =    -44.372173 kcal/mol

 Solvation energy (dispersion and cavitation terms) =      1.064988 kcal/mol
 Solvation Energy Contributions (Hartrees)
          esola   esolb+esolc
     0.07071155   -0.14142310
 esol last cycle   -0.07071155

 Energy gradients wrt nuclear displacements
 ==========================================

     Atom      Cartesian (a.u./angstrom)
                 X         Y         Z
 ----------------------------------------
     1 Pa   -0.026033  0.001559  0.035689
     2 O    -0.002256 -0.018300  0.027262
     3 H    -0.016143 -0.032572  0.083088
     4 O     0.028428  0.015340 -0.028437
     5 O     0.014933  0.027649 -0.082760
     6 O     0.153420  0.022581 -0.147666
     7 H    -0.139353  0.037937  0.130958
     8 H    -0.015910 -0.060074  0.017877
     9 H     0.005650  0.016795 -0.029665
    10 O    -0.240155  0.217360 -0.159438
    11 O     0.169646 -0.008408  0.200492
    12 N     0.061367 -0.250670 -0.083357
    13 O     0.006405  0.030803  0.035956
 ----------------------------------------
 Mulliken charges used for AMS results%charges...

 dE(predicted):    -0.44594E-01, dE(actual):     0.21015E-01, Trust radius:    0.200000, all in a.u.
 
----------------------------------------------------------------------
Geometry Convergence after Step   4       (Hartree/Angstrom,Angstrom)
----------------------------------------------------------------------
current energy                               -3.70138360 Hartree
energy change                       0.02101543     0.00001300    F
constrained gradient max            0.25068645     0.00010000    F
constrained gradient rms            0.09940956     0.00006667    F
gradient max                        0.25068645
gradient rms                        0.09940956
cart. step max                      0.03860987     0.00100000    F
cart. step rms                      0.01505213     0.00066667    F
 
 
--------
Geometry
--------
Formula: H4NO7Pa
Atoms
  Index Symbol   x (angstrom)   y (angstrom)   z (angstrom)
      1     Pa    -0.24460847     0.47583452    -0.00283862       adf.R=2.200
      2      O     1.29700473     1.12796137    -1.24623614       adf.R=1.517
      3      H    -1.39517328     0.62961276    -2.55627010       adf.R=1.350
      4      O    -1.45217391    -0.25027029     1.17095105       adf.R=1.517
      5      O    -1.57998147     0.27250397    -1.70063020       adf.R=1.517
      6      O     0.81600007    -1.75879636    -0.21874625       adf.R=1.517
      7      H     1.47736828    -1.96806622    -0.84369546       adf.R=1.350
      8      H     0.48842428    -2.62672848     0.12758183       adf.R=1.350
      9      H     1.45961035     1.57944629    -2.10284567       adf.R=1.350
     10      O     0.32483468     2.27679028     1.62192595       adf.R=1.517
     11      O    -1.11062452     2.87178381     0.27297466       adf.R=1.517
     12      N    -0.38366268     3.17987048     1.21788698       adf.R=1.608
     13      O    -0.40132415     4.30373707     1.77640024       adf.R=1.517
 
Total System Charge             0.00000
Bonding info available!
 
 *** GO1_GOStep5 ***

 SOLVATION
-------------------------------------------

  The Delley construction of COSMO surface surface is calculated

       Division Level for Surface Triangles (NDIV)                  3
       Final Division Level for Triangles (NFDIV)                   1
       Radius of the Solvent (RSOL)                           1.93000 angstr
  Dielectric Constant (EPSL)                                 78.39000

       COSMO equation is solved iteratively-               conjugate-gradient

       Maximun of Iterations for Charges (NCIX)                  1000
       Criterion for Charge convergence (CCNV)                1.0E-08

  COSMO charges included variationally in SCF

       COSMO included at every SCF cycle

  Geometry-dependent empirical factor                         0.00000

  C-Matrix calculated in cspmtx

  In cspmtx, C-Matrix calculated using fitted potential

-------------------------------------------



 -------------------------------------------
  COSMO surface
  Area             =          571.783
  Volume           =          943.595
  Number of Points =         1544
 -------------------------------------------



 ======================
 RI Hartree-Fock Scheme
 ======================
  
 Fit Set Quality     : GOOD
 Threshold Quality   : GOOD
 Integration Quality : GOOD
 Response Quality    : DEFAULT
 Is Range Separated  :  F
 
 RIHartreeFock Dependency: number of modified vectors:           4
 cosmo_calcen: 0.5 (esolb+esolc) (Hartrees) =   -0.067994

 Solvation energy (screening term,uncorrected) =    -42.666935 kcal/mol

 Solvation energy (dispersion and cavitation terms) =      1.069190 kcal/mol
 Solvation Energy Contributions (Hartrees)
          esola   esolb+esolc
     0.06799408   -0.13598817
 esol last cycle   -0.06799408
  
 Hartree-Fock exchange energy:   -531.865141193655     
 cosmo_calcen: 0.5 (esolb+esolc) (Hartrees) =   -0.067994

 Solvation energy (screening term,uncorrected) =    -42.666933 kcal/mol

 Solvation energy (dispersion and cavitation terms) =      1.069190 kcal/mol
 Solvation Energy Contributions (Hartrees)
          esola   esolb+esolc
     0.06799408   -0.13598816
 esol last cycle   -0.06799408

 Energy gradients wrt nuclear displacements
 ==========================================

     Atom      Cartesian (a.u./angstrom)
                 X         Y         Z
 ----------------------------------------
     1 Pa   -0.014969  0.004618  0.025933
     2 O    -0.003055 -0.015319  0.022167
     3 H    -0.006393 -0.013340  0.036600
     4 O     0.019965  0.010804 -0.019901
     5 O     0.004495  0.008663 -0.037719
     6 O     0.058225  0.025815 -0.056747
     7 H    -0.049740  0.011863  0.046361
     8 H    -0.009604 -0.037787  0.011080
     9 H     0.004303  0.012927 -0.022639
    10 O    -0.096640  0.073024 -0.063247
    11 O     0.063599 -0.009487  0.079986
    12 N     0.027474 -0.114299 -0.057376
    13 O     0.002339  0.042517  0.035504
 ----------------------------------------
 Mulliken charges used for AMS results%charges...

 dE(predicted):    -0.39943E-01, dE(actual):    -0.32937E-01, Trust radius:    0.400000, all in a.u.
 
----------------------------------------------------------------------
Geometry Convergence after Step   5       (Hartree/Angstrom,Angstrom)
----------------------------------------------------------------------
current energy                               -3.73432027 Hartree
energy change                      -0.03293666     0.00001300    F
constrained gradient max            0.11431714     0.00010000    F
constrained gradient rms            0.04218771     0.00006667    F
gradient max                        0.11431714
gradient rms                        0.04218771
cart. step max                      0.06524191     0.00100000    F
cart. step rms                      0.02269380     0.00066667    F
 
 
--------
Geometry
--------
Formula: H4NO7Pa
Atoms
  Index Symbol   x (angstrom)   y (angstrom)   z (angstrom)
      1     Pa    -0.26604022     0.46357062    -0.01343636       adf.R=2.200
      2      O     1.30816392     1.13920742    -1.24219276       adf.R=1.517
      3      H    -1.37564761     0.61279455    -2.58129786       adf.R=1.350
      4      O    -1.47031057    -0.28735066     1.17950443       adf.R=1.517
      5      O    -1.59144560     0.26591695    -1.69431846       adf.R=1.517
      6      O     0.81567660    -1.77591985    -0.21728812       adf.R=1.517
      7      H     1.47656202    -1.96255550    -0.85369086       adf.R=1.350
      8      H     0.48372524    -2.57906450     0.12497765       adf.R=1.350
      9      H     1.43054651     1.58961530    -2.07124845       adf.R=1.350
     10      O     0.39007659     2.27933782     1.66315100       adf.R=1.517
     11      O    -1.10950729     2.90739855     0.26110830       adf.R=1.517
     12      N    -0.40096671     3.17906430     1.23593543       adf.R=1.608
     13      O    -0.39513900     4.28166421     1.72525433       adf.R=1.517
 
Total System Charge             0.00000
Bonding info available!
 
 *** GO1_GOStep6 ***

 SOLVATION
-------------------------------------------

  The Delley construction of COSMO surface surface is calculated

       Division Level for Surface Triangles (NDIV)                  3
       Final Division Level for Triangles (NFDIV)                   1
       Radius of the Solvent (RSOL)                           1.93000 angstr
  Dielectric Constant (EPSL)                                 78.39000

       COSMO equation is solved iteratively-               conjugate-gradient

       Maximun of Iterations for Charges (NCIX)                  1000
       Criterion for Charge convergence (CCNV)                1.0E-08

  COSMO charges included variationally in SCF

       COSMO included at every SCF cycle

  Geometry-dependent empirical factor                         0.00000

  C-Matrix calculated in cspmtx

  In cspmtx, C-Matrix calculated using fitted potential

-------------------------------------------



 -------------------------------------------
  COSMO surface
  Area             =          572.915
  Volume           =          948.852
  Number of Points =         1546
 -------------------------------------------



 ======================
 RI Hartree-Fock Scheme
 ======================
  
 Fit Set Quality     : GOOD
 Threshold Quality   : GOOD
 Integration Quality : GOOD
 Response Quality    : DEFAULT
 Is Range Separated  :  F
 
 RIHartreeFock Dependency: number of modified vectors:           4
 cosmo_calcen: 0.5 (esolb+esolc) (Hartrees) =   -0.065564

 Solvation energy (screening term,uncorrected) =    -41.142217 kcal/mol

 Solvation energy (dispersion and cavitation terms) =      1.071306 kcal/mol
 Solvation Energy Contributions (Hartrees)
          esola   esolb+esolc
     0.06556429   -0.13112858
 esol last cycle   -0.06556429
  
 Hartree-Fock exchange energy:   -531.852836557335     
 cosmo_calcen: 0.5 (esolb+esolc) (Hartrees) =   -0.065564

 Solvation energy (screening term,uncorrected) =    -41.142216 kcal/mol

 Solvation energy (dispersion and cavitation terms) =      1.071306 kcal/mol
 Solvation Energy Contributions (Hartrees)
          esola   esolb+esolc
     0.06556429   -0.13112858
 esol last cycle   -0.06556429

 Energy gradients wrt nuclear displacements
 ==========================================

     Atom      Cartesian (a.u./angstrom)
                 X         Y         Z
 ----------------------------------------
     1 Pa   -0.012550 -0.000983 -0.000000
     2 O     0.014830  0.015654 -0.031640
     3 H     0.006141  0.007926 -0.015953
     4 O     0.001557 -0.000686 -0.001512
     5 O    -0.005960 -0.011905  0.019237
     6 O     0.021212 -0.074543 -0.016330
     7 H    -0.042747  0.015094  0.039952
     8 H     0.022098  0.056400 -0.022825
     9 H    -0.004414 -0.013025  0.026052
    10 O    -0.001697  0.028731 -0.001117
    11 O     0.042561  0.040546  0.055638
    12 N    -0.047792 -0.028280 -0.027868
    13 O     0.006762 -0.034930 -0.023632
 ----------------------------------------
 Mulliken charges used for AMS results%charges...

 dE(predicted):    -0.10084E-01, dE(actual):    -0.54244E-02, Trust radius:    0.400000, all in a.u.
 
----------------------------------------------------------------------
Geometry Convergence after Step   6       (Hartree/Angstrom,Angstrom)
----------------------------------------------------------------------
current energy                               -3.73974469 Hartree
energy change                      -0.00542442     0.00001300    F
constrained gradient max            0.07453498     0.00010000    F
constrained gradient rms            0.02800194     0.00006667    F
gradient max                        0.07453498
gradient rms                        0.02800194
cart. step max                      0.05868657     0.00100000    F
cart. step rms                      0.02802055     0.00066667    F
 
 
--------
Geometry
--------
Formula: H4NO7Pa
Atoms
  Index Symbol   x (angstrom)   y (angstrom)   z (angstrom)
      1     Pa    -0.26007998     0.48384491    -0.00510418       adf.R=2.200
      2      O     1.29603646     1.12651139    -1.23621851       adf.R=1.517
      3      H    -1.40474097     0.65724769    -2.57096453       adf.R=1.350
      4      O    -1.50012923    -0.24411782     1.22564302       adf.R=1.517
      5      O    -1.58305186     0.30016844    -1.68963069       adf.R=1.517
      6      O     0.83029289    -1.75205810    -0.21888305       adf.R=1.517
      7      H     1.53415207    -1.98991929    -0.89226480       adf.R=1.350
      8      H     0.48628616    -2.63775107     0.12828151       adf.R=1.350
      9      H     1.45507939     1.55089080    -2.06671647       adf.R=1.350
     10      O     0.39021779     2.26303447     1.65384685       adf.R=1.517
     11      O    -1.15203917     2.86914614     0.20918001       adf.R=1.517
     12      N    -0.37256751     3.20425248     1.24265733       adf.R=1.608
     13      O    -0.42376214     4.28242915     1.73663180       adf.R=1.517
 
Total System Charge             0.00000
Bonding info available!
 
 *** GO1_GOStep7 ***

 SOLVATION
-------------------------------------------

  The Delley construction of COSMO surface surface is calculated

       Division Level for Surface Triangles (NDIV)                  3
       Final Division Level for Triangles (NFDIV)                   1
       Radius of the Solvent (RSOL)                           1.93000 angstr
  Dielectric Constant (EPSL)                                 78.39000

       COSMO equation is solved iteratively-               conjugate-gradient

       Maximun of Iterations for Charges (NCIX)                  1000
       Criterion for Charge convergence (CCNV)                1.0E-08

  COSMO charges included variationally in SCF

       COSMO included at every SCF cycle

  Geometry-dependent empirical factor                         0.00000

  C-Matrix calculated in cspmtx

  In cspmtx, C-Matrix calculated using fitted potential

-------------------------------------------



 -------------------------------------------
  COSMO surface
  Area             =          579.321
  Volume           =          959.294
  Number of Points =         1554
 -------------------------------------------



 ======================
 RI Hartree-Fock Scheme
 ======================
  
 Fit Set Quality     : GOOD
 Threshold Quality   : GOOD
 Integration Quality : GOOD
 Response Quality    : DEFAULT
 Is Range Separated  :  F
 
 RIHartreeFock Dependency: number of modified vectors:           4
 cosmo_calcen: 0.5 (esolb+esolc) (Hartrees) =   -0.066361

 Solvation energy (screening term,uncorrected) =    -41.642005 kcal/mol

 Solvation energy (dispersion and cavitation terms) =      1.083286 kcal/mol
 Solvation Energy Contributions (Hartrees)
          esola   esolb+esolc
     0.06636075   -0.13272150
 esol last cycle   -0.06636075
  
 Hartree-Fock exchange energy:   -531.696809995186     
 cosmo_calcen: 0.5 (esolb+esolc) (Hartrees) =   -0.066361

 Solvation energy (screening term,uncorrected) =    -41.642023 kcal/mol

 Solvation energy (dispersion and cavitation terms) =      1.083286 kcal/mol
 Solvation Energy Contributions (Hartrees)
          esola   esolb+esolc
     0.06636078   -0.13272156
 esol last cycle   -0.06636078

 Energy gradients wrt nuclear displacements
 ==========================================

     Atom      Cartesian (a.u./angstrom)
                 X         Y         Z
 ----------------------------------------
     1 Pa    0.025726  0.018389 -0.025774
     2 O     0.008427  0.015114 -0.034285
     3 H     0.002064  0.002755 -0.002466
     4 O    -0.024101 -0.013452  0.024157
     5 O    -0.001871 -0.005837  0.004314
     6 O    -0.016227  0.075208  0.014952
     7 H     0.040179 -0.015657 -0.038307
     8 H    -0.021943 -0.062963  0.022826
     9 H    -0.007681 -0.017314  0.035573
    10 O     0.003428 -0.015654  0.002637
    11 O    -0.043457 -0.005700 -0.045501
    12 N     0.038789  0.058310  0.057927
    13 O    -0.003333 -0.033199 -0.016054
 ----------------------------------------
 Mulliken charges used for AMS results%charges...

 dE(predicted):    -0.12939E-01, dE(actual):     0.14049E-02, Trust radius:    0.100000, all in a.u.
 
----------------------------------------------------------------------
Geometry Convergence after Step   7       (Hartree/Angstrom,Angstrom)
----------------------------------------------------------------------
current energy                               -3.73833977 Hartree
energy change                       0.00140492     0.00001300    F
constrained gradient max            0.07521408     0.00010000    F
constrained gradient rms            0.02974507     0.00006667    F
gradient max                        0.07521408
gradient rms                        0.02974507
cart. step max                      0.02222826     0.00100000    F
cart. step rms                      0.00771000     0.00066667    F
 
 
--------
Geometry
--------
Formula: H4NO7Pa
Atoms
  Index Symbol   x (angstrom)   y (angstrom)   z (angstrom)
      1     Pa    -0.26105080     0.47737479    -0.00469283       adf.R=2.200
      2      O     1.29479686     1.12254094    -1.23363600       adf.R=1.517
      3      H    -1.40471604     0.64925572    -2.57314439       adf.R=1.350
      4      O    -1.49020669    -0.25038453     1.21082673       adf.R=1.517
      5      O    -1.58043246     0.29609234    -1.69135493       adf.R=1.517
      6      O     0.82568524    -1.75572181    -0.21549753       adf.R=1.517
      7      H     1.51757484    -1.98486452    -0.87803124       adf.R=1.350
      8      H     0.48929223    -2.61552281     0.12474777       adf.R=1.350
      9      H     1.45700957     1.55833095    -2.08153695       adf.R=1.350
     10      O     0.38718009     2.26229290     1.65434119       adf.R=1.517
     11      O    -1.14102273     2.86657882     0.22189252       adf.R=1.517
     12      N    -0.37575333     3.19784725     1.23963880       adf.R=1.608
     13      O    -0.42266289     4.28985916     1.74290512       adf.R=1.517
 
Total System Charge             0.00000
Bonding info available!
 
 *** GO1_GOStep8 ***

 SOLVATION
-------------------------------------------

  The Delley construction of COSMO surface surface is calculated

       Division Level for Surface Triangles (NDIV)                  3
       Final Division Level for Triangles (NFDIV)                   1
       Radius of the Solvent (RSOL)                           1.93000 angstr
  Dielectric Constant (EPSL)                                 78.39000

       COSMO equation is solved iteratively-               conjugate-gradient

       Maximun of Iterations for Charges (NCIX)                  1000
       Criterion for Charge convergence (CCNV)                1.0E-08

  COSMO charges included variationally in SCF

       COSMO included at every SCF cycle

  Geometry-dependent empirical factor                         0.00000

  C-Matrix calculated in cspmtx

  In cspmtx, C-Matrix calculated using fitted potential

-------------------------------------------



 -------------------------------------------
  COSMO surface
  Area             =          578.309
  Volume           =          956.883
  Number of Points =         1557
 -------------------------------------------



 ======================
 RI Hartree-Fock Scheme
 ======================
  
 Fit Set Quality     : GOOD
 Threshold Quality   : GOOD
 Integration Quality : GOOD
 Response Quality    : DEFAULT
 Is Range Separated  :  F
 
 RIHartreeFock Dependency: number of modified vectors:           4
 cosmo_calcen: 0.5 (esolb+esolc) (Hartrees) =   -0.065789

 Solvation energy (screening term,uncorrected) =    -41.283254 kcal/mol

 Solvation energy (dispersion and cavitation terms) =      1.081393 kcal/mol
 Solvation Energy Contributions (Hartrees)
          esola   esolb+esolc
     0.06578905   -0.13157809
 esol last cycle   -0.06578905
  
 Hartree-Fock exchange energy:   -531.724630828677     
 cosmo_calcen: 0.5 (esolb+esolc) (Hartrees) =   -0.065789

 Solvation energy (screening term,uncorrected) =    -41.283288 kcal/mol

 Solvation energy (dispersion and cavitation terms) =      1.081393 kcal/mol
 Solvation Energy Contributions (Hartrees)
          esola   esolb+esolc
     0.06578910   -0.13157820
 esol last cycle   -0.06578910

 Energy gradients wrt nuclear displacements
 ==========================================

     Atom      Cartesian (a.u./angstrom)
                 X         Y         Z
 ----------------------------------------
     1 Pa    0.012261  0.012247 -0.015075
     2 O     0.000770 -0.003358  0.001777
     3 H     0.001460  0.001715 -0.000258
     4 O    -0.011805 -0.006820  0.011962
     5 O     0.000043 -0.004721  0.003409
     6 O    -0.012228  0.035573  0.011751
     7 H     0.021196 -0.009768 -0.020479
     8 H    -0.007894 -0.027617  0.008517
     9 H    -0.000426  0.001109 -0.000454
    10 O    -0.000519 -0.012948 -0.001080
    11 O    -0.030266 -0.007099 -0.032027
    12 N     0.030723  0.025544  0.033409
    13 O    -0.003315 -0.003858 -0.001451
 ----------------------------------------
 Mulliken charges used for AMS results%charges...

 dE(predicted):    -0.49307E-02, dE(actual):    -0.47120E-02, Trust radius:    0.200000, all in a.u.
 
----------------------------------------------------------------------
Geometry Convergence after Step   8       (Hartree/Angstrom,Angstrom)
----------------------------------------------------------------------
current energy                               -3.74305173 Hartree
energy change                      -0.00471196     0.00001300    F
constrained gradient max            0.03558306     0.00010000    F
constrained gradient rms            0.01538284     0.00006667    F
gradient max                        0.03558306
gradient rms                        0.01538284
cart. step max                      0.02929209     0.00100000    F
cart. step rms                      0.01148299     0.00066667    F
 
 
--------
Geometry
--------
Formula: H4NO7Pa
Atoms
  Index Symbol   x (angstrom)   y (angstrom)   z (angstrom)
      1     Pa    -0.27579909     0.47110304    -0.01873108       adf.R=2.200
      2      O     1.30273153     1.13603138    -1.24355325       adf.R=1.517
      3      H    -1.39361681     0.65009368    -2.57035182       adf.R=1.350
      4      O    -1.48710925    -0.26019779     1.20988952       adf.R=1.517
      5      O    -1.58269247     0.29449261    -1.69452828       adf.R=1.517
      6      O     0.83072518    -1.76443512    -0.21533479       adf.R=1.517
      7      H     1.49032595    -1.97314883    -0.85430154       adf.R=1.350
      8      H     0.49737011    -2.59798179     0.11928007       adf.R=1.350
      9      H     1.44647605     1.55829983    -2.07545257       adf.R=1.350
     10      O     0.39066147     2.26224800     1.64673721       adf.R=1.517
     11      O    -1.11173063     2.85878000     0.24569817       adf.R=1.517
     12      N    -0.39054449     3.18795529     1.23198637       adf.R=1.608
     13      O    -0.42110367     4.29043889     1.73512026       adf.R=1.517
 
Total System Charge             0.00000
Bonding info available!
 
 *** GO1_GOStep9 ***

 SOLVATION
-------------------------------------------

  The Delley construction of COSMO surface surface is calculated

       Division Level for Surface Triangles (NDIV)                  3
       Final Division Level for Triangles (NFDIV)                   1
       Radius of the Solvent (RSOL)                           1.93000 angstr
  Dielectric Constant (EPSL)                                 78.39000

       COSMO equation is solved iteratively-               conjugate-gradient

       Maximun of Iterations for Charges (NCIX)                  1000
       Criterion for Charge convergence (CCNV)                1.0E-08

  COSMO charges included variationally in SCF

       COSMO included at every SCF cycle

  Geometry-dependent empirical factor                         0.00000

  C-Matrix calculated in cspmtx

  In cspmtx, C-Matrix calculated using fitted potential

-------------------------------------------



 -------------------------------------------
  COSMO surface
  Area             =          576.654
  Volume           =          952.899
  Number of Points =         1556
 -------------------------------------------



 ======================
 RI Hartree-Fock Scheme
 ======================
  
 Fit Set Quality     : GOOD
 Threshold Quality   : GOOD
 Integration Quality : GOOD
 Response Quality    : DEFAULT
 Is Range Separated  :  F
 
 RIHartreeFock Dependency: number of modified vectors:           4
 cosmo_calcen: 0.5 (esolb+esolc) (Hartrees) =   -0.064545

 Solvation energy (screening term,uncorrected) =    -40.502440 kcal/mol

 Solvation energy (dispersion and cavitation terms) =      1.078297 kcal/mol
 Solvation Energy Contributions (Hartrees)
          esola   esolb+esolc
     0.06454474   -0.12908948
 esol last cycle   -0.06454474
  
 Hartree-Fock exchange energy:   -531.801761631134     
 cosmo_calcen: 0.5 (esolb+esolc) (Hartrees) =   -0.064545

 Solvation energy (screening term,uncorrected) =    -40.502439 kcal/mol

 Solvation energy (dispersion and cavitation terms) =      1.078297 kcal/mol
 Solvation Energy Contributions (Hartrees)
          esola   esolb+esolc
     0.06454474   -0.12908948
 esol last cycle   -0.06454474

 Energy gradients wrt nuclear displacements
 ==========================================

     Atom      Cartesian (a.u./angstrom)
                 X         Y         Z
 ----------------------------------------
     1 Pa   -0.005545  0.010033 -0.019596
     2 O     0.015631  0.020578 -0.043505
     3 H     0.001626  0.000453  0.004544
     4 O    -0.010393 -0.006726  0.012145
     5 O     0.004352 -0.003368  0.005017
     6 O     0.029500 -0.023398 -0.026259
     7 H    -0.035660  0.008632  0.033990
     8 H     0.007722  0.011855 -0.007514
     9 H    -0.007362 -0.019124  0.039586
    10 O    -0.003615 -0.005540 -0.008508
    11 O     0.018275 -0.000969  0.017768
    12 N    -0.016507  0.005077 -0.007882
    13 O     0.001978  0.002500  0.000214
 ----------------------------------------
 Mulliken charges used for AMS results%charges...

 dE(predicted):    -0.27291E-02, dE(actual):    -0.91367E-05, Trust radius:    0.050000, all in a.u.
 
----------------------------------------------------------------------
Geometry Convergence after Step   9       (Hartree/Angstrom,Angstrom)
----------------------------------------------------------------------
current energy                               -3.74306086 Hartree
energy change                      -0.00000914     0.00001300    T
constrained gradient max            0.04351528     0.00010000    F
constrained gradient rms            0.01713096     0.00006667    F
gradient max                        0.04351528
gradient rms                        0.01713096
cart. step max                      0.01040426     0.00100000    F
cart. step rms                      0.00354566     0.00066667    F
 
 
--------
Geometry
--------
Formula: H4NO7Pa
Atoms
  Index Symbol   x (angstrom)   y (angstrom)   z (angstrom)
      1     Pa    -0.27450859     0.47062612    -0.01463179       adf.R=2.200
      2      O     1.29945970     1.13418405    -1.23800640       adf.R=1.517
      3      H    -1.39676995     0.64967198    -2.57412659       adf.R=1.350
      4      O    -1.48468238    -0.25535721     1.20629169       adf.R=1.517
      5      O    -1.58348091     0.29527342    -1.69662252       adf.R=1.517
      6      O     0.82863867    -1.76373819    -0.21186360       adf.R=1.517
      7      H     1.50073021    -1.97697687    -0.86105624       adf.R=1.350
      8      H     0.49227232    -2.59916788     0.12473537       adf.R=1.350
      9      H     1.44649579     1.56208795    -2.08245733       adf.R=1.350
     10      O     0.39087321     2.26385377     1.65176393       adf.R=1.517
     11      O    -1.11320779     2.85831858     0.24291283       adf.R=1.517
     12      N    -0.38965001     3.18637265     1.23349318       adf.R=1.608
     13      O    -0.42047639     4.28853085     1.73602575       adf.R=1.517
 
Total System Charge             0.00000
Bonding info available!
 
 *** GO1_GOStep10 ***

 SOLVATION
-------------------------------------------

  The Delley construction of COSMO surface surface is calculated

       Division Level for Surface Triangles (NDIV)                  3
       Final Division Level for Triangles (NFDIV)                   1
       Radius of the Solvent (RSOL)                           1.93000 angstr
  Dielectric Constant (EPSL)                                 78.39000

       COSMO equation is solved iteratively-               conjugate-gradient

       Maximun of Iterations for Charges (NCIX)                  1000
       Criterion for Charge convergence (CCNV)                1.0E-08

  COSMO charges included variationally in SCF

       COSMO included at every SCF cycle

  Geometry-dependent empirical factor                         0.00000

  C-Matrix calculated in cspmtx

  In cspmtx, C-Matrix calculated using fitted potential

-------------------------------------------



 -------------------------------------------
  COSMO surface
  Area             =          575.605
  Volume           =          951.444
  Number of Points =         1551
 -------------------------------------------



 ======================
 RI Hartree-Fock Scheme
 ======================
  
 Fit Set Quality     : GOOD
 Threshold Quality   : GOOD
 Integration Quality : GOOD
 Response Quality    : DEFAULT
 Is Range Separated  :  F
 
 RIHartreeFock Dependency: number of modified vectors:           4
 cosmo_calcen: 0.5 (esolb+esolc) (Hartrees) =   -0.064519

 Solvation energy (screening term,uncorrected) =    -40.486254 kcal/mol

 Solvation energy (dispersion and cavitation terms) =      1.076337 kcal/mol
 Solvation Energy Contributions (Hartrees)
          esola   esolb+esolc
     0.06451895   -0.12903789
 esol last cycle   -0.06451895
  
 Hartree-Fock exchange energy:   -531.787664598455     
 cosmo_calcen: 0.5 (esolb+esolc) (Hartrees) =   -0.064519

 Solvation energy (screening term,uncorrected) =    -40.486254 kcal/mol

 Solvation energy (dispersion and cavitation terms) =      1.076337 kcal/mol
 Solvation Energy Contributions (Hartrees)
          esola   esolb+esolc
     0.06451895   -0.12903789
 esol last cycle   -0.06451895

 Energy gradients wrt nuclear displacements
 ==========================================

     Atom      Cartesian (a.u./angstrom)
                 X         Y         Z
 ----------------------------------------
     1 Pa   -0.008188  0.007312 -0.012060
     2 O     0.009314  0.007099 -0.017115
     3 H     0.001569  0.000857  0.002954
     4 O    -0.004460 -0.003098  0.006042
     5 O     0.003190 -0.003737  0.004596
     6 O     0.008065 -0.011358 -0.005848
     7 H    -0.011296  0.002023  0.010461
     8 H     0.004660  0.006801 -0.004481
     9 H    -0.002874 -0.006326  0.014329
    10 O    -0.002756 -0.003556 -0.006548
    11 O     0.012814 -0.001085  0.011578
    12 N    -0.012789  0.004305 -0.004205
    13 O     0.002752  0.000762  0.000296
 ----------------------------------------
 Mulliken charges used for AMS results%charges...

 dE(predicted):    -0.15711E-02, dE(actual):    -0.13891E-02, Trust radius:    0.100000, all in a.u.
 
----------------------------------------------------------------------
Geometry Convergence after Step  10       (Hartree/Angstrom,Angstrom)
----------------------------------------------------------------------
current energy                               -3.74444997 Hartree
energy change                      -0.00138910     0.00001300    F
constrained gradient max            0.01712563     0.00010000    F
constrained gradient rms            0.00751193     0.00006667    F
gradient max                        0.01712563
gradient rms                        0.00751193
cart. step max                      0.01714571     0.00100000    F
cart. step rms                      0.00676664     0.00066667    F
 
 
--------
Geometry
--------
Formula: H4NO7Pa
Atoms
  Index Symbol   x (angstrom)   y (angstrom)   z (angstrom)
      1     Pa    -0.26539209     0.46756252    -0.00612728       adf.R=2.200
      2      O     1.29589127     1.13101213    -1.23024185       adf.R=1.517
      3      H    -1.40515645     0.64864512    -2.58438691       adf.R=1.350
      4      O    -1.46753667    -0.25243926     1.19524475       adf.R=1.517
      5      O    -1.58742027     0.30061216    -1.70135226       adf.R=1.517
      6      O     0.82918628    -1.76121429    -0.21333876       adf.R=1.517
      7      H     1.49822519    -1.97919722    -0.86065342       adf.R=1.350
      8      H     0.48509836    -2.59424900     0.13371809       adf.R=1.350
      9      H     1.44486528     1.56515585    -2.08164052       adf.R=1.350
     10      O     0.39929702     2.26769700     1.66278346       adf.R=1.517
     11      O    -1.12234107     2.85994994     0.23263956       adf.R=1.517
     12      N    -0.38025394     3.17994040     1.23631773       adf.R=1.608
     13      O    -0.42876903     4.28020386     1.73349569       adf.R=1.517
 
Total System Charge             0.00000
Bonding info available!
 
 *** GO1_GOStep11 ***

 SOLVATION
-------------------------------------------

  The Delley construction of COSMO surface surface is calculated

       Division Level for Surface Triangles (NDIV)                  3
       Final Division Level for Triangles (NFDIV)                   1
       Radius of the Solvent (RSOL)                           1.93000 angstr
  Dielectric Constant (EPSL)                                 78.39000

       COSMO equation is solved iteratively-               conjugate-gradient

       Maximun of Iterations for Charges (NCIX)                  1000
       Criterion for Charge convergence (CCNV)                1.0E-08

  COSMO charges included variationally in SCF

       COSMO included at every SCF cycle

  Geometry-dependent empirical factor                         0.00000

  C-Matrix calculated in cspmtx

  In cspmtx, C-Matrix calculated using fitted potential

-------------------------------------------



 -------------------------------------------
  COSMO surface
  Area             =          574.496
  Volume           =          950.237
  Number of Points =         1547
 -------------------------------------------



 ======================
 RI Hartree-Fock Scheme
 ======================
  
 Fit Set Quality     : GOOD
 Threshold Quality   : GOOD
 Integration Quality : GOOD
 Response Quality    : DEFAULT
 Is Range Separated  :  F
 
 RIHartreeFock Dependency: number of modified vectors:           4
 cosmo_calcen: 0.5 (esolb+esolc) (Hartrees) =   -0.064287

 Solvation energy (screening term,uncorrected) =    -40.340894 kcal/mol

 Solvation energy (dispersion and cavitation terms) =      1.074264 kcal/mol
 Solvation Energy Contributions (Hartrees)
          esola   esolb+esolc
     0.06428730   -0.12857460
 esol last cycle   -0.06428730
  
 Hartree-Fock exchange energy:   -531.786520862653     
 cosmo_calcen: 0.5 (esolb+esolc) (Hartrees) =   -0.064287

 Solvation energy (screening term,uncorrected) =    -40.340915 kcal/mol

 Solvation energy (dispersion and cavitation terms) =      1.074264 kcal/mol
 Solvation Energy Contributions (Hartrees)
          esola   esolb+esolc
     0.06428733   -0.12857467
 esol last cycle   -0.06428733

 Energy gradients wrt nuclear displacements
 ==========================================

     Atom      Cartesian (a.u./angstrom)
                 X         Y         Z
 ----------------------------------------
     1 Pa   -0.014288 -0.002447  0.009451
     2 O     0.002757 -0.002011  0.000569
     3 H     0.001471  0.001847 -0.001539
     4 O     0.011378  0.006369 -0.010199
     5 O    -0.000913 -0.004514  0.002833
     6 O     0.014195 -0.005026 -0.012260
     7 H    -0.014144  0.004065  0.013164
     8 H     0.000710  0.000242 -0.000719
     9 H    -0.000171  0.001268 -0.000859
    10 O     0.000289 -0.000211  0.000905
    11 O    -0.010656  0.005397 -0.009339
    12 N     0.010686  0.001171  0.012894
    13 O    -0.001313 -0.006151 -0.004901
 ----------------------------------------
 Mulliken charges used for AMS results%charges...

 dE(predicted):    -0.77113E-03, dE(actual):    -0.22506E-03, Trust radius:    0.100000, all in a.u.
 
----------------------------------------------------------------------
Geometry Convergence after Step  11       (Hartree/Angstrom,Angstrom)
----------------------------------------------------------------------
current energy                               -3.74467503 Hartree
energy change                      -0.00022506     0.00001300    F
constrained gradient max            0.01428440     0.00010000    F
constrained gradient rms            0.00710601     0.00006667    F
gradient max                        0.01428440
gradient rms                        0.00710601
cart. step max                      0.01621652     0.00100000    F
cart. step rms                      0.00634972     0.00066667    F
 
 
--------
Geometry
--------
Formula: H4NO7Pa
Atoms
  Index Symbol   x (angstrom)   y (angstrom)   z (angstrom)
      1     Pa    -0.26003559     0.46916846    -0.00567512       adf.R=2.200
      2      O     1.29193325     1.12996946    -1.22515372       adf.R=1.517
      3      H    -1.41030092     0.65526914    -2.58538151       adf.R=1.350
      4      O    -1.48375319    -0.26080737     1.20436838       adf.R=1.517
      5      O    -1.58756366     0.31086890    -1.71003516       adf.R=1.517
      6      O     0.82694538    -1.76025143    -0.20813695       adf.R=1.517
      7      H     1.51439241    -1.98595261    -0.87284386       adf.R=1.350
      8      H     0.48653000    -2.59133982     0.13945823       adf.R=1.350
      9      H     1.44687362     1.55784256    -2.08687560       adf.R=1.350
     10      O     0.40180137     2.27388036     1.66431490       adf.R=1.517
     11      O    -1.12182467     2.85042466     0.23813144       adf.R=1.517
     12      N    -0.38174329     3.18054434     1.23121927       adf.R=1.608
     13      O    -0.42756081     4.28406254     1.73306796       adf.R=1.517
 
Total System Charge             0.00000
Bonding info available!
 
 *** GO1_GOStep12 ***

 SOLVATION
-------------------------------------------

  The Delley construction of COSMO surface surface is calculated

       Division Level for Surface Triangles (NDIV)                  3
       Final Division Level for Triangles (NFDIV)                   1
       Radius of the Solvent (RSOL)                           1.93000 angstr
  Dielectric Constant (EPSL)                                 78.39000

       COSMO equation is solved iteratively-               conjugate-gradient

       Maximun of Iterations for Charges (NCIX)                  1000
       Criterion for Charge convergence (CCNV)                1.0E-08

  COSMO charges included variationally in SCF

       COSMO included at every SCF cycle

  Geometry-dependent empirical factor                         0.00000

  C-Matrix calculated in cspmtx

  In cspmtx, C-Matrix calculated using fitted potential

-------------------------------------------



 -------------------------------------------
  COSMO surface
  Area             =          575.704
  Volume           =          951.836
  Number of Points =         1553
 -------------------------------------------



 ======================
 RI Hartree-Fock Scheme
 ======================
  
 Fit Set Quality     : GOOD
 Threshold Quality   : GOOD
 Integration Quality : GOOD
 Response Quality    : DEFAULT
 Is Range Separated  :  F
 
 RIHartreeFock Dependency: number of modified vectors:           4
 cosmo_calcen: 0.5 (esolb+esolc) (Hartrees) =   -0.066538

 Solvation energy (screening term,uncorrected) =    -41.753128 kcal/mol

 Solvation energy (dispersion and cavitation terms) =      1.076522 kcal/mol
 Solvation Energy Contributions (Hartrees)
          esola   esolb+esolc
     0.06653784   -0.13307567
 esol last cycle   -0.06653784
  
 Hartree-Fock exchange energy:   -531.758058377691     
 cosmo_calcen: 0.5 (esolb+esolc) (Hartrees) =   -0.066538

 Solvation energy (screening term,uncorrected) =    -41.753114 kcal/mol

 Solvation energy (dispersion and cavitation terms) =      1.076522 kcal/mol
 Solvation Energy Contributions (Hartrees)
          esola   esolb+esolc
     0.06653782   -0.13307563
 esol last cycle   -0.06653782

 Energy gradients wrt nuclear displacements
 ==========================================

     Atom      Cartesian (a.u./angstrom)
                 X         Y         Z
 ----------------------------------------
     1 Pa    0.011724  0.011186 -0.007288
     2 O    -0.001559 -0.008580  0.013539
     3 H    -0.001991 -0.004477  0.014116
     4 O    -0.008582 -0.005484  0.009183
     5 O    -0.001818  0.001556 -0.018509
     6 O    -0.020835 -0.000254  0.021705
     7 H     0.019294 -0.006304 -0.019137
     8 H     0.002473  0.005224 -0.002372
     9 H     0.001587  0.006723 -0.011960
    10 O    -0.000251  0.002502  0.003110
    11 O    -0.005439  0.002290 -0.003152
    12 N     0.003992 -0.005719 -0.002406
    13 O     0.001405  0.001337  0.003171
 ----------------------------------------
 Mulliken charges used for AMS results%charges...

 dE(predicted):    -0.68911E-03, dE(actual):     0.85425E-04, Trust radius:    0.025000, all in a.u.
 
----------------------------------------------------------------------
Geometry Convergence after Step  12       (Hartree/Angstrom,Angstrom)
----------------------------------------------------------------------
current energy                               -3.74458960 Hartree
energy change                       0.00008543     0.00001300    F
constrained gradient max            0.02167969     0.00010000    F
constrained gradient rms            0.00930523     0.00006667    F
gradient max                        0.02167969
gradient rms                        0.00930523
cart. step max                      0.00577940     0.00100000    F
cart. step rms                      0.00184927     0.00066667    F
 
 
--------
Geometry
--------
Formula: H4NO7Pa
Atoms
  Index Symbol   x (angstrom)   y (angstrom)   z (angstrom)
      1     Pa    -0.25935824     0.46796409    -0.00582004       adf.R=2.200
      2      O     1.29245362     1.13126295    -1.22687047       adf.R=1.517
      3      H    -1.40868064     0.65710904    -2.58712524       adf.R=1.350
      4      O    -1.47890577    -0.25963956     1.20193783       adf.R=1.517
      5      O    -1.58657432     0.31040366    -1.70692743       adf.R=1.517
      6      O     0.82763554    -1.76073355    -0.20980399       adf.R=1.517
      7      H     1.50861301    -1.98485197    -0.86880782       adf.R=1.350
      8      H     0.48678363    -2.59305194     0.13879362       adf.R=1.350
      9      H     1.44464344     1.55787180    -2.08485793       adf.R=1.350
     10      O     0.40160539     2.27375259     1.66368897       adf.R=1.517
     11      O    -1.12104455     2.84880390     0.23911076       adf.R=1.517
     12      N    -0.38259406     3.18026194     1.23133058       adf.R=1.608
     13      O    -0.42888316     4.28452624     1.73180943       adf.R=1.517
 
Total System Charge             0.00000
Bonding info available!
 
 *** GO1_GOStep13 ***

 SOLVATION
-------------------------------------------

  The Delley construction of COSMO surface surface is calculated

       Division Level for Surface Triangles (NDIV)                  3
       Final Division Level for Triangles (NFDIV)                   1
       Radius of the Solvent (RSOL)                           1.93000 angstr
  Dielectric Constant (EPSL)                                 78.39000

       COSMO equation is solved iteratively-               conjugate-gradient

       Maximun of Iterations for Charges (NCIX)                  1000
       Criterion for Charge convergence (CCNV)                1.0E-08

  COSMO charges included variationally in SCF

       COSMO included at every SCF cycle

  Geometry-dependent empirical factor                         0.00000

  C-Matrix calculated in cspmtx

  In cspmtx, C-Matrix calculated using fitted potential

-------------------------------------------



 -------------------------------------------
  COSMO surface
  Area             =          575.178
  Volume           =          951.030
  Number of Points =         1550
 -------------------------------------------



 ======================
 RI Hartree-Fock Scheme
 ======================
  
 Fit Set Quality     : GOOD
 Threshold Quality   : GOOD
 Integration Quality : GOOD
 Response Quality    : DEFAULT
 Is Range Separated  :  F
 
 RIHartreeFock Dependency: number of modified vectors:           4
 cosmo_calcen: 0.5 (esolb+esolc) (Hartrees) =   -0.066188

 Solvation energy (screening term,uncorrected) =    -41.533481 kcal/mol

 Solvation energy (dispersion and cavitation terms) =      1.075538 kcal/mol
 Solvation Energy Contributions (Hartrees)
          esola   esolb+esolc
     0.06618781   -0.13237562
 esol last cycle   -0.06618781
  
 Hartree-Fock exchange energy:   -531.766505307974     
 cosmo_calcen: 0.5 (esolb+esolc) (Hartrees) =   -0.066188

 Solvation energy (screening term,uncorrected) =    -41.533487 kcal/mol

 Solvation energy (dispersion and cavitation terms) =      1.075538 kcal/mol
 Solvation Energy Contributions (Hartrees)
          esola   esolb+esolc
     0.06618782   -0.13237564
 esol last cycle   -0.06618782

 Energy gradients wrt nuclear displacements
 ==========================================

     Atom      Cartesian (a.u./angstrom)
                 X         Y         Z
 ----------------------------------------
     1 Pa    0.006387  0.008356 -0.004485
     2 O    -0.000219 -0.005214  0.006835
     3 H    -0.000093 -0.000802  0.004728
     4 O    -0.004341 -0.002935  0.005048
     5 O    -0.002608 -0.001999 -0.007724
     6 O    -0.009688 -0.000261  0.010814
     7 H     0.008802 -0.003184 -0.009038
     8 H     0.001601  0.002476 -0.001495
     9 H     0.000380  0.003448 -0.005337
    10 O    -0.000729  0.001942  0.001981
    11 O    -0.003650  0.001978 -0.001632
    12 N     0.002929 -0.005348 -0.002423
    13 O     0.001228  0.001543  0.002729
 ----------------------------------------
 Mulliken charges used for AMS results%charges...

 dE(predicted):    -0.36854E-03, dE(actual):    -0.37722E-03, Trust radius:    0.050000, all in a.u.
 
----------------------------------------------------------------------
Geometry Convergence after Step  13       (Hartree/Angstrom,Angstrom)
----------------------------------------------------------------------
current energy                               -3.74496682 Hartree
energy change                      -0.00037722     0.00001300    F
constrained gradient max            0.01078564     0.00010000    F
constrained gradient rms            0.00470999     0.00006667    F
gradient max                        0.01078564
gradient rms                        0.00470999
cart. step max                      0.00717502     0.00100000    F
cart. step rms                      0.00287514     0.00066667    F
 
 
--------
Geometry
--------
Formula: H4NO7Pa
Atoms
  Index Symbol   x (angstrom)   y (angstrom)   z (angstrom)
      1     Pa    -0.26270772     0.46529618    -0.00471841       adf.R=2.200
      2      O     1.29198136     1.13252030    -1.22950096       adf.R=1.517
      3      H    -1.40962827     0.65885622    -2.58662207       adf.R=1.350
      4      O    -1.47325260    -0.26451120     1.19825197       adf.R=1.517
      5      O    -1.58477537     0.31757868    -1.70779812       adf.R=1.517
      6      O     0.83133113    -1.76245738    -0.20992074       adf.R=1.517
      7      H     1.50423254    -1.98242005    -0.86231613       adf.R=1.350
      8      H     0.48637925    -2.59474470     0.14002867       adf.R=1.350
      9      H     1.44231827     1.55740818    -2.08358958       adf.R=1.350
     10      O     0.40281254     2.26874085     1.66098104       adf.R=1.517
     11      O    -1.11915031     2.84781119     0.24052906       adf.R=1.517
     12      N    -0.38226798     3.18343579     1.23217828       adf.R=1.608
     13      O    -0.43157894     4.28616513     1.72895526       adf.R=1.517
 
Total System Charge             0.00000
Bonding info available!
 
 *** GO1_GOStep14 ***

 SOLVATION
-------------------------------------------

  The Delley construction of COSMO surface surface is calculated

       Division Level for Surface Triangles (NDIV)                  3
       Final Division Level for Triangles (NFDIV)                   1
       Radius of the Solvent (RSOL)                           1.93000 angstr
  Dielectric Constant (EPSL)                                 78.39000

       COSMO equation is solved iteratively-               conjugate-gradient

       Maximun of Iterations for Charges (NCIX)                  1000
       Criterion for Charge convergence (CCNV)                1.0E-08

  COSMO charges included variationally in SCF

       COSMO included at every SCF cycle

  Geometry-dependent empirical factor                         0.00000

  C-Matrix calculated in cspmtx

  In cspmtx, C-Matrix calculated using fitted potential

-------------------------------------------



 -------------------------------------------
  COSMO surface
  Area             =          575.206
  Volume           =          950.791
  Number of Points =         1551
 -------------------------------------------



 ======================
 RI Hartree-Fock Scheme
 ======================
  
 Fit Set Quality     : GOOD
 Threshold Quality   : GOOD
 Integration Quality : GOOD
 Response Quality    : DEFAULT
 Is Range Separated  :  F
 
 RIHartreeFock Dependency: number of modified vectors:           4
 cosmo_calcen: 0.5 (esolb+esolc) (Hartrees) =   -0.064935

 Solvation energy (screening term,uncorrected) =    -40.747142 kcal/mol

 Solvation energy (dispersion and cavitation terms) =      1.075590 kcal/mol
 Solvation Energy Contributions (Hartrees)
          esola   esolb+esolc
     0.06493470   -0.12986939
 esol last cycle   -0.06493470
  
 Hartree-Fock exchange energy:   -531.778880358559     
 cosmo_calcen: 0.5 (esolb+esolc) (Hartrees) =   -0.064935

 Solvation energy (screening term,uncorrected) =    -40.747152 kcal/mol

 Solvation energy (dispersion and cavitation terms) =      1.075590 kcal/mol
 Solvation Energy Contributions (Hartrees)
          esola   esolb+esolc
     0.06493471   -0.12986943
 esol last cycle   -0.06493471

 Energy gradients wrt nuclear displacements
 ==========================================

     Atom      Cartesian (a.u./angstrom)
                 X         Y         Z
 ----------------------------------------
     1 Pa   -0.003521  0.002936  0.002680
     2 O     0.002433 -0.000829 -0.001687
     3 H    -0.001352 -0.003357  0.010968
     4 O     0.002581  0.000946 -0.001478
     5 O    -0.000186  0.000890 -0.012985
     6 O     0.006021 -0.002165 -0.004261
     7 H    -0.005091  0.001786  0.004391
     8 H    -0.000129 -0.000590  0.000158
     9 H    -0.000673 -0.000014  0.001655
    10 O     0.001677 -0.006122  0.000527
    11 O    -0.001862  0.000653 -0.000536
    12 N     0.001209  0.006313  0.001267
    13 O    -0.001108 -0.000448 -0.000699
 ----------------------------------------
 Mulliken charges used for AMS results%charges...

 dE(predicted):    -0.16778E-03, dE(actual):    -0.77053E-04, Trust radius:    0.050000, all in a.u.
 
----------------------------------------------------------------------
Geometry Convergence after Step  14       (Hartree/Angstrom,Angstrom)
----------------------------------------------------------------------
current energy                               -3.74504387 Hartree
energy change                      -0.00007705     0.00001300    F
constrained gradient max            0.01297748     0.00010000    F
constrained gradient rms            0.00375826     0.00006667    F
gradient max                        0.01297748
gradient rms                        0.00375826
cart. step max                      0.01052477     0.00100000    F
cart. step rms                      0.00329775     0.00066667    F
 
 
--------
Geometry
--------
Formula: H4NO7Pa
Atoms
  Index Symbol   x (angstrom)   y (angstrom)   z (angstrom)
      1     Pa    -0.25897432     0.46037867    -0.00546855       adf.R=2.200
      2      O     1.29003795     1.13162339    -1.22856089       adf.R=1.517
      3      H    -1.40606127     0.66658392    -2.58916132       adf.R=1.350
      4      O    -1.47392100    -0.26052996     1.19994726       adf.R=1.517
      5      O    -1.57877376     0.31657665    -1.69727335       adf.R=1.517
      6      O     0.83038318    -1.76338600    -0.21054975       adf.R=1.517
      7      H     1.50457944    -1.98466894    -0.86466820       adf.R=1.350
      8      H     0.48553975    -2.59648053     0.13686524       adf.R=1.350
      9      H     1.43826748     1.55640331    -2.08379780       adf.R=1.350
     10      O     0.39998199     2.27509411     1.66164067       adf.R=1.517
     11      O    -1.11861805     2.84403163     0.24074241       adf.R=1.517
     12      N    -0.38440257     3.18071791     1.23123002       adf.R=1.608
     13      O    -0.43234494     4.28733503     1.72551252       adf.R=1.517
 
Total System Charge             0.00000
Bonding info available!
 
 *** GO1_GOStep15 ***

 SOLVATION
-------------------------------------------

  The Delley construction of COSMO surface surface is calculated

       Division Level for Surface Triangles (NDIV)                  3
       Final Division Level for Triangles (NFDIV)                   1
       Radius of the Solvent (RSOL)                           1.93000 angstr
  Dielectric Constant (EPSL)                                 78.39000

       COSMO equation is solved iteratively-               conjugate-gradient

       Maximun of Iterations for Charges (NCIX)                  1000
       Criterion for Charge convergence (CCNV)                1.0E-08

  COSMO charges included variationally in SCF

       COSMO included at every SCF cycle

  Geometry-dependent empirical factor                         0.00000

  C-Matrix calculated in cspmtx

  In cspmtx, C-Matrix calculated using fitted potential

-------------------------------------------



 -------------------------------------------
  COSMO surface
  Area             =          575.219
  Volume           =          951.053
  Number of Points =         1551
 -------------------------------------------



 ======================
 RI Hartree-Fock Scheme
 ======================
  
 Fit Set Quality     : GOOD
 Threshold Quality   : GOOD
 Integration Quality : GOOD
 Response Quality    : DEFAULT
 Is Range Separated  :  F
 
 RIHartreeFock Dependency: number of modified vectors:           4
 cosmo_calcen: 0.5 (esolb+esolc) (Hartrees) =   -0.065879

 Solvation energy (screening term,uncorrected) =    -41.339641 kcal/mol

 Solvation energy (dispersion and cavitation terms) =      1.075616 kcal/mol
 Solvation Energy Contributions (Hartrees)
          esola   esolb+esolc
     0.06587890   -0.13175781
 esol last cycle   -0.06587890
  
 Hartree-Fock exchange energy:   -531.779182323997     
 cosmo_calcen: 0.5 (esolb+esolc) (Hartrees) =   -0.065879

 Solvation energy (screening term,uncorrected) =    -41.339675 kcal/mol

 Solvation energy (dispersion and cavitation terms) =      1.075616 kcal/mol
 Solvation Energy Contributions (Hartrees)
          esola   esolb+esolc
     0.06587896   -0.13175792
 esol last cycle   -0.06587896

[...]
     5     O      -0.043097   0.038421  -0.013860
     6     O      -0.026036   0.048857   0.004595
     7     H       0.082019   0.052863   0.126563
     8     H      -0.067324   0.048997  -0.038755
     9     H       0.733300   0.056154   0.147518
    10     O      -0.001564  -0.010804  -0.007457
    11     O       0.000974  -0.003464  -0.008899
    12     N      -0.000495  -0.009144  -0.007687
    13     O       0.001103  -0.010922  -0.002682
 
 Mode:    21      Frequency (cm-1):      291.7443     Intensity (km/mol):       37.4348
 Index  Atom      ---- Displacements (x/y/z) ----
     1    Pa      -0.013686   0.036599   0.004585
     2     O      -0.053202  -0.023487   0.009119
     3     H       0.226836  -0.191563  -0.037728
     4     O       0.019964  -0.014717  -0.009531
     5     O      -0.007628   0.018703   0.008393
     6     O       0.188955  -0.444087  -0.069721
     7     H       0.141869  -0.504605  -0.097943
     8     H       0.286843  -0.420429   0.086377
     9     H       0.319825   0.055018   0.098655
    10     O      -0.008550  -0.008233  -0.012072
    11     O      -0.007815   0.007821  -0.002696
    12     N      -0.003189   0.004576  -0.000038
    13     O       0.007303  -0.001763   0.007200
 
 Mode:    22      Frequency (cm-1):      318.3267     Intensity (km/mol):      202.7562
 Index  Atom      ---- Displacements (x/y/z) ----
     1    Pa       0.001674   0.002303   0.000492
     2     O      -0.063682  -0.023235  -0.017019
     3     H      -0.322084   0.741077   0.229385
     4     O      -0.012272   0.013575   0.000644
     5     O       0.034424  -0.074005  -0.026394
     6     O       0.000228  -0.001252   0.001805
     7     H      -0.052405   0.014210  -0.063801
     8     H       0.029505  -0.008726   0.014342
     9     H       0.494124   0.116750   0.125510
    10     O       0.001858   0.001477   0.008673
    11     O       0.003349  -0.003911   0.003256
    12     N       0.002565  -0.001131   0.004174
    13     O       0.000277   0.000677  -0.000970
 
 Mode:    23      Frequency (cm-1):      354.4494     Intensity (km/mol):      118.8132
 Index  Atom      ---- Displacements (x/y/z) ----
     1    Pa       0.001422  -0.000971  -0.000696
     2     O      -0.002152   0.006910   0.006670
     3     H       0.067020  -0.112889  -0.033935
     4     O      -0.004709  -0.005508  -0.008393
     5     O      -0.003398   0.011168   0.002380
     6     O       0.024203   0.011785   0.051799
     7     H      -0.657661  -0.012142  -0.719448
     8     H       0.070909   0.017501   0.117146
     9     H       0.089866   0.000035   0.020256
    10     O      -0.001820  -0.000919  -0.001136
    11     O      -0.001323  -0.000168  -0.001548
    12     N      -0.001989  -0.001072  -0.001229
    13     O      -0.002516  -0.001525   0.000166
 
 Mode:    24      Frequency (cm-1):      424.6203     Intensity (km/mol):      248.0738
 Index  Atom      ---- Displacements (x/y/z) ----
     1    Pa      -0.005747  -0.001320  -0.006055
     2     O      -0.019220   0.008933  -0.037057
     3     H      -0.712608  -0.499543  -0.201666
     4     O      -0.031153  -0.017150   0.011425
     5     O       0.160069   0.056086   0.130926
     6     O      -0.005832   0.008553  -0.000842
     7     H       0.033656   0.008545   0.044592
     8     H      -0.008222   0.009447  -0.002000
     9     H       0.373904   0.079327   0.055893
    10     O      -0.000153  -0.002815  -0.002288
    11     O      -0.001431   0.000180  -0.003370
    12     N      -0.000329  -0.005441  -0.003786
    13     O       0.000752  -0.004607  -0.001516
 
 Mode:    25      Frequency (cm-1):      455.8808     Intensity (km/mol):       55.6246
 Index  Atom      ---- Displacements (x/y/z) ----
     1    Pa       0.000580   0.000800  -0.001251
     2     O       0.013984   0.020800  -0.014235
     3     H       0.034591  -0.002722   0.011724
     4     O       0.008665  -0.008958  -0.006885
     5     O       0.000189  -0.000298   0.007986
     6     O      -0.072506  -0.041800   0.050140
     7     H       0.066902   0.682234  -0.056107
     8     H       0.526028  -0.420422  -0.246465
     9     H       0.019248   0.001162  -0.019818
    10     O       0.000170   0.000455  -0.000766
    11     O      -0.000052   0.000276   0.000355
    12     N       0.000098   0.000995   0.000394
    13     O       0.000335   0.000699   0.000699
 
 Mode:    26      Frequency (cm-1):      492.1736     Intensity (km/mol):       78.3182
 Index  Atom      ---- Displacements (x/y/z) ----
     1    Pa       0.021724   0.004460   0.007072
     2     O      -0.166275  -0.074475   0.132160
     3     H      -0.745070  -0.328068  -0.418604
     4     O       0.019565   0.007986  -0.022714
     5     O      -0.101237   0.029861  -0.194637
     6     O      -0.011987  -0.001756   0.006622
     7     H       0.013666   0.090948   0.001883
     8     H       0.061029  -0.051312  -0.037926
     9     H      -0.143998  -0.075604   0.133814
    10     O       0.000303  -0.000892  -0.000238
    11     O       0.000018  -0.000900   0.000824
    12     N      -0.002159  -0.001157  -0.002353
    13     O      -0.000971  -0.000301  -0.001890
 
 Mode:    27      Frequency (cm-1):      569.4821     Intensity (km/mol):      359.6281
 Index  Atom      ---- Displacements (x/y/z) ----
     1    Pa      -0.009916  -0.011801   0.035728
     2     O       0.244344   0.128411  -0.252520
     3     H      -0.503373  -0.174655  -0.338072
     4     O       0.013882   0.013175  -0.024354
     5     O      -0.131325   0.012481  -0.213565
     6     O       0.017007  -0.018666  -0.008834
     7     H       0.012515  -0.086187   0.009429
     8     H      -0.045742   0.018848   0.020027
     9     H       0.564254   0.182942  -0.178038
    10     O      -0.008296   0.000637  -0.009681
    11     O       0.011299  -0.004402   0.007045
    12     N      -0.003207   0.025316   0.008492
    13     O      -0.002609   0.020377   0.009064
 
 Mode:    28      Frequency (cm-1):      708.6245     Intensity (km/mol):        0.1088
 Index  Atom      ---- Displacements (x/y/z) ----
     1    Pa       0.001703  -0.000250   0.001466
     2     O       0.001173  -0.000693   0.000211
     3     H       0.008411  -0.004163   0.003393
     4     O      -0.000162  -0.001156   0.002780
     5     O       0.003974  -0.004581   0.002582
     6     O       0.000558  -0.002899  -0.000830
     7     H       0.000245   0.000097  -0.002170
     8     H       0.000669  -0.003448  -0.002128
     9     H      -0.000585   0.014125   0.004782
    10     O       0.162624  -0.513805  -0.082965
    11     O       0.096889   0.427201   0.324547
    12     N       0.161052  -0.037334   0.142543
    13     O      -0.431201   0.131818  -0.392534
 
 Mode:    29      Frequency (cm-1):      744.3919     Intensity (km/mol):      111.1717
 Index  Atom      ---- Displacements (x/y/z) ----
     1    Pa       0.012152   0.009092  -0.012237
     2     O      -0.016191  -0.007491   0.018224
     3     H       0.038762   0.013435   0.011471
     4     O      -0.162454  -0.095776   0.159818
     5     O      -0.003085  -0.007756  -0.001947
     6     O      -0.002883   0.004340   0.001652
     7     H      -0.003070   0.015201  -0.002463
     8     H       0.006637  -0.002344  -0.005072
     9     H      -0.056187  -0.011244   0.010243
    10     O      -0.315973  -0.200015  -0.439777
    11     O       0.372608  -0.426789   0.182508
    12     N      -0.024478   0.269035   0.110862
    13     O      -0.025240   0.365672   0.158335
 
 Mode:    30      Frequency (cm-1):      796.3664     Intensity (km/mol):      474.6811
 Index  Atom      ---- Displacements (x/y/z) ----
     1    Pa       0.045562   0.021884  -0.032596
     2     O       0.054696   0.024042  -0.037064
     3     H       0.004249   0.037975  -0.085249
     4     O      -0.618155  -0.366877   0.601510
     5     O      -0.095792  -0.006867  -0.108582
     6     O       0.010453  -0.034810  -0.001094
     7     H       0.016684   0.017298  -0.017134
     8     H       0.034486  -0.053122  -0.013239
     9     H      -0.055692   0.009332  -0.067461
    10     O       0.094954   0.060333   0.126793
    11     O      -0.106795   0.124228  -0.057825
    12     N      -0.009472  -0.039782  -0.001372
    13     O       0.010836  -0.082043  -0.040168
 
 Mode:    31      Frequency (cm-1):      817.5641     Intensity (km/mol):       26.7873
 Index  Atom      ---- Displacements (x/y/z) ----
     1    Pa       0.001357   0.000651  -0.001045
     2     O       0.001724  -0.000840  -0.001314
     3     H      -0.001917   0.000654  -0.002500
     4     O      -0.011011  -0.004290   0.010969
     5     O      -0.001374   0.000567  -0.002238
     6     O       0.000201  -0.000676  -0.000000
     7     H       0.001397   0.000812   0.000720
     8     H       0.001345  -0.001438  -0.000468
     9     H      -0.001921   0.001610  -0.001411
    10     O      -0.179728  -0.081583   0.170639
    11     O      -0.184743  -0.087362   0.164211
    12     N       0.614046   0.291152  -0.573615
    13     O      -0.182184  -0.090211   0.175243
 
 Mode:    32      Frequency (cm-1):     1052.6853     Intensity (km/mol):      102.8124
 Index  Atom      ---- Displacements (x/y/z) ----
     1    Pa       0.000585   0.000667  -0.000186
     2     O       0.006577   0.001258  -0.005447
     3     H      -0.003770   0.006777  -0.003920
     4     O      -0.013059  -0.009606   0.012209
     5     O      -0.004625  -0.002254  -0.006510
     6     O       0.001283  -0.002940  -0.000126
     7     H       0.001984  -0.000619  -0.000694
     8     H       0.001110  -0.002839   0.000902
     9     H       0.000733   0.004921  -0.006827
    10     O      -0.379701   0.414996  -0.195334
    11     O       0.332367   0.207468   0.462644
    12     N       0.006406  -0.207911  -0.101244
    13     O       0.043094  -0.437050  -0.175454
 
 Mode:    33      Frequency (cm-1):     1244.0475     Intensity (km/mol):      699.6627
 Index  Atom      ---- Displacements (x/y/z) ----
     1    Pa      -0.002258   0.001081  -0.001964
     2     O       0.001822  -0.001400   0.000608
     3     H       0.010023   0.003687   0.004910
     4     O       0.000973  -0.000765   0.002249
     5     O       0.002596  -0.004641   0.001303
     6     O       0.000420  -0.001915  -0.000587
     7     H       0.000140   0.001789  -0.001704
     8     H      -0.001669  -0.000647  -0.000477
     9     H      -0.004384   0.017223   0.005612
    10     O       0.258241  -0.174611   0.188735
    11     O       0.228250   0.021049   0.255988
    12     N      -0.615074   0.177436  -0.571122
    13     O       0.078540  -0.010063   0.079552
 
 Mode:    34      Frequency (cm-1):     1491.4159     Intensity (km/mol):     1348.7590
 Index  Atom      ---- Displacements (x/y/z) ----
     1    Pa       0.000378   0.003346   0.001435
     2     O       0.008626   0.001461  -0.007318
     3     H      -0.000027   0.006632  -0.006602
     4     O      -0.012247  -0.009720   0.010932
     5     O      -0.006305  -0.001389  -0.007355
     6     O       0.002119  -0.005512  -0.000884
     7     H       0.005639   0.015641  -0.004974
     8     H      -0.011333   0.004413   0.010053
     9     H       0.002004   0.008562  -0.011274
    10     O      -0.038000   0.076261  -0.001373
    11     O       0.021264   0.057303   0.051989
    12     N       0.074214  -0.766035  -0.310418
    13     O      -0.045648   0.501684   0.205845
 
 Mode:    35      Frequency (cm-1):     1595.8567     Intensity (km/mol):      136.8585
 Index  Atom      ---- Displacements (x/y/z) ----
     1    Pa       0.000080  -0.000089   0.000008
     2     O       0.000603  -0.000383  -0.000492
     3     H       0.000340   0.000257  -0.000153
     4     O      -0.000505  -0.000885   0.000517
     5     O      -0.000156  -0.000096  -0.000366
     6     O      -0.022707   0.067625   0.016960
     7     H      -0.122921  -0.686826   0.122905
     8     H       0.466710  -0.349909  -0.390401
     9     H       0.001943   0.001017   0.000152
    10     O      -0.000001   0.000217   0.000173
    11     O      -0.000043   0.000486   0.000226
    12     N      -0.000071  -0.001534  -0.000792
    13     O      -0.000094   0.000917   0.000410
 
 Mode:    36      Frequency (cm-1):     3754.7134     Intensity (km/mol):      177.8362
 Index  Atom      ---- Displacements (x/y/z) ----
     1    Pa      -0.000021   0.000039   0.000005
     2     O       0.000103   0.000304  -0.001161
     3     H      -0.000961  -0.002859   0.007491
     4     O       0.000173   0.000047  -0.000159
     5     O       0.000172   0.000141  -0.000339
     6     O      -0.016307   0.044493   0.013080
     7     H       0.535786  -0.138380  -0.468501
     8     H      -0.274854  -0.573362   0.258935
     9     H      -0.003482  -0.006693   0.020355
    10     O      -0.000005  -0.000063  -0.000033
    11     O       0.000021  -0.000068  -0.000014
    12     N      -0.000020   0.000083   0.000023
    13     O       0.000005  -0.000041  -0.000017
 
 Mode:    37      Frequency (cm-1):     3783.0761     Intensity (km/mol):      287.7751
 Index  Atom      ---- Displacements (x/y/z) ----
     1    Pa      -0.000037  -0.000013   0.000024
     2     O      -0.010147  -0.019051   0.058438
     3     H      -0.011337  -0.029263   0.077567
     4     O       0.000205   0.000101  -0.000138
     5     O       0.000983   0.001881  -0.004671
     6     O      -0.000273   0.001088   0.000168
     7     H       0.010298  -0.002629  -0.008858
     8     H      -0.006613  -0.013483   0.006207
     9     H       0.161860   0.304768  -0.932498
    10     O       0.000034  -0.000121  -0.000072
    11     O       0.000018  -0.000126  -0.000063
    12     N      -0.000022   0.000235   0.000090
    13     O       0.000011  -0.000131  -0.000057
 
 Mode:    38      Frequency (cm-1):     3811.2493     Intensity (km/mol):      213.1732
 Index  Atom      ---- Displacements (x/y/z) ----
     1    Pa       0.000011   0.000017  -0.000036
     2     O       0.001198   0.001718  -0.004979
     3     H      -0.131155  -0.346625   0.922846
     4     O      -0.000283  -0.000179   0.000266
     5     O       0.007952   0.021614  -0.057922
     6     O      -0.000221  -0.000785   0.000239
     7     H      -0.000817  -0.000028   0.001014
     8     H       0.005114   0.010992  -0.004841
     9     H      -0.013371  -0.025549   0.078017
    10     O       0.000018   0.000095   0.000066
    11     O       0.000003   0.000090   0.000054
    12     N       0.000008  -0.000153  -0.000080
    13     O      -0.000002   0.000096   0.000044
 
 Mode:    39      Frequency (cm-1):     3835.2961     Intensity (km/mol):      281.9771
 Index  Atom      ---- Displacements (x/y/z) ----
     1    Pa      -0.000003  -0.000006   0.000005
     2     O      -0.000032  -0.000057   0.000165
     3     H       0.001156   0.003044  -0.007930
     4     O      -0.000022   0.000035   0.000007
     5     O      -0.000071  -0.000174   0.000480
     6     O      -0.048446  -0.029083   0.043611
     7     H       0.501002  -0.161271  -0.438569
     8     H       0.269071   0.623256  -0.254204
     9     H       0.000500   0.001055  -0.002841
    10     O       0.000005  -0.000002  -0.000005
    11     O      -0.000004   0.000003   0.000003
    12     N      -0.000003  -0.000003  -0.000002
    13     O      -0.000003  -0.000004   0.000005

PES point character: Geometry corresponds to a local minimum on the PES.




 ============================
 Statistical Thermal Analysis  ***  ideal gas assumed  ***
 ============================
  
 Pressure:                  1.000000 atm.
 Temperature:             298.150000 K



 Moments of Inertia [amu*bohr^2] and principal axis
 ==================================================

         942.8287       2735.5201       2765.6171
 ------------------------------------------------
          -0.1104         -0.3625         -0.9254
           0.9195         -0.3907          0.0433
           0.3772          0.8462         -0.3764


 The rotational contribution to the molecular entropy includes
 a term, dependent on the symmetry number sigma. The results 
 reported below were computed using sigma = 1, determined from
 the point group symmetry of the input geometry (NOSYM). 
 If this is not the correct symmetry, try symmetrizing the molecule before
 running the calculation (note: linear molecules should be aligned along one
 of the Cartesian axes).
 Contributions from frequencies below 20 1/cm are not included in vibrational sums.
 Their contributions, if any, are reported separately.


     Temp                                                        Transl      Rotat     Vibrat     Total
     ----                                                        ------      -----     ------     -----

     298.15   Entropy (cal/mol-K):                               43.545     30.346     50.377    124.268
              Nuclear Internal Energy (kcal/mol):                 0.889      0.889     48.228     50.005
              Constant Volume Heat Capacity (cal/mol-K):          2.981      2.981     40.044     46.005
          (c) Constant Volume Heat Capacity (cal/mol-K):          2.981      2.981     35.467     41.428

       Summary of energy terms
                                                   hartree              eV         kcal/mol           kJ/mol
                                      --------------------     -----------       ----------      -----------
      Energy from Engine:               -3.745562388468275       -101.9219         -2350.38         -9833.97
      Nuclear Internal Energy:           0.079688789433268          2.1684            50.01           209.22
  (c) Nuclear Internal Energy:           0.077333306902626          2.1043            48.53           203.04
      Internal Energy U:                -3.665873599035007        -99.7535         -2300.37         -9624.75
      pV/n = RT:                         0.000944186013486          0.0257             0.59             2.48
      Enthalpy H:                       -3.664929413021521        -99.7278         -2299.78         -9622.27
      -T*S:                             -0.059043741274079         -1.6067           -37.05          -155.02
  (c) -T*S:                             -0.057043534411703         -1.5522           -35.80          -149.77
      Gibbs free energy:                -3.723973154295600       -101.3345         -2336.83         -9777.29
 
 
 
  (c) The properties marked with this symbol have been corrected using 'low vibrational frequency free rotor
      interpolation corrections'. For those terms all positive frequencies are used (also ones below 20 1/cm),
      but the contribution to the partition function of small vibrational frequencies is modified as described
      in the following paper:
      S. Grimme, 'Supramolecular Binding Thermodynamics by Dispersion-Corrected Density Functional Theory'
      (Chem. Eur. J. 2012, 18, 9955-9964)
      Configuration: Dampener Frequency          :   100.000 1/cm
                     Dampener Alpha              :     4.000
                     Averaging Moment of Inertia : 1.000E-44 kg m2

--------------
Atomic charges
--------------
  Index   Atom    Charge
      1     Pa    2.5450
      2      O   -0.6455
      3      H    0.1467
      4      O   -0.8119
      5      O   -0.7448
      6      O   -0.4000
      7      H    0.2411
      8      H    0.2428
      9      H    0.1226
     10      O   -0.5865
     11      O   -0.5875
     12      N    0.9530
     13      O   -0.4750


Dipole moment vector    (Debye):     8.15230399   -9.32187753   -6.12840711
              magnitude (Debye):    13.81719345


Final PES point is a local minimum. Geometry optimization successful!


AMS application finished. Exiting.
NORMAL TERMINATION
     Total cpu time:  109429.68
  Total system time:    3094.44
 Total elapsed time:  112579.74
