

 Parallel Execution: Process Information
 ==============================================================================
 Rank   Node Name                              NodeID   MyNodeRank  NodeMaster
    0   u-5-4.local                               0          0          0
    1   u-5-4.local                               0          1         -1
    2   u-5-4.local                               0          2         -1
    3   u-5-4.local                               0          3         -1
    4   u-5-4.local                               1          0          1
    5   u-5-4.local                               1          1         -1
    6   u-5-4.local                               1          2         -1
    7   u-5-4.local                               1          3         -1
 ==============================================================================


May use up to 31144MB of RAM as shared memory on node 0
May use up to 31250MB of RAM as shared memory on node 1

 *******************************************************************************
 *                                                                             *
 *  --------------------------------                                           *
 *   Amsterdam Modeling Suite (AMS)              2022.103                      *
 *  --------------------------------                                           *
 *                                               r104886 2022-06-17            *
 *                                                                             *
 *                                                                             *
 *                              =================                              *
 *                              |               |                              *
 *                              |     A M S     |                              *
 *                              |               |                              *
 *                              =================                              *
 *                                                                             *
 *                                                                             *
 *   Online information and documentation:  https://www.scm.com/support/       *
 *   E-mail:  support@scm.com   info@scm.com                                   *
 *                                                                             *
 *   Scientific publications using AMS results must be properly referenced     *
 *   See the User Manuals (or the web site) for recommended citations          *
 *   The terms and conditions of the End User License Agreement apply to       *
 *   the use of AMS, https://www.scm.com/license-terms/                        *
 *                                                                             *
 **********************  x86_64_linux_intel / intelmpi  ************************
 
 Licensed to: Dr. Val?rie Vallet / Laboratoire PhLAM UMR 8523 / Villeneuve d'Ascq Cedex / FRANCE 2023-02-21 11:49:39
 SCM User ID: u10325
  
 AMS 2022.103  RunTime: Mar01-2023 07:07:54  ShM Nodes: 2  Procs: 8

 AMS jobname: pa_oh4_c2o4.SR.b3lyp.tz2p.opt-freq-B21-solvation
 AMS jobid  : 1226519440

 Start   directory: /home/shaaban/ams/PhD/oxalate/pa_oh4_c2o4/solvation/B21/
 Results directory: /home/shaaban/ams/PhD/oxalate/pa_oh4_c2o4/solvation/B21/pa_oh4_c2o4.SR.b3lyp.tz2p.opt-freq-B21-solvation.results/
 Scratch directory: /state/partition1/shaaban/929856.phlam-s-sakura/amstmp_pa_oh4_c2o4.SR.b3lyp.tz2p.opt-freq-B21-solvation_kid0.1226519440/


 Communication costs MPI_COMM_WORLD:      1.628 usec per message,   0.0056 usec per 8-byte item
 Communication costs for intra-node:      0.859 usec per message,   0.0033 usec per 8-byte item

 RNG seed: -771158180 -709319032 1212599109 1037545206 -801349072 1732018231 200373288 840181655



                      ************************************************************************
                      *  ADF 2022.103  RunTime: Mar01-2023 07:07:54  ShM Nodes: 2  Procs: 8  *
                      ************************************************************************
  
       ***************************
       *  GEOMETRY OPTIMIZATION  *
       ***************************

Optimization Method                    Quasi Newton
Optimization Coordinates               Delocalized Coordinates
Optimize lattice                       F
 
 ------------------------------------------------------
 Convergence criteria (Hartree,Angstrom)
 ------------------------------------------------------
 Maximum gradient               0.000100000000
 Maximum rms gradient           0.000066666667
 Maximum step allowed           0.001000000000
 Maximum rms step allowed       0.000666666667
 Maximum energy change allowe   0.000015000000
 Maximum stress energy allowe   0.000500000000
 
Initial model Hessian                  Automatic Hessian
 
------------------------------------
Quasi-Newton Optimizer Parameters
------------------------------------
Hessian Update Method                  BFGS
Maximum number of steps                  250
First GDIIS cycle                          0
Maximum GDIIS vectors                      0
Trust radius (bohr)                        0.200000
Trust radius varies                        T
Constraints converged at all steps         T
Use projector                              T
 
 Rigid motions settings for: old optimizer
 Atomic rotations (x,y,z):     T T T
 Atomic translations (x,y,z):  T T T
 Tolerance:                   1.000000000000000E-006
 
--------
Geometry
--------
Formula: C2H4O8Pa
Atoms
  Index Symbol   x (angstrom)   y (angstrom)   z (angstrom)
      1     Pa     0.55273701    -0.19944955    -0.44251980       adf.R=2.200
      2      O     0.97206746     1.36127252    -1.85607503       adf.R=1.517
      3      H     1.67453625     1.52580118    -2.48971280       adf.R=1.350
      4      O    -0.84963125     1.13338430     0.52617461       adf.R=1.517
      5      H    -1.03151182     2.04885474     0.29819246       adf.R=1.350
      6      O    -0.75520016    -1.22198304    -1.83089146       adf.R=1.517
      7      H    -1.21807562    -2.04738881    -1.66281057       adf.R=1.350
      8      O     0.14597002    -1.76205651     0.97415923       adf.R=1.517
      9      H     0.51049232    -1.99587825     1.83140821       adf.R=1.350
     10      O     2.32773699     0.39099563     0.86568532       adf.R=1.517
     11      O     2.48063928    -1.21677328    -1.11658317       adf.R=1.517
     12      C     3.54652871    -0.07345440     0.70745620       adf.R=1.700
     13      C     3.64421460    -1.05674889    -0.52768447       adf.R=1.700
     14      O     4.50466979     0.18661322     1.39628786       adf.R=1.517
     15      O     4.68684613    -1.57288164    -0.85401756       adf.R=1.517
 
Total System Charge            -1.00000
Bonding info available!
 
 
----------------
ADF Engine Input
----------------
 
 Basis
 Type TZ2P
 Core None
 End
 XC
 Hybrid B3LYP
 End
 Solvation
 Surf Delley
 Solv name=Water cav0=0.0 cav1=0.0067639
 Charged method=CONJ
 C-Mat POT
 SCF VAR ALL
 CSMRSP
 End
 NumericalQuality Good
 

 Title: *** (NO TITLE) ***

 Using automatic Hessian for delocalized coordinates.
 *** GO1_GOStep1 ***

 SOLVATION
-------------------------------------------

  The Delley construction of COSMO surface surface is calculated

       Division Level for Surface Triangles (NDIV)                  3
       Final Division Level for Triangles (NFDIV)                   1
       Radius of the Solvent (RSOL)                           1.93000 angstr
  Dielectric Constant (EPSL)                                 78.39000

       COSMO equation is solved iteratively-               conjugate-gradient

       Maximun of Iterations for Charges (NCIX)                  1000
       Criterion for Charge convergence (CCNV)                1.0E-08

  COSMO charges included variationally in SCF

       COSMO included at every SCF cycle

  Geometry-dependent empirical factor                         0.00000

  C-Matrix calculated in cspmtx

  In cspmtx, C-Matrix calculated using fitted potential

-------------------------------------------



 -------------------------------------------
  COSMO surface
  Area             =          635.649
  Volume           =         1088.520
  Number of Points =         1738
 -------------------------------------------



 ======================
 RI Hartree-Fock Scheme
 ======================
  
 Fit Set Quality     : GOOD
 Threshold Quality   : GOOD
 Integration Quality : GOOD
 Response Quality    : DEFAULT
 Is Range Separated  :  F
 
 RIHartreeFock Dependency: number of modified vectors:           5
 cosmo_calcen: 0.5 (esolb+esolc) (Hartrees) =   -0.106904

 Solvation energy (screening term,uncorrected) =    -67.083274 kcal/mol

 Solvation energy (dispersion and cavitation terms) =      1.188614 kcal/mol
 Solvation Energy Contributions (Hartrees)
          esola   esolb+esolc
     0.10690399   -0.21380798
 esol last cycle   -0.10690399
  
 Hartree-Fock exchange energy:   -544.105783922381     
 cosmo_calcen: 0.5 (esolb+esolc) (Hartrees) =   -0.106904

 Solvation energy (screening term,uncorrected) =    -67.083271 kcal/mol

 Solvation energy (dispersion and cavitation terms) =      1.188614 kcal/mol
 Solvation Energy Contributions (Hartrees)
          esola   esolb+esolc
     0.10690399   -0.21380797
 esol last cycle   -0.10690399

 Energy gradients wrt nuclear displacements
 ==========================================

     Atom      Cartesian (a.u./angstrom)
                 X         Y         Z
 ----------------------------------------
     1 Pa    0.022922 -0.003326  0.004231
     2 O     0.005960  0.007667 -0.009579
     3 H    -0.005663 -0.001831  0.005626
     4 O    -0.003508  0.008504 -0.002467
     5 H     0.002157 -0.006818  0.001408
     6 O    -0.005623 -0.006980  0.001331
     7 H     0.004054  0.005806 -0.000401
     8 O     0.000218 -0.007608  0.010648
     9 H    -0.002453  0.002323 -0.007318
    10 O    -0.025956  0.001102 -0.006050
    11 O    -0.026119  0.005629 -0.003368
    12 C     0.027400  0.002808  0.013374
    13 C     0.028924 -0.010261 -0.003299
    14 O    -0.010788 -0.002475 -0.006762
    15 O    -0.011526  0.005460  0.002623
 ----------------------------------------
 Mulliken charges used for AMS results%charges...
 
----------------------------------------------------------------------
Geometry Convergence after Step   1       (Hartree/Angstrom,Angstrom)
----------------------------------------------------------------------
current energy                               -4.76090324 Hartree
energy change                      -4.76090324     0.00001500    F
constrained gradient max            0.02892233     0.00010000    F
constrained gradient rms            0.01052484     0.00006667    F
gradient max                        0.02892233
gradient rms                        0.01052484
cart. step max                      0.01333246     0.00100000    F
cart. step rms                      0.00438665     0.00066667    F
 
 
--------
Geometry
--------
Formula: C2H4O8Pa
Atoms
  Index Symbol   x (angstrom)   y (angstrom)   z (angstrom)
      1     Pa     0.54944183    -0.19911993    -0.44319350       adf.R=2.200
      2      O     0.97224120     1.35581725    -1.85671840       adf.R=1.517
      3      H     1.67724893     1.52034374    -2.49387489       adf.R=1.350
      4      O    -0.85154117     1.12878955     0.53261257       adf.R=1.517
      5      H    -1.03775988     2.04843264     0.30932495       adf.R=1.350
      6      O    -0.75465862    -1.21724949    -1.83765927       adf.R=1.517
      7      H    -1.22156131    -2.04590693    -1.67614303       adf.R=1.350
      8      O     0.14785718    -1.75712898     0.97503061       adf.R=1.517
      9      H     0.51314837    -1.99093046     1.83659501       adf.R=1.350
     10      O     2.33300354     0.39212719     0.86528931       adf.R=1.517
     11      O     2.48514494    -1.21971411    -1.11395033       adf.R=1.517
     12      C     3.54287882    -0.07220566     0.70333140       adf.R=1.700
     13      C     3.63934173    -1.05649204    -0.52500355       adf.R=1.700
     14      O     4.50842864     0.18794533     1.39227523       adf.R=1.517
     15      O     4.68880553    -1.57440088    -0.84884709       adf.R=1.517
 
Total System Charge            -1.00000
Bonding info available!
 
 *** GO1_GOStep2 ***

 SOLVATION
-------------------------------------------

  The Delley construction of COSMO surface surface is calculated

       Division Level for Surface Triangles (NDIV)                  3
       Final Division Level for Triangles (NFDIV)                   1
       Radius of the Solvent (RSOL)                           1.93000 angstr
  Dielectric Constant (EPSL)                                 78.39000

       COSMO equation is solved iteratively-               conjugate-gradient

       Maximun of Iterations for Charges (NCIX)                  1000
       Criterion for Charge convergence (CCNV)                1.0E-08

  COSMO charges included variationally in SCF

       COSMO included at every SCF cycle

  Geometry-dependent empirical factor                         0.00000

  C-Matrix calculated in cspmtx

  In cspmtx, C-Matrix calculated using fitted potential

-------------------------------------------



 -------------------------------------------
  COSMO surface
  Area             =          635.657
  Volume           =         1088.449
  Number of Points =         1740
 -------------------------------------------



 ======================
 RI Hartree-Fock Scheme
 ======================
  
 Fit Set Quality     : GOOD
 Threshold Quality   : GOOD
 Integration Quality : GOOD
 Response Quality    : DEFAULT
 Is Range Separated  :  F
 
 RIHartreeFock Dependency: number of modified vectors:           5
 cosmo_calcen: 0.5 (esolb+esolc) (Hartrees) =   -0.108139

 Solvation energy (screening term,uncorrected) =    -67.858306 kcal/mol

 Solvation energy (dispersion and cavitation terms) =      1.188629 kcal/mol
 Solvation Energy Contributions (Hartrees)
          esola   esolb+esolc
     0.10813908   -0.21627817
 esol last cycle   -0.10813908
  
 Hartree-Fock exchange energy:   -544.099138146462     
 cosmo_calcen: 0.5 (esolb+esolc) (Hartrees) =   -0.108139

 Solvation energy (screening term,uncorrected) =    -67.858314 kcal/mol

 Solvation energy (dispersion and cavitation terms) =      1.188629 kcal/mol
 Solvation Energy Contributions (Hartrees)
          esola   esolb+esolc
     0.10813910   -0.21627819
 esol last cycle   -0.10813910

 Energy gradients wrt nuclear displacements
 ==========================================

     Atom      Cartesian (a.u./angstrom)
                 X         Y         Z
 ----------------------------------------
     1 Pa    0.022561 -0.003091  0.004152
     2 O     0.000066  0.005813 -0.004355
     3 H     0.000045 -0.000574  0.000570
     4 O    -0.002500  0.001906 -0.000508
     5 H     0.000792 -0.000172 -0.000143
     6 O    -0.002600 -0.001179 -0.000309
     7 H     0.000741 -0.000032  0.000649
     8 O    -0.002704 -0.005235  0.003708
     9 H     0.000535  0.000493 -0.000497
    10 O    -0.016703 -0.001864 -0.006158
    11 O    -0.016956  0.006108  0.000073
    12 C     0.009693  0.002154  0.004702
    13 C     0.010122 -0.004786 -0.001251
    14 O    -0.001601 -0.000179 -0.000084
    15 O    -0.001489  0.000638 -0.000549
 ----------------------------------------
 Mulliken charges used for AMS results%charges...

 dE(predicted):    -0.45318E-03, dE(actual):    -0.69246E-03, Trust radius:    0.200000, all in a.u.
 
----------------------------------------------------------------------
Geometry Convergence after Step   2       (Hartree/Angstrom,Angstrom)
----------------------------------------------------------------------
current energy                               -4.76159570 Hartree
energy change                      -0.00069246     0.00001500    F
constrained gradient max            0.02256363     0.00010000    F
constrained gradient rms            0.00588185     0.00006667    F
gradient max                        0.02256363
gradient rms                        0.00588185
cart. step max                      0.02702537     0.00100000    F
cart. step rms                      0.00906793     0.00066667    F
 
 
--------
Geometry
--------
Formula: C2H4O8Pa
Atoms
  Index Symbol   x (angstrom)   y (angstrom)   z (angstrom)
      1     Pa     0.54265151    -0.19840279    -0.44454982       adf.R=2.200
      2      O     0.97469882     1.34274577    -1.85787640       adf.R=1.517
      3      H     1.67970481     1.50629570    -2.49884151       adf.R=1.350
      4      O    -0.85344533     1.12010491     0.54581895       adf.R=1.517
      5      H    -1.04879009     2.04229430     0.33251367       adf.R=1.350
      6      O    -0.75213047    -1.20865305    -1.85061735       adf.R=1.517
      7      H    -1.22578055    -2.03833869    -1.70316840       adf.R=1.350
      8      O     0.15396969    -1.74565419     0.97733656       adf.R=1.517
      9      H     0.51724737    -1.97774363     1.84279734       adf.R=1.350
     10      O     2.34258734     0.39862179     0.86581967       adf.R=1.517
     11      O     2.49272498    -1.22925575    -1.11050298       adf.R=1.517
     12      C     3.53693057    -0.07053348     0.69629360       adf.R=1.700
     13      C     3.63135547    -1.05559089    -0.52017431       adf.R=1.700
     14      O     4.51209525     0.18798221     1.37939244       adf.R=1.517
     15      O     4.68820035    -1.57356499    -0.83517243       adf.R=1.517
 
Total System Charge            -1.00000
Bonding info available!
 
 *** GO1_GOStep3 ***

 SOLVATION
-------------------------------------------

  The Delley construction of COSMO surface surface is calculated

       Division Level for Surface Triangles (NDIV)                  3
       Final Division Level for Triangles (NFDIV)                   1
       Radius of the Solvent (RSOL)                           1.93000 angstr
  Dielectric Constant (EPSL)                                 78.39000

       COSMO equation is solved iteratively-               conjugate-gradient

       Maximun of Iterations for Charges (NCIX)                  1000
       Criterion for Charge convergence (CCNV)                1.0E-08

  COSMO charges included variationally in SCF

       COSMO included at every SCF cycle

  Geometry-dependent empirical factor                         0.00000

  C-Matrix calculated in cspmtx

  In cspmtx, C-Matrix calculated using fitted potential

-------------------------------------------



 -------------------------------------------
  COSMO surface
  Area             =          637.657
  Volume           =         1091.458
  Number of Points =         1740
 -------------------------------------------



 ======================
 RI Hartree-Fock Scheme
 ======================
  
 Fit Set Quality     : GOOD
 Threshold Quality   : GOOD
 Integration Quality : GOOD
 Response Quality    : DEFAULT
 Is Range Separated  :  F
 
 RIHartreeFock Dependency: number of modified vectors:           5
 cosmo_calcen: 0.5 (esolb+esolc) (Hartrees) =   -0.110122

 Solvation energy (screening term,uncorrected) =    -69.102330 kcal/mol

 Solvation energy (dispersion and cavitation terms) =      1.192369 kcal/mol
 Solvation Energy Contributions (Hartrees)
          esola   esolb+esolc
     0.11012156   -0.22024312
 esol last cycle   -0.11012156
  
 Hartree-Fock exchange energy:   -544.109143205341     
 cosmo_calcen: 0.5 (esolb+esolc) (Hartrees) =   -0.110122

 Solvation energy (screening term,uncorrected) =    -69.102333 kcal/mol

 Solvation energy (dispersion and cavitation terms) =      1.192369 kcal/mol
 Solvation Energy Contributions (Hartrees)
          esola   esolb+esolc
     0.11012157   -0.22024313
 esol last cycle   -0.11012157

 Energy gradients wrt nuclear displacements
 ==========================================

     Atom      Cartesian (a.u./angstrom)
                 X         Y         Z
 ----------------------------------------
     1 Pa    0.018645 -0.002123  0.003393
     2 O    -0.003622  0.003065 -0.000462
     3 H     0.003190 -0.000115 -0.002013
     4 O    -0.001751 -0.002105  0.000697
     5 H     0.000076  0.003279 -0.000877
     6 O    -0.000743  0.002278 -0.001343
     7 H    -0.001013 -0.003077  0.001046
     8 O    -0.003935 -0.002406 -0.000970
     9 H     0.002280 -0.000291  0.003074
    10 O     0.001338 -0.006058 -0.005168
    11 O     0.000882  0.005515  0.005575
    12 C    -0.008225  0.002483 -0.000727
    13 C    -0.008307 -0.000234 -0.002342
    14 O     0.000446  0.000217  0.001021
    15 O     0.000739 -0.000429 -0.000903
 ----------------------------------------
 Mulliken charges used for AMS results%charges...

 dE(predicted):    -0.45091E-03, dE(actual):    -0.55206E-03, Trust radius:    0.200000, all in a.u.
 
----------------------------------------------------------------------
Geometry Convergence after Step   3       (Hartree/Angstrom,Angstrom)
----------------------------------------------------------------------
current energy                               -4.76214776 Hartree
energy change                      -0.00055206     0.00001500    F
constrained gradient max            0.01864786     0.00010000    F
constrained gradient rms            0.00409712     0.00006667    F
gradient max                        0.01864786
gradient rms                        0.00409712
cart. step max                      0.01636105     0.00100000    F
cart. step rms                      0.00572680     0.00066667    F
 
 
--------
Geometry
--------
Formula: C2H4O8Pa
Atoms
  Index Symbol   x (angstrom)   y (angstrom)   z (angstrom)
      1     Pa     0.53808269    -0.19792352    -0.44554068       adf.R=2.200
      2      O     0.97739336     1.33513123    -1.85757529       adf.R=1.517
      3      H     1.67948281     1.49968625    -2.50050484       adf.R=1.350
      4      O    -0.85364265     1.11540154     0.55387647       adf.R=1.517
      5      H    -1.05612926     2.03679210     0.34681038       adf.R=1.350
      6      O    -0.75009656    -1.20438459    -1.85794470       adf.R=1.517
      7      H    -1.22854608    -2.03210803    -1.71952945       adf.R=1.350
      8      O     0.15877394    -1.73919806     0.97788195       adf.R=1.517
      9      H     0.51756301    -1.97131428     1.84447293       adf.R=1.350
     10      O     2.34544738     0.40775945     0.86685010       adf.R=1.517
     11      O     2.49382820    -1.23897135    -1.11065219       adf.R=1.517
     12      C     3.53569325    -0.06745402     0.69207024       adf.R=1.700
     13      C     3.62824744    -1.05770771    -0.51653829       adf.R=1.700
     14      O     4.51680832     0.19073512     1.37037964       adf.R=1.517
     15      O     4.68911388    -1.57613690    -0.82498725       adf.R=1.517
 
Total System Charge            -1.00000
Bonding info available!
 
 *** GO1_GOStep4 ***

 SOLVATION
-------------------------------------------

  The Delley construction of COSMO surface surface is calculated

       Division Level for Surface Triangles (NDIV)                  3
       Final Division Level for Triangles (NFDIV)                   1
       Radius of the Solvent (RSOL)                           1.93000 angstr
  Dielectric Constant (EPSL)                                 78.39000

       COSMO equation is solved iteratively-               conjugate-gradient

       Maximun of Iterations for Charges (NCIX)                  1000
       Criterion for Charge convergence (CCNV)                1.0E-08

  COSMO charges included variationally in SCF

       COSMO included at every SCF cycle

  Geometry-dependent empirical factor                         0.00000

  C-Matrix calculated in cspmtx

  In cspmtx, C-Matrix calculated using fitted potential

-------------------------------------------



 -------------------------------------------
  COSMO surface
  Area             =          637.216
  Volume           =         1091.257
  Number of Points =         1735
 -------------------------------------------



 ======================
 RI Hartree-Fock Scheme
 ======================
  
 Fit Set Quality     : GOOD
 Threshold Quality   : GOOD
 Integration Quality : GOOD
 Response Quality    : DEFAULT
 Is Range Separated  :  F
 
 RIHartreeFock Dependency: number of modified vectors:           5
 cosmo_calcen: 0.5 (esolb+esolc) (Hartrees) =   -0.110942

 Solvation energy (screening term,uncorrected) =    -69.617278 kcal/mol

 Solvation energy (dispersion and cavitation terms) =      1.191544 kcal/mol
 Solvation Energy Contributions (Hartrees)
          esola   esolb+esolc
     0.11094218   -0.22188437
 esol last cycle   -0.11094218
  
 Hartree-Fock exchange energy:   -544.109949973448     
 cosmo_calcen: 0.5 (esolb+esolc) (Hartrees) =   -0.110942

 Solvation energy (screening term,uncorrected) =    -69.617279 kcal/mol

 Solvation energy (dispersion and cavitation terms) =      1.191544 kcal/mol
 Solvation Energy Contributions (Hartrees)
          esola   esolb+esolc
     0.11094219   -0.22188437
 esol last cycle   -0.11094218

 Energy gradients wrt nuclear displacements
 ==========================================

     Atom      Cartesian (a.u./angstrom)
                 X         Y         Z
 ----------------------------------------
     1 Pa    0.015164 -0.001568  0.002745
     2 O    -0.003084  0.001792 -0.000167
     3 H     0.002342 -0.000466 -0.001120
     4 O    -0.001610 -0.001533  0.000499
     5 H     0.000302  0.002149 -0.000585
     6 O    -0.000895  0.001647 -0.001115
     7 H    -0.000466 -0.002059  0.000777
     8 O    -0.003119 -0.001275 -0.000874
     9 H     0.001926  0.000115  0.001904
    10 O     0.002820 -0.004619 -0.002846
    11 O     0.002808  0.003671  0.003900
    12 C    -0.011287  0.000727 -0.004308
    13 C    -0.011988  0.002366 -0.000010
    14 O     0.003331  0.000528  0.002505
    15 O     0.003755 -0.001474 -0.001303
 ----------------------------------------
 Mulliken charges used for AMS results%charges...

 dE(predicted):    -0.13317E-03, dE(actual):    -0.19845E-03, Trust radius:    0.200000, all in a.u.
 
----------------------------------------------------------------------
Geometry Convergence after Step   4       (Hartree/Angstrom,Angstrom)
----------------------------------------------------------------------
current energy                               -4.76234621 Hartree
energy change                      -0.00019845     0.00001500    F
constrained gradient max            0.01516643     0.00010000    F
constrained gradient rms            0.00395665     0.00006667    F
gradient max                        0.01516643
gradient rms                        0.00395665
cart. step max                      0.02408485     0.00100000    F
cart. step rms                      0.00885725     0.00066667    F
 
 
--------
Geometry
--------
Formula: C2H4O8Pa
Atoms
  Index Symbol   x (angstrom)   y (angstrom)   z (angstrom)
      1     Pa     0.53126883    -0.19717278    -0.44712559       adf.R=2.200
      2      O     0.98318089     1.32488262    -1.85607647       adf.R=1.517
      3      H     1.67788016     1.49497264    -2.50371343       adf.R=1.350
      4      O    -0.85218579     1.10955944     0.56595028       adf.R=1.517
      5      H    -1.06869273     2.02854067     0.36801990       adf.R=1.350
      6      O    -0.74606796    -1.19966725    -1.86797159       adf.R=1.517
      7      H    -1.23411342    -2.02265148    -1.74361431       adf.R=1.350
      8      O     0.16748685    -1.73115929     0.97763167       adf.R=1.517
      9      H     0.51443853    -1.96645857     1.84680206       adf.R=1.350
     10      O     2.34987652     0.42530595     0.86639703       adf.R=1.517
     11      O     2.49416233    -1.25673282    -1.10956326       adf.R=1.517
     12      C     3.53681215    -0.06098996     0.68609836       adf.R=1.700
     13      C     3.62606879    -1.06338795    -0.51050319       adf.R=1.700
     14      O     4.52320896     0.19866497     1.35565792       adf.R=1.517
     15      O     4.68869561    -1.58339897    -0.80892036       adf.R=1.517
 
Total System Charge            -1.00000
Bonding info available!
 
 *** GO1_GOStep5 ***

 SOLVATION
-------------------------------------------

  The Delley construction of COSMO surface surface is calculated

       Division Level for Surface Triangles (NDIV)                  3
       Final Division Level for Triangles (NFDIV)                   1
       Radius of the Solvent (RSOL)                           1.93000 angstr
  Dielectric Constant (EPSL)                                 78.39000

       COSMO equation is solved iteratively-               conjugate-gradient

       Maximun of Iterations for Charges (NCIX)                  1000
       Criterion for Charge convergence (CCNV)                1.0E-08

  COSMO charges included variationally in SCF

       COSMO included at every SCF cycle

  Geometry-dependent empirical factor                         0.00000

  C-Matrix calculated in cspmtx

  In cspmtx, C-Matrix calculated using fitted potential

-------------------------------------------



 -------------------------------------------
  COSMO surface
  Area             =          637.192
  Volume           =         1092.120
  Number of Points =         1733
 -------------------------------------------



 ======================
 RI Hartree-Fock Scheme
 ======================
  
 Fit Set Quality     : GOOD
 Threshold Quality   : GOOD
 Integration Quality : GOOD
 Response Quality    : DEFAULT
 Is Range Separated  :  F
 
 RIHartreeFock Dependency: number of modified vectors:           5
 cosmo_calcen: 0.5 (esolb+esolc) (Hartrees) =   -0.111849

 Solvation energy (screening term,uncorrected) =    -70.186261 kcal/mol

 Solvation energy (dispersion and cavitation terms) =      1.191499 kcal/mol
 Solvation Energy Contributions (Hartrees)
          esola   esolb+esolc
     0.11184891   -0.22369783
 esol last cycle   -0.11184891
  
 Hartree-Fock exchange energy:   -544.111660423552     
 cosmo_calcen: 0.5 (esolb+esolc) (Hartrees) =   -0.111849

 Solvation energy (screening term,uncorrected) =    -70.186265 kcal/mol

 Solvation energy (dispersion and cavitation terms) =      1.191499 kcal/mol
 Solvation Energy Contributions (Hartrees)
          esola   esolb+esolc
     0.11184892   -0.22369784
 esol last cycle   -0.11184892

 Energy gradients wrt nuclear displacements
 ==========================================

     Atom      Cartesian (a.u./angstrom)
                 X         Y         Z
 ----------------------------------------
     1 Pa    0.008427 -0.000574  0.001416
     2 O    -0.001863 -0.000056  0.000165
     3 H     0.000778 -0.000988  0.000458
     4 O    -0.001235 -0.000413  0.000021
     5 H     0.000697  0.000149 -0.000113
     6 O    -0.001067  0.000437 -0.000482
     7 H     0.000497 -0.000285  0.000373
     8 O    -0.001630  0.000282 -0.000527
     9 H     0.001215  0.000744 -0.000132
    10 O     0.001718 -0.000611  0.001332
    11 O     0.002316 -0.000053 -0.000543
    12 C    -0.006242 -0.001500 -0.005113
    13 C    -0.007172  0.003290  0.002588
    14 O     0.001688 -0.000118  0.000966
    15 O     0.001874 -0.000303 -0.000408
 ----------------------------------------
 Mulliken charges used for AMS results%charges...

 dE(predicted):    -0.17126E-03, dE(actual):    -0.20367E-03, Trust radius:    0.200000, all in a.u.
 
----------------------------------------------------------------------
Geometry Convergence after Step   5       (Hartree/Angstrom,Angstrom)
----------------------------------------------------------------------
current energy                               -4.76254988 Hartree
energy change                      -0.00020367     0.00001500    F
constrained gradient max            0.00842983     0.00010000    F
constrained gradient rms            0.00232173     0.00006667    F
gradient max                        0.00842983
gradient rms                        0.00232173
cart. step max                      0.00950191     0.00100000    F
cart. step rms                      0.00444913     0.00066667    F
 
 
--------
Geometry
--------
Formula: C2H4O8Pa
Atoms
  Index Symbol   x (angstrom)   y (angstrom)   z (angstrom)
      1     Pa     0.52854491    -0.19683967    -0.44779556       adf.R=2.200
      2      O     0.98642747     1.32233399    -1.85497528       adf.R=1.517
      3      H     1.67456352     1.49920843    -2.50700486       adf.R=1.350
      4      O    -0.85006677     1.10868209     0.57086248       adf.R=1.517
      5      H    -1.07582236     2.02565541     0.37620192       adf.R=1.350
      6      O    -0.74358583    -1.19951015    -1.87127020       adf.R=1.517
      7      H    -1.23818471    -2.01896899    -1.75311622       adf.R=1.350
      8      O     0.17170521    -1.72976053     0.97683971       adf.R=1.517
      9      H     0.50808008    -1.96977453     1.84828956       adf.R=1.350
     10      O     2.35293619     0.43429322     0.86292485       adf.R=1.517
     11      O     2.49396925    -1.26550685    -1.10606752       adf.R=1.517
     12      C     3.53997309    -0.05671372     0.68387382       adf.R=1.700
     13      C     3.62735008    -1.06799837    -0.50738512       adf.R=1.700
     14      O     4.52720178     0.20591489     1.34988776       adf.R=1.517
     15      O     4.68892783    -1.59070801    -0.80219632       adf.R=1.517
 
Total System Charge            -1.00000
Bonding info available!
 
 *** GO1_GOStep6 ***

 SOLVATION
-------------------------------------------

  The Delley construction of COSMO surface surface is calculated

       Division Level for Surface Triangles (NDIV)                  3
       Final Division Level for Triangles (NFDIV)                   1
       Radius of the Solvent (RSOL)                           1.93000 angstr
  Dielectric Constant (EPSL)                                 78.39000

       COSMO equation is solved iteratively-               conjugate-gradient

       Maximun of Iterations for Charges (NCIX)                  1000
       Criterion for Charge convergence (CCNV)                1.0E-08

  COSMO charges included variationally in SCF

       COSMO included at every SCF cycle

  Geometry-dependent empirical factor                         0.00000

  C-Matrix calculated in cspmtx

  In cspmtx, C-Matrix calculated using fitted potential

-------------------------------------------



 -------------------------------------------
  COSMO surface
  Area             =          638.374
  Volume           =         1094.010
  Number of Points =         1733
 -------------------------------------------



 ======================
 RI Hartree-Fock Scheme
 ======================
  
 Fit Set Quality     : GOOD
 Threshold Quality   : GOOD
 Integration Quality : GOOD
 Response Quality    : DEFAULT
 Is Range Separated  :  F
 
 RIHartreeFock Dependency: number of modified vectors:           5
 cosmo_calcen: 0.5 (esolb+esolc) (Hartrees) =   -0.112117

 Solvation energy (screening term,uncorrected) =    -70.354387 kcal/mol

 Solvation energy (dispersion and cavitation terms) =      1.193710 kcal/mol
 Solvation Energy Contributions (Hartrees)
          esola   esolb+esolc
     0.11211684   -0.22423368
 esol last cycle   -0.11211684
  
 Hartree-Fock exchange energy:   -544.109860575230     
 cosmo_calcen: 0.5 (esolb+esolc) (Hartrees) =   -0.112117

 Solvation energy (screening term,uncorrected) =    -70.354392 kcal/mol

 Solvation energy (dispersion and cavitation terms) =      1.193710 kcal/mol
 Solvation Energy Contributions (Hartrees)
          esola   esolb+esolc
     0.11211685   -0.22423370
 esol last cycle   -0.11211685

 Energy gradients wrt nuclear displacements
 ==========================================

     Atom      Cartesian (a.u./angstrom)
                 X         Y         Z
 ----------------------------------------
     1 Pa    0.004984 -0.000199  0.000776
     2 O    -0.001158 -0.000312  0.000017
     3 H     0.000166 -0.001100  0.001009
     4 O    -0.001071  0.000168 -0.000143
     5 H     0.000802 -0.000582  0.000057
     6 O    -0.001100 -0.000136 -0.000188
     7 H     0.000816  0.000356  0.000206
     8 O    -0.001014  0.000449 -0.000113
     9 H     0.000888  0.000899 -0.000894
    10 O    -0.000121  0.001386  0.002637
    11 O     0.000558 -0.001525 -0.002514
    12 C    -0.001974 -0.001970 -0.003758
    13 C    -0.002729  0.002607  0.002854
    14 O     0.000463 -0.000313  0.000116
    15 O     0.000491  0.000271 -0.000060
 ----------------------------------------
 Mulliken charges used for AMS results%charges...

 dE(predicted):    -0.54155E-04, dE(actual):    -0.94234E-04, Trust radius:    0.200000, all in a.u.
 
----------------------------------------------------------------------
Geometry Convergence after Step   6       (Hartree/Angstrom,Angstrom)
----------------------------------------------------------------------
current energy                               -4.76264412 Hartree
energy change                      -0.00009423     0.00001500    F
constrained gradient max            0.00498732     0.00010000    F
constrained gradient rms            0.00148956     0.00006667    F
gradient max                        0.00498732
gradient rms                        0.00148956
cart. step max                      0.01713293     0.00100000    F
cart. step rms                      0.00832596     0.00066667    F
 
 
--------
Geometry
--------
Formula: C2H4O8Pa
Atoms
  Index Symbol   x (angstrom)   y (angstrom)   z (angstrom)
      1     Pa     0.52518730    -0.19643624    -0.44880413       adf.R=2.200
      2      O     0.99134168     1.32057445    -1.85345607       adf.R=1.517
      3      H     1.66502786     1.51333090    -2.51538616       adf.R=1.350
      4      O    -0.84487754     1.10889008     0.57809377       adf.R=1.517
      5      H    -1.08839983     2.02192259     0.38786238       adf.R=1.350
      6      O    -0.73860732    -1.20124951    -1.87533745       adf.R=1.517
      7      H    -1.24610512    -2.01376014    -1.76659364       adf.R=1.350
      8      O     0.17769409    -1.72964885     0.97530222       adf.R=1.517
      9      H     0.49094715    -1.98077437     1.85178792       adf.R=1.350
     10      O     2.36019824     0.44707252     0.85281025       adf.R=1.517
     11      O     2.49478539    -1.27816530    -1.09575910       adf.R=1.517
     12      C     3.54771718    -0.04896286     0.68035101       adf.R=1.700
     13      C     3.63174084    -1.07701946    -0.50164433       adf.R=1.700
     14      O     4.53502593     0.22074491     1.34171123       adf.R=1.517
     15      O     4.69034388    -1.60621149    -0.79186888       adf.R=1.517
 
Total System Charge            -1.00000
Bonding info available!
 
 *** GO1_GOStep7 ***

 SOLVATION
-------------------------------------------

  The Delley construction of COSMO surface surface is calculated

       Division Level for Surface Triangles (NDIV)                  3
       Final Division Level for Triangles (NFDIV)                   1
       Radius of the Solvent (RSOL)                           1.93000 angstr
  Dielectric Constant (EPSL)                                 78.39000

       COSMO equation is solved iteratively-               conjugate-gradient

       Maximun of Iterations for Charges (NCIX)                  1000
       Criterion for Charge convergence (CCNV)                1.0E-08

  COSMO charges included variationally in SCF

       COSMO included at every SCF cycle

  Geometry-dependent empirical factor                         0.00000

  C-Matrix calculated in cspmtx

  In cspmtx, C-Matrix calculated using fitted potential

-------------------------------------------



 -------------------------------------------
  COSMO surface
  Area             =          638.906
  Volume           =         1093.854
  Number of Points =         1732
 -------------------------------------------



 ======================
 RI Hartree-Fock Scheme
 ======================
  
 Fit Set Quality     : GOOD
 Threshold Quality   : GOOD
 Integration Quality : GOOD
 Response Quality    : DEFAULT
 Is Range Separated  :  F
 
 RIHartreeFock Dependency: number of modified vectors:           5
 cosmo_calcen: 0.5 (esolb+esolc) (Hartrees) =   -0.112555

 Solvation energy (screening term,uncorrected) =    -70.629178 kcal/mol

 Solvation energy (dispersion and cavitation terms) =      1.194705 kcal/mol
 Solvation Energy Contributions (Hartrees)
          esola   esolb+esolc
     0.11255475   -0.22510950
 esol last cycle   -0.11255475
  
 Hartree-Fock exchange energy:   -544.106050317546     
 cosmo_calcen: 0.5 (esolb+esolc) (Hartrees) =   -0.112555

 Solvation energy (screening term,uncorrected) =    -70.629185 kcal/mol

 Solvation energy (dispersion and cavitation terms) =      1.194705 kcal/mol
 Solvation Energy Contributions (Hartrees)
          esola   esolb+esolc
     0.11255476   -0.22510952
 esol last cycle   -0.11255476

 Energy gradients wrt nuclear displacements
 ==========================================

     Atom      Cartesian (a.u./angstrom)
                 X         Y         Z
 ----------------------------------------
     1 Pa   -0.000278  0.000316 -0.000186
     2 O    -0.000354 -0.000074 -0.000275
     3 H    -0.000201 -0.000983  0.001229
     4 O    -0.000786  0.000637 -0.000171
     5 H     0.000731 -0.000956  0.000173
     6 O    -0.000868 -0.000655  0.000102
     7 H     0.000867  0.000700  0.000046
     8 O    -0.000503  0.000161  0.000320
     9 H     0.000652  0.000819 -0.001215
    10 O    -0.001579  0.002938  0.003058
    11 O    -0.001187 -0.002551 -0.003597
    12 C     0.003300 -0.001256 -0.000398
    13 C     0.003065  0.000414  0.001645
    14 O    -0.001462 -0.000512 -0.001054
    15 O    -0.001398  0.001001  0.000323
 ----------------------------------------
 Mulliken charges used for AMS results%charges...

 dE(predicted):    -0.83600E-04, dE(actual):    -0.15482E-03, Trust radius:    0.400000, all in a.u.
 
----------------------------------------------------------------------
Geometry Convergence after Step   7       (Hartree/Angstrom,Angstrom)
----------------------------------------------------------------------
current energy                               -4.76279894 Hartree
energy change                      -0.00015482     0.00001500    F
constrained gradient max            0.00358281     0.00010000    F
constrained gradient rms            0.00136323     0.00006667    F
gradient max                        0.00358281
gradient rms                        0.00136323
cart. step max                      0.01956519     0.00100000    F
cart. step rms                      0.00744950     0.00066667    F
 
 
--------
Geometry
--------
Formula: C2H4O8Pa
Atoms
  Index Symbol   x (angstrom)   y (angstrom)   z (angstrom)
      1     Pa     0.52410800    -0.19637577    -0.44923944       adf.R=2.200
      2      O     0.99396358     1.32033146    -1.85299459       adf.R=1.517
      3      H     1.65312315     1.52846650    -2.52485255       adf.R=1.350
      4      O    -0.83938154     1.10968764     0.58318050       adf.R=1.517
      5      H    -1.09831847     2.01914835     0.39562233       adf.R=1.350
      6      O    -0.73367458    -1.20322660    -1.87770585       adf.R=1.517
      7      H    -1.25232544    -2.00970100    -1.77577684       adf.R=1.350
      8      O     0.18090119    -1.73052754     0.97448694       adf.R=1.517
      9      H     0.47138195    -1.99226459     1.85572499       adf.R=1.350
     10      O     2.36770177     0.45395921     0.84240237       adf.R=1.517
     11      O     2.49694808    -1.28547407    -1.08456119       adf.R=1.517
     12      C     3.55543204    -0.04304145     0.67746902       adf.R=1.700
     13      C     3.63665679    -1.08421143    -0.49664200       adf.R=1.700
     14      O     4.54273428     0.23326383     1.33629973       adf.R=1.517
     15      O     4.69276891    -1.61972730    -0.78434442       adf.R=1.517
 
Total System Charge            -1.00000
Bonding info available!
 
 *** GO1_GOStep8 ***

 SOLVATION
-------------------------------------------

  The Delley construction of COSMO surface surface is calculated

       Division Level for Surface Triangles (NDIV)                  3
       Final Division Level for Triangles (NFDIV)                   1
       Radius of the Solvent (RSOL)                           1.93000 angstr
  Dielectric Constant (EPSL)                                 78.39000

       COSMO equation is solved iteratively-               conjugate-gradient

       Maximun of Iterations for Charges (NCIX)                  1000
       Criterion for Charge convergence (CCNV)                1.0E-08

  COSMO charges included variationally in SCF

       COSMO included at every SCF cycle

  Geometry-dependent empirical factor                         0.00000

  C-Matrix calculated in cspmtx

  In cspmtx, C-Matrix calculated using fitted potential

-------------------------------------------



 -------------------------------------------
  COSMO surface
  Area             =          640.386
  Volume           =         1094.457
  Number of Points =         1738
 -------------------------------------------



 ======================
 RI Hartree-Fock Scheme
 ======================
  
 Fit Set Quality     : GOOD
 Threshold Quality   : GOOD
 Integration Quality : GOOD
 Response Quality    : DEFAULT
 Is Range Separated  :  F
 
 RIHartreeFock Dependency: number of modified vectors:           5
 cosmo_calcen: 0.5 (esolb+esolc) (Hartrees) =   -0.112954

 Solvation energy (screening term,uncorrected) =    -70.879600 kcal/mol

 Solvation energy (dispersion and cavitation terms) =      1.197472 kcal/mol
 Solvation Energy Contributions (Hartrees)
          esola   esolb+esolc
     0.11295382   -0.22590764
 esol last cycle   -0.11295382
  
 Hartree-Fock exchange energy:   -544.103055680920     
 cosmo_calcen: 0.5 (esolb+esolc) (Hartrees) =   -0.112954

 Solvation energy (screening term,uncorrected) =    -70.879606 kcal/mol

 Solvation energy (dispersion and cavitation terms) =      1.197472 kcal/mol
 Solvation Energy Contributions (Hartrees)
          esola   esolb+esolc
     0.11295383   -0.22590766
 esol last cycle   -0.11295383

 Energy gradients wrt nuclear displacements
 ==========================================

     Atom      Cartesian (a.u./angstrom)
                 X         Y         Z
 ----------------------------------------
     1 Pa   -0.003500  0.000564 -0.000786
     2 O    -0.000096  0.000467 -0.000501
     3 H    -0.000021 -0.000694  0.000896
     4 O    -0.000500  0.000506 -0.000006
     5 H     0.000488 -0.000607  0.000136
     6 O    -0.000472 -0.000560  0.000201
     7 H     0.000555  0.000420 -0.000019
     8 O    -0.000494 -0.000350  0.000488
     9 H     0.000656  0.000526 -0.000830
    10 O    -0.001176  0.002325  0.001888
    11 O    -0.001036 -0.001947 -0.002365
    12 C     0.004101  0.000043  0.001688
    13 C     0.004423 -0.001281 -0.000121
    14 O    -0.001389 -0.000405 -0.000991
    15 O    -0.001537  0.000993  0.000321
 ----------------------------------------
 Mulliken charges used for AMS results%charges...

 dE(predicted):    -0.51540E-04, dE(actual):    -0.11888E-03, Trust radius:    0.400000, all in a.u.
 
----------------------------------------------------------------------
Geometry Convergence after Step   8       (Hartree/Angstrom,Angstrom)
----------------------------------------------------------------------
current energy                               -4.76291782 Hartree
energy change                      -0.00011888     0.00001500    F
constrained gradient max            0.00441846     0.00010000    F
constrained gradient rms            0.00139323     0.00006667    F
gradient max                        0.00441846
gradient rms                        0.00139323
cart. step max                      0.01845511     0.00100000    F
cart. step rms                      0.00573686     0.00066667    F
 
 
--------
Geometry
--------
Formula: C2H4O8Pa
Atoms
  Index Symbol   x (angstrom)   y (angstrom)   z (angstrom)
      1     Pa     0.52542008    -0.19671701    -0.44905579       adf.R=2.200
      2      O     0.99439785     1.32042876    -1.85318265       adf.R=1.517
      3      H     1.64092811     1.54068278    -2.53369755       adf.R=1.350
      4      O    -0.83441565     1.11000107     0.58604503       adf.R=1.517
      5      H    -1.10457530     2.01667696     0.39949982       adf.R=1.350
      6      O    -0.72917956    -1.20430095    -1.87876781       adf.R=1.517
      7      H    -1.25596997    -2.00627282    -1.78068636       adf.R=1.350
      8      O     0.18184203    -1.73128749     0.97440093       adf.R=1.517
      9      H     0.45292684    -2.00079760     1.85968318       adf.R=1.350
     10      O     2.37394242     0.45572974     0.83512826       adf.R=1.517
     11      O     2.49995795    -1.28816084    -1.07610482       adf.R=1.517
     12      C     3.56153243    -0.03972383     0.67528094       adf.R=1.700
     13      C     3.64085936    -1.08848294    -0.49295646       adf.R=1.700
     14      O     4.54883587     0.24127965     1.33316167       adf.R=1.517
     15      O     4.69551727    -1.62874825    -0.77967937       adf.R=1.517
 
Total System Charge            -1.00000
Bonding info available!
 
 *** GO1_GOStep9 ***

 SOLVATION
-------------------------------------------

  The Delley construction of COSMO surface surface is calculated

       Division Level for Surface Triangles (NDIV)                  3
       Final Division Level for Triangles (NFDIV)                   1
       Radius of the Solvent (RSOL)                           1.93000 angstr
  Dielectric Constant (EPSL)                                 78.39000

       COSMO equation is solved iteratively-               conjugate-gradient

       Maximun of Iterations for Charges (NCIX)                  1000
       Criterion for Charge convergence (CCNV)                1.0E-08

  COSMO charges included variationally in SCF

       COSMO included at every SCF cycle

  Geometry-dependent empirical factor                         0.00000

  C-Matrix calculated in cspmtx

  In cspmtx, C-Matrix calculated using fitted potential

-------------------------------------------



 -------------------------------------------
  COSMO surface
  Area             =          640.104
  Volume           =         1092.731
  Number of Points =         1735
 -------------------------------------------



 ======================
 RI Hartree-Fock Scheme
 ======================
  
 Fit Set Quality     : GOOD
 Threshold Quality   : GOOD
 Integration Quality : GOOD
 Response Quality    : DEFAULT
 Is Range Separated  :  F
 
 RIHartreeFock Dependency: number of modified vectors:           5
 cosmo_calcen: 0.5 (esolb+esolc) (Hartrees) =   -0.113237

 Solvation energy (screening term,uncorrected) =    -71.057202 kcal/mol

 Solvation energy (dispersion and cavitation terms) =      1.196946 kcal/mol
 Solvation Energy Contributions (Hartrees)
          esola   esolb+esolc
     0.11323685   -0.22647369
 esol last cycle   -0.11323685
  
 Hartree-Fock exchange energy:   -544.102027399828     
 cosmo_calcen: 0.5 (esolb+esolc) (Hartrees) =   -0.113237

 Solvation energy (screening term,uncorrected) =    -71.057190 kcal/mol

 Solvation energy (dispersion and cavitation terms) =      1.196946 kcal/mol
 Solvation Energy Contributions (Hartrees)
          esola   esolb+esolc
     0.11323683   -0.22647366
 esol last cycle   -0.11323683

 Energy gradients wrt nuclear displacements
 ==========================================

     Atom      Cartesian (a.u./angstrom)
                 X         Y         Z
 ----------------------------------------
     1 Pa   -0.004628  0.000597 -0.001024
     2 O    -0.000244  0.000870 -0.000568
     3 H     0.000357 -0.000376  0.000391
     4 O    -0.000221  0.000087  0.000125
     5 H     0.000198 -0.000043  0.000065
     6 O    -0.000059 -0.000208  0.000231
     7 H     0.000153 -0.000031 -0.000028
     8 O    -0.000709 -0.000664  0.000427
     9 H     0.000749  0.000175 -0.000235
    10 O     0.000282  0.000666  0.000384
    11 O     0.000166 -0.000640 -0.000356
    12 C     0.002417  0.001205  0.002081
    13 C     0.002692 -0.001920 -0.001110
    14 O    -0.000597 -0.000217 -0.000392
    15 O    -0.000555  0.000499  0.000008
 ----------------------------------------
 Mulliken charges used for AMS results%charges...

 dE(predicted):    -0.28552E-04, dE(actual):    -0.73726E-04, Trust radius:    0.400000, all in a.u.
 
----------------------------------------------------------------------
Geometry Convergence after Step   9       (Hartree/Angstrom,Angstrom)
----------------------------------------------------------------------
current energy                               -4.76299155 Hartree
energy change                      -0.00007373     0.00001500    F
constrained gradient max            0.00462434     0.00010000    F
constrained gradient rms            0.00108019     0.00006667    F
gradient max                        0.00462434
gradient rms                        0.00108019
cart. step max                      0.01426738     0.00100000    F
cart. step rms                      0.00366195     0.00066667    F
 
 
--------
Geometry
--------
Formula: C2H4O8Pa
Atoms
  Index Symbol   x (angstrom)   y (angstrom)   z (angstrom)
      1     Pa     0.52821144    -0.19736640    -0.44841887       adf.R=2.200
      2      O     0.99374346     1.32007198    -1.85341310       adf.R=1.517
      3      H     1.63091340     1.54774081    -2.54046653       adf.R=1.350
      4      O    -0.83068701     1.10956317     0.58704389       adf.R=1.517
      5      H    -1.10736335     2.01434300     0.40007177       adf.R=1.350
      6      O    -0.72574537    -1.20420104    -1.87892367       adf.R=1.517
      7      H    -1.25728385    -2.00338378    -1.78214591       adf.R=1.350
      8      O     0.18173819    -1.73146889     0.97480827       adf.R=1.517
      9      H     0.43865946    -2.00478165     1.86327146       adf.R=1.350
     10      O     2.37770379     0.45484270     0.83261207       adf.R=1.517
     11      O     2.50274352    -1.28828032    -1.07251393       adf.R=1.517
     12      C     3.56513558    -0.03910143     0.67429384       adf.R=1.700
     13      C     3.64374163    -1.08960777    -0.49130751       adf.R=1.700
     14      O     4.55262404     0.24409087     1.33194286       adf.R=1.517
     15      O     4.69788478    -1.63215401    -0.77778562       adf.R=1.517
 
Total System Charge            -1.00000
Bonding info available!
 
 *** GO1_GOStep10 ***

 SOLVATION
-------------------------------------------

  The Delley construction of COSMO surface surface is calculated

       Division Level for Surface Triangles (NDIV)                  3
       Final Division Level for Triangles (NFDIV)                   1
       Radius of the Solvent (RSOL)                           1.93000 angstr
  Dielectric Constant (EPSL)                                 78.39000

       COSMO equation is solved iteratively-               conjugate-gradient

       Maximun of Iterations for Charges (NCIX)                  1000
       Criterion for Charge convergence (CCNV)                1.0E-08

  COSMO charges included variationally in SCF

       COSMO included at every SCF cycle

  Geometry-dependent empirical factor                         0.00000

  C-Matrix calculated in cspmtx

  In cspmtx, C-Matrix calculated using fitted potential

-------------------------------------------



 -------------------------------------------
  COSMO surface
  Area             =          640.164
  Volume           =         1092.027
  Number of Points =         1737
 -------------------------------------------



 ======================
 RI Hartree-Fock Scheme
 ======================
  
 Fit Set Quality     : GOOD
 Threshold Quality   : GOOD
 Integration Quality : GOOD
 Response Quality    : DEFAULT
 Is Range Separated  :  F
 
 RIHartreeFock Dependency: number of modified vectors:           5
 cosmo_calcen: 0.5 (esolb+esolc) (Hartrees) =   -0.113357

 Solvation energy (screening term,uncorrected) =    -71.132825 kcal/mol

 Solvation energy (dispersion and cavitation terms) =      1.197058 kcal/mol
 Solvation Energy Contributions (Hartrees)
          esola   esolb+esolc
     0.11335736   -0.22671472
 esol last cycle   -0.11335736
  
 Hartree-Fock exchange energy:   -544.102399023981     
 cosmo_calcen: 0.5 (esolb+esolc) (Hartrees) =   -0.113357

 Solvation energy (screening term,uncorrected) =    -71.132815 kcal/mol

 Solvation energy (dispersion and cavitation terms) =      1.197058 kcal/mol
 Solvation Energy Contributions (Hartrees)
          esola   esolb+esolc
     0.11335734   -0.22671469
 esol last cycle   -0.11335734

 Energy gradients wrt nuclear displacements
 ==========================================

     Atom      Cartesian (a.u./angstrom)
                 X         Y         Z
 ----------------------------------------
     1 Pa   -0.004275  0.000518 -0.000979
     2 O    -0.000475  0.000938 -0.000521
     3 H     0.000577 -0.000193  0.000084
     4 O    -0.000030 -0.000230  0.000127
     5 H     0.000026  0.000283  0.000027
     6 O     0.000200  0.000084  0.000267
     7 H    -0.000084 -0.000296 -0.000025
     8 O    -0.000892 -0.000681  0.000326
     9 H     0.000790 -0.000028  0.000114
    10 O     0.001190 -0.000453 -0.000514
    11 O     0.001023  0.000209  0.000898
    12 C     0.000624  0.001301  0.001449
    13 C     0.000824 -0.001489 -0.001225
    14 O     0.000239  0.000012  0.000199
    15 O     0.000264  0.000027 -0.000226
 ----------------------------------------
 Mulliken charges used for AMS results%charges...

 dE(predicted):    -0.13783E-04, dE(actual):    -0.40850E-04, Trust radius:    0.400000, all in a.u.
 
----------------------------------------------------------------------
Geometry Convergence after Step  10       (Hartree/Angstrom,Angstrom)
----------------------------------------------------------------------
current energy                               -4.76303240 Hartree
energy change                      -0.00004085     0.00001500    F
constrained gradient max            0.00427185     0.00010000    F
constrained gradient rms            0.00089667     0.00006667    F
gradient max                        0.00427185
gradient rms                        0.00089667
cart. step max                      0.02548905     0.00100000    F
cart. step rms                      0.00621515     0.00066667    F
 
 
--------
Geometry
--------
Formula: C2H4O8Pa
Atoms
  Index Symbol   x (angstrom)   y (angstrom)   z (angstrom)
      1     Pa     0.53434883    -0.19880121    -0.44695208       adf.R=2.200
      2      O     0.99277699     1.31849041    -1.85351318       adf.R=1.517
      3      H     1.61269395     1.55827502    -2.55219973       adf.R=1.350
      4      O    -0.82403522     1.10801524     0.58841797       adf.R=1.517
      5      H    -1.11135842     2.00928483     0.40006851       adf.R=1.350
      6      O    -0.71960304    -1.20310169    -1.87903607       adf.R=1.517
      7      H    -1.25886610    -1.99741949    -1.78378737       adf.R=1.350
      8      O     0.18208334    -1.73123043     0.97571127       adf.R=1.517
      9      H     0.41317041    -2.00979348     1.86967353       adf.R=1.350
     10      O     2.38338677     0.45334375     0.83105208       adf.R=1.517
     11      O     2.50768945    -1.28856223    -1.06913049       adf.R=1.517
     12      C     3.57067327    -0.03882173     0.67285558       adf.R=1.700
     13      C     3.64839553    -1.09057529    -0.48903443       adf.R=1.700
     14      O     4.55866249     0.24712016     1.32958148       adf.R=1.517
     15      O     4.70200148    -1.63591663    -0.77463805       adf.R=1.517
 
Total System Charge            -1.00000
Bonding info available!
 
 *** GO1_GOStep11 ***

 SOLVATION
-------------------------------------------

  The Delley construction of COSMO surface surface is calculated

       Division Level for Surface Triangles (NDIV)                  3
       Final Division Level for Triangles (NFDIV)                   1
       Radius of the Solvent (RSOL)                           1.93000 angstr
  Dielectric Constant (EPSL)                                 78.39000

       COSMO equation is solved iteratively-               conjugate-gradient

       Maximun of Iterations for Charges (NCIX)                  1000
       Criterion for Charge convergence (CCNV)                1.0E-08

  COSMO charges included variationally in SCF

       COSMO included at every SCF cycle

  Geometry-dependent empirical factor                         0.00000

  C-Matrix calculated in cspmtx

  In cspmtx, C-Matrix calculated using fitted potential

-------------------------------------------



 -------------------------------------------
  COSMO surface
  Area             =          640.867
  Volume           =         1091.440
  Number of Points =         1738
 -------------------------------------------



 ======================
 RI Hartree-Fock Scheme
 ======================
  
 Fit Set Quality     : GOOD
 Threshold Quality   : GOOD
 Integration Quality : GOOD
 Response Quality    : DEFAULT
 Is Range Separated  :  F
 
 RIHartreeFock Dependency: number of modified vectors:           5
 cosmo_calcen: 0.5 (esolb+esolc) (Hartrees) =   -0.113488

 Solvation energy (screening term,uncorrected) =    -71.214824 kcal/mol

 Solvation energy (dispersion and cavitation terms) =      1.198372 kcal/mol
 Solvation Energy Contributions (Hartrees)
          esola   esolb+esolc
     0.11348803   -0.22697607
 esol last cycle   -0.11348803
  
 Hartree-Fock exchange energy:   -544.103782220782     
 cosmo_calcen: 0.5 (esolb+esolc) (Hartrees) =   -0.113488

 Solvation energy (screening term,uncorrected) =    -71.214830 kcal/mol

 Solvation energy (dispersion and cavitation terms) =      1.198372 kcal/mol
 Solvation Energy Contributions (Hartrees)
          esola   esolb+esolc
     0.11348804   -0.22697609
 esol last cycle   -0.11348804

 Energy gradients wrt nuclear displacements
 ==========================================

     Atom      Cartesian (a.u./angstrom)
                 X         Y         Z
 ----------------------------------------
     1 Pa   -0.003004  0.000322 -0.000749
     2 O    -0.000869  0.000768 -0.000417
     3 H     0.000745  0.000028 -0.000209
     4 O     0.000261 -0.000575  0.000010
     5 H    -0.000163  0.000543  0.000017
     6 O     0.000508  0.000434  0.000372
     7 H    -0.000325 -0.000498 -0.000044
     8 O    -0.001078 -0.000466  0.000212
     9 H     0.000780 -0.000256  0.000391
    10 O     0.001904 -0.001554 -0.001323
    11 O     0.001709  0.001048  0.002018
    12 C    -0.001281  0.000844  0.000071
    13 C    -0.001366 -0.000362 -0.000675
    14 O     0.001028  0.000259  0.000817
    15 O     0.001150 -0.000535 -0.000493
 ----------------------------------------
 Mulliken charges used for AMS results%charges...

 dE(predicted):    -0.21001E-04, dE(actual):    -0.53891E-04, Trust radius:    0.400000, all in a.u.
 
----------------------------------------------------------------------
Geometry Convergence after Step  11       (Hartree/Angstrom,Angstrom)
----------------------------------------------------------------------
current energy                               -4.76308629 Hartree
energy change                      -0.00005389     0.00001500    F
constrained gradient max            0.00300059     0.00010000    F
constrained gradient rms            0.00094317     0.00006667    F
gradient max                        0.00300059
gradient rms                        0.00094317
cart. step max                      0.03388707     0.00100000    F
cart. step rms                      0.00804431     0.00066667    F
 
 
--------
Geometry
--------
Formula: C2H4O8Pa
Atoms
  Index Symbol   x (angstrom)   y (angstrom)   z (angstrom)
      1     Pa     0.54276422    -0.20079353    -0.44490620       adf.R=2.200
      2      O     0.99325184     1.31530660    -1.85298752       adf.R=1.517
      3      H     1.58903581     1.57088943    -2.56666961       adf.R=1.350
      4      O    -0.81536063     1.10548297     0.59040921       adf.R=1.517
      5      H    -1.11680929     2.00164211     0.40011672       adf.R=1.350
      6      O    -0.71163141    -1.20126280    -1.87926410       adf.R=1.517
      7      H    -1.26093957    -1.98882867    -1.78573778       adf.R=1.350
      8      O     0.18413115    -1.73035554     0.97693208       adf.R=1.517
      9      H     0.37928334    -2.01531190     1.87730058       adf.R=1.350
     10      O     2.39006630     0.45317749     0.83092488       adf.R=1.517
     11      O     2.51373941    -1.29037563    -1.06700090       adf.R=1.517
     12      C     3.57727713    -0.03827329     0.67100537       adf.R=1.700
     13      C     3.65392275    -1.09176495    -0.48646273       adf.R=1.700
     14      O     4.56632868     0.25067501     1.32527807       adf.R=1.517
     15      O     4.70695999    -1.63990007    -0.76986905       adf.R=1.517
 
Total System Charge            -1.00000
Bonding info available!
 
 *** GO1_GOStep12 ***

 SOLVATION
-------------------------------------------

  The Delley construction of COSMO surface surface is calculated

       Division Level for Surface Triangles (NDIV)                  3
       Final Division Level for Triangles (NFDIV)                   1
       Radius of the Solvent (RSOL)                           1.93000 angstr
  Dielectric Constant (EPSL)                                 78.39000

       COSMO equation is solved iteratively-               conjugate-gradient

       Maximun of Iterations for Charges (NCIX)                  1000
       Criterion for Charge convergence (CCNV)                1.0E-08

  COSMO charges included variationally in SCF

       COSMO included at every SCF cycle

  Geometry-dependent empirical factor                         0.00000

  C-Matrix calculated in cspmtx

  In cspmtx, C-Matrix calculated using fitted potential

-------------------------------------------



 -------------------------------------------
  COSMO surface
  Area             =          641.169
  Volume           =         1089.735
  Number of Points =         1745
 -------------------------------------------



 ======================
 RI Hartree-Fock Scheme
 ======================
  
 Fit Set Quality     : GOOD
 Threshold Quality   : GOOD
 Integration Quality : GOOD
 Response Quality    : DEFAULT
 Is Range Separated  :  F
 
 RIHartreeFock Dependency: number of modified vectors:           5
 cosmo_calcen: 0.5 (esolb+esolc) (Hartrees) =   -0.113625

 Solvation energy (screening term,uncorrected) =    -71.300701 kcal/mol

 Solvation energy (dispersion and cavitation terms) =      1.198936 kcal/mol
 Solvation Energy Contributions (Hartrees)
          esola   esolb+esolc
     0.11362489   -0.22724978
 esol last cycle   -0.11362489
  
 Hartree-Fock exchange energy:   -544.105618174607     
 cosmo_calcen: 0.5 (esolb+esolc) (Hartrees) =   -0.113625

 Solvation energy (screening term,uncorrected) =    -71.300693 kcal/mol

 Solvation energy (dispersion and cavitation terms) =      1.198936 kcal/mol
 Solvation Energy Contributions (Hartrees)
          esola   esolb+esolc
     0.11362487   -0.22724975
 esol last cycle   -0.11362487

 Energy gradients wrt nuclear displacements
 ==========================================

     Atom      Cartesian (a.u./angstrom)
                 X         Y         Z
 ----------------------------------------
     1 Pa   -0.001267 -0.000006 -0.000397
     2 O    -0.001135  0.000374 -0.000361
     3 H     0.000658  0.000183 -0.000237
     4 O     0.000536 -0.000739 -0.000198
     5 H    -0.000290  0.000531  0.000064
     6 O     0.000708  0.000649  0.000562
     7 H    -0.000410 -0.000467 -0.000106
     8 O    -0.001148  0.000050 -0.000014
     9 H     0.000692 -0.000429  0.000480
    10 O     0.001702 -0.001822 -0.001489
    11 O     0.001615  0.001310  0.002204
    12 C    -0.002020 -0.000156 -0.001371
    13 C    -0.002368  0.000948  0.000359
    14 O     0.001307  0.000394  0.001082
    15 O     0.001421 -0.000820 -0.000578
 ----------------------------------------
 Mulliken charges used for AMS results%charges...

 dE(predicted):    -0.23649E-04, dE(actual):    -0.56503E-04, Trust radius:    0.400000, all in a.u.
 
----------------------------------------------------------------------
Geometry Convergence after Step  12       (Hartree/Angstrom,Angstrom)
----------------------------------------------------------------------
current energy                               -4.76314279 Hartree
energy change                      -0.00005650     0.00001500    F
constrained gradient max            0.00237116     0.00010000    F
constrained gradient rms            0.00100238     0.00006667    F
gradient max                        0.00237116
gradient rms                        0.00100238
cart. step max                      0.03459796     0.00100000    F
cart. step rms                      0.00802787     0.00066667    F
 
 
--------
Geometry
--------
Formula: C2H4O8Pa
Atoms
  Index Symbol   x (angstrom)   y (angstrom)   z (angstrom)
      1     Pa     0.55100939    -0.20282788    -0.44277456       adf.R=2.200
      2      O     0.99673596     1.31108091    -1.85144656       adf.R=1.517
      3      H     1.56643144     1.58298527    -2.57979038       adf.R=1.350
      4      O    -0.80690682     1.10286981     0.59278106       adf.R=1.517
      5      H    -1.12299636     1.99325864     0.40034648       adf.R=1.350
      6      O    -0.70397118    -1.19954341    -1.87964592       adf.R=1.517
      7      H    -1.26353930    -1.97977114    -1.78746289       adf.R=1.350
      8      O     0.18855300    -1.72927447     0.97828928       adf.R=1.517
      9      H     0.34468537    -2.02080134     1.88378232       adf.R=1.350
     10      O     2.39605308     0.45533123     0.83198730       adf.R=1.517
     11      O     2.51902731    -1.29400166    -1.06661800       adf.R=1.517
     12      C     3.58319751    -0.03689880     0.66903927       adf.R=1.700
     13      C     3.65869397    -1.09334084    -0.48434158       adf.R=1.700
     14      O     4.57378233     0.25482387     1.31931535       adf.R=1.517
     15      O     4.71126401    -1.64358295    -0.76439215       adf.R=1.517
 
Total System Charge            -1.00000
Bonding info available!
 
 *** GO1_GOStep13 ***

 SOLVATION
-------------------------------------------

  The Delley construction of COSMO surface surface is calculated

       Division Level for Surface Triangles (NDIV)                  3
       Final Division Level for Triangles (NFDIV)                   1
       Radius of the Solvent (RSOL)                           1.93000 angstr
  Dielectric Constant (EPSL)                                 78.39000

       COSMO equation is solved iteratively-               conjugate-gradient

       Maximun of Iterations for Charges (NCIX)                  1000
       Criterion for Charge convergence (CCNV)                1.0E-08

  COSMO charges included variationally in SCF

       COSMO included at every SCF cycle

  Geometry-dependent empirical factor                         0.00000

  C-Matrix calculated in cspmtx

  In cspmtx, C-Matrix calculated using fitted potential

-------------------------------------------



 -------------------------------------------
  COSMO surface
  Area             =          644.139
  Volume           =         1093.726
  Number of Points =         1753
 -------------------------------------------



 ======================
 RI Hartree-Fock Scheme
 ======================
  
 Fit Set Quality     : GOOD
 Threshold Quality   : GOOD
 Integration Quality : GOOD
 Response Quality    : DEFAULT
 Is Range Separated  :  F
 
 RIHartreeFock Dependency: number of modified vectors:           5
 cosmo_calcen: 0.5 (esolb+esolc) (Hartrees) =   -0.113777

 Solvation energy (screening term,uncorrected) =    -71.395861 kcal/mol

 Solvation energy (dispersion and cavitation terms) =      1.204489 kcal/mol
 Solvation Energy Contributions (Hartrees)
          esola   esolb+esolc
     0.11377653   -0.22755307
 esol last cycle   -0.11377653
  
 Hartree-Fock exchange energy:   -544.107041342809     
 cosmo_calcen: 0.5 (esolb+esolc) (Hartrees) =   -0.113777

 Solvation energy (screening term,uncorrected) =    -71.395852 kcal/mol

 Solvation energy (dispersion and cavitation terms) =      1.204489 kcal/mol
 Solvation Energy Contributions (Hartrees)
          esola   esolb+esolc
     0.11377652   -0.22755304
 esol last cycle   -0.11377652

 Energy gradients wrt nuclear displacements
 ==========================================

     Atom      Cartesian (a.u./angstrom)
                 X         Y         Z
 ----------------------------------------
     1 Pa    0.000362 -0.000201 -0.000239
     2 O    -0.001151 -0.000125 -0.000239
     3 H     0.000405  0.000199 -0.000008
     4 O     0.000656 -0.000558 -0.000388
     5 H    -0.000314  0.000215  0.000155
     6 O     0.000710  0.000555  0.000714
     7 H    -0.000346 -0.000211 -0.000162
     8 O    -0.001048  0.000546  0.000040
     9 H     0.000524 -0.000455  0.000166
    10 O     0.000631 -0.001056 -0.000906
    11 O     0.000664  0.000804  0.001269
    12 C    -0.001157 -0.001097 -0.002002
    13 C    -0.001620  0.001718  0.001259
    14 O     0.000790  0.000313  0.000749
    15 O     0.000895 -0.000646 -0.000407
 ----------------------------------------
 Mulliken charges used for AMS results%charges...

 dE(predicted):    -0.22350E-04, dE(actual):    -0.51191E-04, Trust radius:    0.400000, all in a.u.
 
----------------------------------------------------------------------
Geometry Convergence after Step  13       (Hartree/Angstrom,Angstrom)
----------------------------------------------------------------------
current energy                               -4.76319398 Hartree
energy change                      -0.00005119     0.00001500    F
constrained gradient max            0.00197371     0.00010000    F
constrained gradient rms            0.00078464     0.00006667    F
gradient max                        0.00197371
gradient rms                        0.00078464
cart. step max                      0.02165591     0.00100000    F
cart. step rms                      0.00497762     0.00066667    F
 
 
--------
Geometry
--------
Formula: C2H4O8Pa
Atoms
  Index Symbol   x (angstrom)   y (angstrom)   z (angstrom)
      1     Pa     0.55540866    -0.20399528    -0.44130304       adf.R=2.200
      2      O     1.00214422     1.30779155    -1.84950385       adf.R=1.517
      3      H     1.55395041     1.59014257    -2.58718835       adf.R=1.350
      4      O    -0.80225663     1.10150378     0.59486814       adf.R=1.517
      5      H    -1.12730620     1.98804563     0.40070981       adf.R=1.350
      6      O    -0.69980967    -1.19868548    -1.88021552       adf.R=1.517
      7      H    -1.26540066    -1.97430847    -1.78840666       adf.R=1.350
      8      O     0.19406128    -1.72910073     0.97904166       adf.R=1.517
      9      H     0.32302946    -2.02454986     1.88719523       adf.R=1.350
     10      O     2.39903946     0.45849456     0.83333507       adf.R=1.517
     11      O     2.52133160    -1.29747368    -1.06747612       adf.R=1.517
     12      C     3.58603531    -0.03509735     0.66785446       adf.R=1.700
     13      C     3.66067809    -1.09482740    -0.48351697       adf.R=1.700
     14      O     4.57806438     0.25822960     1.31438404       adf.R=1.517
     15      O     4.71305002    -1.64586221    -0.76070888       adf.R=1.517
 
Total System Charge            -1.00000
Bonding info available!
 
 *** GO1_GOStep14 ***

 SOLVATION
-------------------------------------------

  The Delley construction of COSMO surface surface is calculated

       Division Level for Surface Triangles (NDIV)                  3
       Final Division Level for Triangles (NFDIV)                   1
       Radius of the Solvent (RSOL)                           1.93000 angstr
  Dielectric Constant (EPSL)                                 78.39000

       COSMO equation is solved iteratively-               conjugate-gradient

       Maximun of Iterations for Charges (NCIX)                  1000
       Criterion for Charge convergence (CCNV)                1.0E-08

  COSMO charges included variationally in SCF

       COSMO included at every SCF cycle

  Geometry-dependent empirical factor                         0.00000

  C-Matrix calculated in cspmtx

  In cspmtx, C-Matrix calculated using fitted potential

-------------------------------------------



 -------------------------------------------
  COSMO surface
  Area             =          643.432
  Volume           =         1091.277
  Number of Points =         1751
 -------------------------------------------



 ======================
 RI Hartree-Fock Scheme
 ======================
  
 Fit Set Quality     : GOOD
 Threshold Quality   : GOOD
 Integration Quality : GOOD
 Response Quality    : DEFAULT
 Is Range Separated  :  F
 
 RIHartreeFock Dependency: number of modified vectors:           5
 cosmo_calcen: 0.5 (esolb+esolc) (Hartrees) =   -0.113894

 Solvation energy (screening term,uncorrected) =    -71.469859 kcal/mol

 Solvation energy (dispersion and cavitation terms) =      1.203169 kcal/mol
 Solvation Energy Contributions (Hartrees)
          esola   esolb+esolc
     0.11389446   -0.22778892
 esol last cycle   -0.11389446
  
 Hartree-Fock exchange energy:   -544.107236885419     
 cosmo_calcen: 0.5 (esolb+esolc) (Hartrees) =   -0.113894

 Solvation energy (screening term,uncorrected) =    -71.469849 kcal/mol

 Solvation energy (dispersion and cavitation terms) =      1.203169 kcal/mol
 Solvation Energy Contributions (Hartrees)
          esola   esolb+esolc
     0.11389444   -0.22778888
 esol last cycle   -0.11389444

 Energy gradients wrt nuclear displacements
 ==========================================

     Atom      Cartesian (a.u./angstrom)
                 X         Y         Z
 ----------------------------------------
     1 Pa    0.001139 -0.000347  0.000038
     2 O    -0.000876 -0.000354 -0.000345
     3 H     0.000145  0.000148  0.000272
     4 O     0.000564 -0.000203 -0.000417
     5 H    -0.000250 -0.000123  0.000231
     6 O     0.000444  0.000176  0.000609
     7 H    -0.000169  0.000129 -0.000213
     8 O    -0.000850  0.000816  0.000225
     9 H     0.000420 -0.000404 -0.000220
    10 O    -0.000431  0.000016 -0.000119
    11 O    -0.000347  0.000060  0.000034
    12 C     0.000226 -0.001235 -0.001471
    13 C    -0.000043  0.001400  0.001325
    14 O     0.000011  0.000100  0.000157
    15 O     0.000016 -0.000178 -0.000107
 ----------------------------------------
 Mulliken charges used for AMS results%charges...

 dE(predicted):    -0.13850E-04, dE(actual):    -0.28567E-04, Trust radius:    0.400000, all in a.u.
 
----------------------------------------------------------------------
Geometry Convergence after Step  14       (Hartree/Angstrom,Angstrom)
----------------------------------------------------------------------
current energy                               -4.76322255 Hartree
energy change                      -0.00002857     0.00001500    F
constrained gradient max            0.00144558     0.00010000    F
constrained gradient rms            0.00054921     0.00006667    F
gradient max                        0.00144558
gradient rms                        0.00054921
cart. step max                      0.01091188     0.00100000    F
cart. step rms                      0.00248954     0.00066667    F
 
 
--------
Geometry
--------
Formula: C2H4O8Pa
[...]
    11     O       0.029154  -0.098076  -0.092786
    12     C      -0.012721   0.037302   0.041614
    13     C      -0.009522  -0.041523  -0.037064
    14     O      -0.013663   0.054430   0.048390
    15     O      -0.010347  -0.049054  -0.055584
 
 Mode:    29      Frequency (cm-1):      478.0400     Intensity (km/mol):      244.1415
 Index  Atom      ---- Displacements (x/y/z) ----
     1    Pa      -0.029042   0.007159   0.002900
     2     O       0.018257   0.063326  -0.073715
     3     H       0.036742   0.105024  -0.066721
     4     O       0.166637  -0.188300  -0.092380
     5     H       0.419954  -0.148163  -0.442547
     6     O       0.084995   0.074992   0.077362
     7     H       0.132438   0.011304   0.287188
     8     O      -0.009914  -0.033872   0.038423
     9     H      -0.031124  -0.030908   0.017986
    10     O       0.065442   0.244921   0.261399
    11     O       0.087028  -0.255062  -0.242781
    12     C      -0.011471   0.096018   0.111046
    13     C      -0.002992  -0.113378  -0.094692
    14     O      -0.014412   0.139910   0.132285
    15     O      -0.002848  -0.132340  -0.141892
 
 Mode:    30      Frequency (cm-1):      483.7017     Intensity (km/mol):      260.9791
 Index  Atom      ---- Displacements (x/y/z) ----
     1    Pa      -0.001938  -0.023569  -0.031488
     2     O      -0.008558   0.000323   0.004737
     3     H       0.006115   0.017219   0.005247
     4     O      -0.177291   0.192033   0.104025
     5     H      -0.342007   0.178770   0.404384
     6     O       0.216038   0.183323   0.210955
     7     H       0.250979   0.107000   0.622680
     8     O      -0.012631  -0.050361   0.059171
     9     H       0.003078  -0.072295   0.068099
    10     O       0.008651   0.020557   0.023271
    11     O       0.006100  -0.025755  -0.024039
    12     C       0.002214   0.010519   0.012811
    13     C      -0.001698  -0.008460  -0.007049
    14     O       0.003683   0.014203   0.014459
    15     O      -0.003225  -0.009963  -0.011421
 
 Mode:    31      Frequency (cm-1):      493.3498     Intensity (km/mol):       79.5030
 Index  Atom      ---- Displacements (x/y/z) ----
     1    Pa      -0.000636  -0.000114  -0.000104
     2     O      -0.005261   0.011587  -0.010405
     3     H      -0.038679  -0.010665  -0.006381
     4     O       0.000989  -0.001801  -0.002047
     5     H       0.000741  -0.000868   0.003590
     6     O       0.003363   0.001670   0.002968
     7     H      -0.001284   0.004189   0.017300
     8     O       0.011535   0.017239  -0.016414
     9     H       0.023959   0.012012  -0.005602
    10     O      -0.029105  -0.171327   0.170567
    11     O      -0.045006  -0.185418   0.149947
    12     C       0.109101   0.437715  -0.422771
    13     C       0.096217   0.429297  -0.432189
    14     O      -0.033278  -0.155293   0.181640
    15     O      -0.047123  -0.165768   0.166114
 
 Mode:    32      Frequency (cm-1):      508.5404     Intensity (km/mol):      398.7592
 Index  Atom      ---- Displacements (x/y/z) ----
     1    Pa      -0.006865  -0.035205   0.029343
     2     O       0.028842   0.175276  -0.196467
     3     H       0.321282   0.473865  -0.200231
     4     O      -0.038571   0.050252   0.016235
     5     H      -0.063842   0.051380   0.081921
     6     O       0.013079   0.015007   0.005574
     7     H      -0.002636   0.028834  -0.002331
     8     O       0.088310   0.196869  -0.215561
     9     H      -0.132775   0.564198  -0.333989
    10     O       0.003122   0.004420  -0.003081
    11     O      -0.000110  -0.002732  -0.010466
    12     C      -0.000931  -0.004950   0.007016
    13     C      -0.003192  -0.007107   0.003654
    14     O      -0.000226   0.005336   0.001271
    15     O       0.000115   0.002662  -0.000702
 
 Mode:    33      Frequency (cm-1):      562.9882     Intensity (km/mol):        0.5314
 Index  Atom      ---- Displacements (x/y/z) ----
     1    Pa       0.000208   0.001087  -0.000055
     2     O       0.001386  -0.004059   0.002000
     3     H      -0.028279  -0.035187   0.002400
     4     O       0.006894  -0.006723  -0.005116
     5     H      -0.001585  -0.010406  -0.008043
     6     O      -0.007055  -0.006660  -0.009092
     7     H      -0.002929  -0.010861   0.002343
     8     O      -0.003050  -0.003495   0.002323
     9     H       0.012850  -0.029430   0.011117
    10     O       0.272302  -0.289490  -0.236265
    11     O      -0.247237  -0.233641  -0.309984
    12     C       0.321174  -0.013903   0.086857
    13     C      -0.330302   0.042549   0.000863
    14     O       0.207714   0.233950   0.277383
    15     O      -0.225852   0.278335   0.213240
 
 Mode:    34      Frequency (cm-1):      596.5796     Intensity (km/mol):      170.5616
 Index  Atom      ---- Displacements (x/y/z) ----
     1    Pa       0.019253  -0.001012   0.003521
     2     O       0.046790   0.184854  -0.181476
     3     H       0.116383   0.261954  -0.183829
     4     O      -0.195563   0.193266   0.126152
     5     H      -0.275675   0.187743   0.249051
     6     O      -0.190387  -0.151944  -0.206038
     7     H      -0.210153  -0.122719  -0.376340
     8     O      -0.064364  -0.196152   0.191076
     9     H      -0.021699  -0.275756   0.216389
    10     O       0.007728   0.084474   0.093435
    11     O       0.015975  -0.090777  -0.085145
    12     C       0.028465   0.035235   0.043297
    13     C       0.032515  -0.039368  -0.036440
    14     O       0.039674   0.016042   0.025030
    15     O       0.040944  -0.025264  -0.013071
 
 Mode:    35      Frequency (cm-1):      762.8712     Intensity (km/mol):      203.8538
 Index  Atom      ---- Displacements (x/y/z) ----
     1    Pa       0.000188  -0.004587  -0.004831
     2     O       0.001337  -0.000643  -0.000593
     3     H      -0.013832  -0.008881   0.001821
     4     O      -0.001632  -0.002376  -0.001266
     5     H       0.007809   0.001584  -0.003895
     6     O       0.001444  -0.002693  -0.000782
     7     H      -0.002864   0.002396  -0.006890
     8     O      -0.001248  -0.000175  -0.000720
     9     H       0.007040  -0.011796   0.004356
    10     O       0.392476   0.107883   0.202489
    11     O      -0.406133   0.188801   0.088512
    12     C       0.034316  -0.287388  -0.275276
    13     C      -0.010065  -0.279094  -0.291493
    14     O      -0.330106   0.133924   0.057485
    15     O       0.323066   0.067584   0.150163
 
 Mode:    36      Frequency (cm-1):      873.5158     Intensity (km/mol):      129.4709
 Index  Atom      ---- Displacements (x/y/z) ----
     1    Pa       0.002617  -0.000343   0.000413
     2     O      -0.005666  -0.025211   0.022911
     3     H       0.000888  -0.012854   0.027414
     4     O       0.024676  -0.020913  -0.013964
     5     H       0.020944  -0.025156  -0.015400
     6     O       0.023260   0.015058   0.023134
     7     H       0.022125   0.018748   0.026493
     8     O       0.008060   0.025219  -0.023211
     9     H       0.015413   0.011594  -0.023524
    10     O      -0.429450   0.005419  -0.088307
    11     O      -0.424994   0.081061  -0.033787
    12     C       0.017121   0.307382   0.272462
    13     C       0.031510  -0.312301  -0.265154
    14     O       0.363092  -0.026218   0.065723
    15     O       0.362994  -0.045286   0.035105
 
 Mode:    37      Frequency (cm-1):      882.2617     Intensity (km/mol):        0.5823
 Index  Atom      ---- Displacements (x/y/z) ----
     1    Pa      -0.000015   0.000068   0.000037
     2     O      -0.000465  -0.002380  -0.001140
     3     H       0.003885  -0.040962  -0.013031
     4     O       0.001092   0.000443  -0.001895
     5     H       0.011737  -0.002303  -0.034316
     6     O       0.000615  -0.001038   0.001947
     7     H       0.007982  -0.009186   0.031969
     8     O      -0.000140   0.002438   0.001052
     9     H       0.007171   0.036233   0.016238
    10     O       0.006599   0.091835  -0.097438
    11     O      -0.039898  -0.093554   0.087548
    12     C      -0.108805  -0.460908   0.482041
    13     C       0.117734   0.466238  -0.476627
    14     O       0.039730   0.101228  -0.098046
    15     O      -0.015953  -0.102937   0.103315
 
 Mode:    38      Frequency (cm-1):     1218.3525     Intensity (km/mol):      163.1775
 Index  Atom      ---- Displacements (x/y/z) ----
     1    Pa      -0.000051   0.001482   0.001483
     2     O       0.001920  -0.001136  -0.001876
     3     H      -0.016334  -0.010134   0.001537
     4     O      -0.000840  -0.000456  -0.000270
     5     H       0.000077   0.002325   0.002934
     6     O       0.001043  -0.000517  -0.000210
     7     H       0.001477   0.000960   0.001221
     8     O      -0.001015  -0.000445  -0.002025
     9     H       0.008628  -0.017538   0.003479
    10     O       0.346323  -0.160332  -0.081587
    11     O      -0.336629  -0.093365  -0.177760
    12     C      -0.355198   0.334180   0.250383
    13     C       0.328006   0.262183   0.350109
    14     O      -0.150113  -0.090793  -0.125821
    15     O       0.160839  -0.120247  -0.082964
 
 Mode:    39      Frequency (cm-1):     1337.5609     Intensity (km/mol):     1310.6365
 Index  Atom      ---- Displacements (x/y/z) ----
     1    Pa       0.002122  -0.000219   0.000342
     2     O       0.001659   0.013175  -0.011241
     3     H      -0.004703   0.003856  -0.017266
     4     O      -0.009844   0.008524   0.006693
     5     H      -0.008631   0.010803   0.000795
     6     O      -0.008852  -0.006314  -0.010148
     7     H      -0.011313  -0.008175  -0.005476
     8     O      -0.005098  -0.012721   0.011025
     9     H      -0.012330  -0.003705   0.013034
    10     O       0.308216  -0.151802  -0.081838
    11     O       0.298266   0.092566   0.167127
    12     C      -0.374834   0.375351   0.293633
    13     C      -0.342521  -0.305469  -0.394111
    14     O      -0.034249  -0.049302  -0.058369
    15     O      -0.040233   0.056435   0.047758
 
 Mode:    40      Frequency (cm-1):     1661.7386     Intensity (km/mol):      238.8224
 Index  Atom      ---- Displacements (x/y/z) ----
     1    Pa       0.000189   0.001094   0.001202
     2     O       0.000765   0.000026  -0.001251
     3     H      -0.006845  -0.002496   0.000205
     4     O      -0.001101   0.000206   0.000261
     5     H      -0.000836   0.002032   0.001387
     6     O       0.000310  -0.000293  -0.000216
     7     H      -0.000039   0.001060  -0.001425
     8     O      -0.000598  -0.000764  -0.000558
     9     H       0.001699  -0.007661   0.000796
    10     O       0.034558  -0.006357   0.001296
    11     O      -0.031288   0.000552  -0.007372
    12     C      -0.564871  -0.136317  -0.271681
    13     C       0.518272  -0.214213  -0.086355
    14     O       0.324395   0.106312   0.182028
    15     O      -0.294434   0.147938   0.077001
 
 Mode:    41      Frequency (cm-1):     1678.1611     Intensity (km/mol):     2138.0534
 Index  Atom      ---- Displacements (x/y/z) ----
     1    Pa      -0.003819   0.000500  -0.000524
     2     O      -0.000592  -0.007858   0.006660
     3     H       0.007373  -0.002696   0.011233
     4     O       0.006479  -0.004740  -0.003506
     5     H       0.005995  -0.008048  -0.000970
     6     O       0.005975   0.003219   0.005801
     7     H       0.007394   0.006818   0.003940
     8     O       0.003221   0.007486  -0.006683
     9     H       0.012371   0.000319  -0.006364
    10     O      -0.026991   0.007916   0.002276
    11     O      -0.031074  -0.003005  -0.010890
    12     C       0.443374   0.176996   0.280609
    13     C       0.532152  -0.294483  -0.165612
    14     O      -0.292265  -0.109392  -0.177674
    15     O      -0.343561   0.187525   0.104815
 
 Mode:    42      Frequency (cm-1):     3804.4748     Intensity (km/mol):      259.2634
 Index  Atom      ---- Displacements (x/y/z) ----
     1    Pa       0.000001   0.000018  -0.000034
     2     O      -0.018298   0.016859  -0.056746
     3     H       0.292283  -0.269015   0.906970
     4     O       0.002260  -0.005888   0.001254
     5     H      -0.038745   0.095878  -0.017842
     6     O       0.001667   0.002000   0.000091
     7     H      -0.029512  -0.035096  -0.003416
     8     O       0.002197   0.000548  -0.002206
     9     H      -0.035330  -0.009280   0.035333
    10     O       0.000209  -0.000008   0.000078
    11     O       0.000235  -0.000074   0.000027
    12     C      -0.000227   0.000055  -0.000055
    13     C      -0.000261  -0.000016  -0.000030
    14     O       0.000091   0.000022   0.000041
    15     O       0.000105  -0.000041  -0.000019
 
 Mode:    43      Frequency (cm-1):     3811.9848     Intensity (km/mol):      243.1294
 Index  Atom      ---- Displacements (x/y/z) ----
     1    Pa       0.000015   0.000023  -0.000027
     2     O       0.000342  -0.000337   0.001005
     3     H      -0.005156   0.005017  -0.016514
     4     O      -0.005990   0.014897  -0.002854
     5     H       0.097619  -0.241370   0.044853
     6     O      -0.002774  -0.003351  -0.000181
     7     H       0.045898   0.054424   0.005819
     8     O       0.041561   0.011167  -0.042010
     9     H      -0.662963  -0.178217   0.670513
    10     O      -0.000200  -0.000010  -0.000028
    11     O      -0.000219   0.000030   0.000015
    12     C       0.000205  -0.000048   0.000031
    13     C       0.000195   0.000006   0.000037
    14     O      -0.000083  -0.000021  -0.000032
    15     O      -0.000092   0.000023   0.000023
 
 Mode:    44      Frequency (cm-1):     3817.0694     Intensity (km/mol):      267.9129
 Index  Atom      ---- Displacements (x/y/z) ----
     1    Pa       0.000013  -0.000038  -0.000005
     2     O       0.001794  -0.001847   0.006243
     3     H      -0.030966   0.028195  -0.096336
     4     O       0.022190  -0.054270   0.009887
     5     H      -0.350867   0.864937  -0.159921
     6     O      -0.006563  -0.007759  -0.000608
     7     H       0.107560   0.126333   0.013576
     8     O       0.010698   0.003089  -0.010924
     9     H      -0.170004  -0.045800   0.171835
    10     O      -0.000320  -0.000022  -0.000105
    11     O      -0.000136   0.000054   0.000035
    12     C       0.000301  -0.000083   0.000068
    13     C       0.000150  -0.000001  -0.000036
    14     O      -0.000124  -0.000013  -0.000045
    15     O      -0.000071   0.000037   0.000029
 
 Mode:    45      Frequency (cm-1):     3826.9997     Intensity (km/mol):      264.6687
 Index  Atom      ---- Displacements (x/y/z) ----
     1    Pa       0.000020   0.000021   0.000003
     2     O       0.001074  -0.001360   0.003949
     3     H      -0.019189   0.017704  -0.059660
     4     O       0.003380  -0.008026   0.001262
     5     H      -0.050326   0.124462  -0.023222
     6     O       0.039837   0.046792   0.005226
     7     H      -0.632688  -0.744882  -0.078932
     8     O       0.004715   0.001461  -0.005076
     9     H      -0.075338  -0.020004   0.076136
    10     O      -0.000161  -0.000037  -0.000087
    11     O      -0.000307   0.000096   0.000027
    12     C       0.000186  -0.000033   0.000099
    13     C       0.000296   0.000022  -0.000003
    14     O      -0.000079  -0.000026  -0.000042
    15     O      -0.000119   0.000040   0.000021

PES point character: Geometry corresponds to a local minimum on the PES.




 ============================
 Statistical Thermal Analysis  ***  ideal gas assumed  ***
 ============================
  
 Pressure:                  1.000000 atm.
 Temperature:             298.150000 K



 Moments of Inertia [amu*bohr^2] and principal axis
 ==================================================

        1399.1926       3621.1900       3867.2351
 ------------------------------------------------
           0.9831         -0.0287         -0.1807
          -0.1075          0.7087         -0.6973
           0.1480          0.7049          0.6937


 The rotational contribution to the molecular entropy includes
 a term, dependent on the symmetry number sigma. The results 
 reported below were computed using sigma = 1, determined from
 the point group symmetry of the input geometry (NOSYM). 
 If this is not the correct symmetry, try symmetrizing the molecule before
 running the calculation (note: linear molecules should be aligned along one
 of the Cartesian axes).
 Contributions from frequencies below 20 1/cm are not included in vibrational sums.
 Their contributions, if any, are reported separately.


     Temp                                                        Transl      Rotat     Vibrat     Total
     ----                                                        ------      -----     ------     -----

     298.15   Entropy (cal/mol-K):                               43.752     31.350     59.477    134.579
              Nuclear Internal Energy (kcal/mol):                 0.889      0.889     53.505     55.282
              Constant Volume Heat Capacity (cal/mol-K):          2.981      2.981     49.343     55.305
          (c) Constant Volume Heat Capacity (cal/mol-K):          2.981      2.981     44.293     50.255

       Summary of energy terms
                                                   hartree              eV         kcal/mol           kJ/mol
                                      --------------------     -----------       ----------      -----------
      Energy from Engine:               -4.764455634241144       -129.6474         -2989.74        -12509.08
      Nuclear Internal Energy:           0.088097909645460          2.3973            55.28           231.30
  (c) Nuclear Internal Energy:           0.085483286317341          2.3261            53.64           224.44
      Internal Energy U:                -4.676357724595684       -127.2502         -2934.46        -12277.78
      pV/n = RT:                         0.000944186013486          0.0257             0.59             2.48
      Enthalpy H:                       -4.675413538582198       -127.2245         -2933.87        -12275.30
      -T*S:                             -0.063942709442550         -1.7400           -40.12          -167.88
  (c) -T*S:                             -0.061908113614170         -1.6846           -38.85          -162.54
      Gibbs free energy:                -4.739356248024749       -128.9644         -2973.99        -12443.18
 
 
 
  (c) The properties marked with this symbol have been corrected using 'low vibrational frequency free rotor
      interpolation corrections'. For those terms all positive frequencies are used (also ones below 20 1/cm),
      but the contribution to the partition function of small vibrational frequencies is modified as described
      in the following paper:
      S. Grimme, 'Supramolecular Binding Thermodynamics by Dispersion-Corrected Density Functional Theory'
      (Chem. Eur. J. 2012, 18, 9955-9964)
      Configuration: Dampener Frequency          :   100.000 1/cm
                     Dampener Alpha              :     4.000
                     Averaging Moment of Inertia : 1.000E-44 kg m2

--------------
Atomic charges
--------------
  Index   Atom    Charge
      1     Pa    2.7813
      2      O   -0.6848
      3      H    0.1236
      4      O   -0.7205
      5      H    0.1343
      6      O   -0.7115
      7      H    0.1241
      8      O   -0.6881
      9      H    0.1250
     10      O   -0.7620
     11      O   -0.7616
     12      C    0.6984
     13      C    0.6976
     14      O   -0.6780
     15      O   -0.6778


Dipole moment vector    (Debye):   -21.09092195    2.93732557   -1.10536700
              magnitude (Debye):    21.32314954


Final PES point is a local minimum. Geometry optimization successful!


AMS application finished. Exiting.
NORMAL TERMINATION
     Total cpu time:  101928.59
  Total system time:    2069.86
 Total elapsed time:  104027.10
