 Entering Gaussian System, Link 0=/home/pcmt/gaussian/g16.C.01/g16/g16
 AtFile(1): /home/shaaban/basis.gaussian/Pa-def-TZVP
 AtFile(1): /home/shaaban/basis.gaussian/Pa-ECP60MWB
 Initial command:
 /home/pcmt/gaussian/g16.C.01/g16/l1.exe "/state/partition2/shaaban/971908.phlam-s-sakura/Gau-35681.inp" -scrdir="/state/partition2/shaaban/971908.phlam-s-sakura/"
 Entering Link 1 = /home/pcmt/gaussian/g16.C.01/g16/l1.exe PID=     35682.
  
 Copyright (c) 1988-2019, Gaussian, Inc.  All Rights Reserved.
  
 This is part of the Gaussian(R) 16 program.  It is based on
 the Gaussian(R) 09 system (copyright 2009, Gaussian, Inc.),
 the Gaussian(R) 03 system (copyright 2003, Gaussian, Inc.),
 the Gaussian(R) 98 system (copyright 1998, Gaussian, Inc.),
 the Gaussian(R) 94 system (copyright 1995, Gaussian, Inc.),
 the Gaussian 92(TM) system (copyright 1992, Gaussian, Inc.),
 the Gaussian 90(TM) system (copyright 1990, Gaussian, Inc.),
 the Gaussian 88(TM) system (copyright 1988, Gaussian, Inc.),
 the Gaussian 86(TM) system (copyright 1986, Carnegie Mellon
 University), and the Gaussian 82(TM) system (copyright 1983,
 Carnegie Mellon University). Gaussian is a federally registered
 trademark of Gaussian, Inc.
  
 This software contains proprietary and confidential information,
 including trade secrets, belonging to Gaussian, Inc.
  
 This software is provided under written license and may be
 used, copied, transmitted, or stored only in accord with that
 written license.
  
 The following legend is applicable only to US Government
 contracts under FAR:
  
                    RESTRICTED RIGHTS LEGEND
  
 Use, reproduction and disclosure by the US Government is
 subject to restrictions as set forth in subparagraphs (a)
 and (c) of the Commercial Computer Software - Restricted
 Rights clause in FAR 52.227-19.
  
 Gaussian, Inc.
 340 Quinnipiac St., Bldg. 40, Wallingford CT 06492
  
  
 ---------------------------------------------------------------
 Warning -- This program may not be used in any manner that
 competes with the business of Gaussian, Inc. or will provide
 assistance to any competitor of Gaussian, Inc.  The licensee
 of this program is prohibited from giving any competitor of
 Gaussian, Inc. access to this program.  By using this program,
 the user acknowledges that Gaussian, Inc. is engaged in the
 business of creating and licensing software in the field of
 computational chemistry and represents and warrants to the
 licensee that it is not a competitor of Gaussian, Inc. and that
 it will not use this program in any manner prohibited above.
 ---------------------------------------------------------------
  

 Cite this work as:
 Gaussian 16, Revision C.01,
 M. J. Frisch, G. W. Trucks, H. B. Schlegel, G. E. Scuseria, 
 M. A. Robb, J. R. Cheeseman, G. Scalmani, V. Barone, 
 G. A. Petersson, H. Nakatsuji, X. Li, M. Caricato, A. V. Marenich, 
 J. Bloino, B. G. Janesko, R. Gomperts, B. Mennucci, H. P. Hratchian, 
 J. V. Ortiz, A. F. Izmaylov, J. L. Sonnenberg, D. Williams-Young, 
 F. Ding, F. Lipparini, F. Egidi, J. Goings, B. Peng, A. Petrone, 
 T. Henderson, D. Ranasinghe, V. G. Zakrzewski, J. Gao, N. Rega, 
 G. Zheng, W. Liang, M. Hada, M. Ehara, K. Toyota, R. Fukuda, 
 J. Hasegawa, M. Ishida, T. Nakajima, Y. Honda, O. Kitao, H. Nakai, 
 T. Vreven, K. Throssell, J. A. Montgomery, Jr., J. E. Peralta, 
 F. Ogliaro, M. J. Bearpark, J. J. Heyd, E. N. Brothers, K. N. Kudin, 
 V. N. Staroverov, T. A. Keith, R. Kobayashi, J. Normand, 
 K. Raghavachari, A. P. Rendell, J. C. Burant, S. S. Iyengar, 
 J. Tomasi, M. Cossi, J. M. Millam, M. Klene, C. Adamo, R. Cammi, 
 J. W. Ochterski, R. L. Martin, K. Morokuma, O. Farkas, 
 J. B. Foresman, and D. J. Fox, Gaussian, Inc., Wallingford CT, 2019.
 
 ******************************************
 Gaussian 16:  ES64L-G16RevC.01  3-Jul-2019
                26-Jun-2023 
 ******************************************
 %mem=16Gb
 %NProc=8
 Will use up to    8 processors via shared memory.
 %chk=pao_oh2_c2o4_h2o-bp86-cosmors-deftzvp-gp.chk
 ----------------------------------------------------------------------
 #p BP86/GEN Pseudo=Read GFInput GFPrint IOP(6/7=3) Symm=(Loose) Int=(U
 ltraFine) Guess=(Harris) Scf=(NoVarAcc,MaxCycle=100,conver=8)
 ----------------------------------------------------------------------
 1/38=1,172=1/1;
 2/12=2,17=4,18=3,40=1/2;
 3/5=7,11=2,16=1,17=8,24=110,25=1,30=1,74=404,75=-5/1,2,3;
 4/11=8/1;
 5/5=2,6=8,7=100,38=1/2;
 6/7=3,8=2,9=2,10=2,28=1/1;
 99/5=1,9=1/99;
 Leave Link    1 at Mon Jun 26 12:44:15 2023, MaxMem=  2147483648 cpu:               2.3 elap:               1.5
 (Enter /home/pcmt/gaussian/g16.C.01/g16/l101.exe)
 -------------------------------------------------------------------
 pao_oh2_c2o4_h2o-bp86-cosmors-deftzvp-gp.com SGP in PCM calculation
 -------------------------------------------------------------------
 Symbolic Z-matrix:
 Charge = -1 Multiplicity = 1
 Pa                    0.45229   0.67866  -0.12307 
 O                     2.56759   0.80594  -0.68558 
 H                    -0.87414   1.46333  -2.53758 
 O                     0.78568  -0.03435   1.5855 
 O                    -0.04547   1.16098  -2.14334 
 O                    -0.4763   -1.59133  -0.72177 
 H                    -0.91211  -1.83295  -1.54921 
 H                    -0.60179  -2.32693  -0.10864 
 H                     3.30666   0.58551  -0.10722 
 O                     0.24657   2.91888   0.58168 
 C                    -2.08762   2.46249   0.90036 
 C                    -0.86656   3.44745   0.96698 
 O                    -1.77651   1.28606   0.47603 
 O                    -3.20579   2.83701   1.23115 
 O                    -1.01645   4.59877   1.35381 
 
 ITRead=  0  0  0  0  0  0  0  0  0  0  0  0  0  0  0
 MicOpt= -1 -1 -1 -1 -1 -1 -1 -1 -1 -1 -1 -1 -1 -1 -1
 NAtoms=     15 NQM=       15 NQMF=       0 NMMI=      0 NMMIF=      0
                NMic=       0 NMicF=      0.
                    Isotopes and Nuclear Properties:
 (Nuclear quadrupole moments (NQMom) in fm**2, nuclear magnetic moments (NMagM)
  in nuclear magnetons)

  Atom         1           2           3           4           5           6           7           8           9          10
 IAtWgt=         231          16           1          16          16          16           1           1           1          16
 AtmWgt= 231.0359000  15.9949146   1.0078250  15.9949146  15.9949146  15.9949146   1.0078250   1.0078250   1.0078250  15.9949146
 NucSpn=           3           0           1           0           0           0           1           1           1           0
 AtZEff=  -0.0000000  -0.0000000  -0.0000000  -0.0000000  -0.0000000  -0.0000000  -0.0000000  -0.0000000  -0.0000000  -0.0000000
 NQMom= -172.0000000   0.0000000   0.0000000   0.0000000   0.0000000   0.0000000   0.0000000   0.0000000   0.0000000   0.0000000
 NMagM=    2.0100000   0.0000000   2.7928460   0.0000000   0.0000000   0.0000000   2.7928460   2.7928460   2.7928460   0.0000000
 AtZNuc=  91.0000000   8.0000000   1.0000000   8.0000000   8.0000000   8.0000000   1.0000000   1.0000000   1.0000000   8.0000000

  Atom        11          12          13          14          15
 IAtWgt=          12          12          16          16          16
 AtmWgt=  12.0000000  12.0000000  15.9949146  15.9949146  15.9949146
 NucSpn=           0           0           0           0           0
 AtZEff=  -0.0000000  -0.0000000  -0.0000000  -0.0000000  -0.0000000
 NQMom=    0.0000000   0.0000000   0.0000000   0.0000000   0.0000000
 NMagM=    0.0000000   0.0000000   0.0000000   0.0000000   0.0000000
 AtZNuc=   6.0000000   6.0000000   8.0000000   8.0000000   8.0000000
 Leave Link  101 at Mon Jun 26 12:44:17 2023, MaxMem=  2147483648 cpu:               3.4 elap:               2.5
 (Enter /home/pcmt/gaussian/g16.C.01/g16/l202.exe)
                          Input orientation:                          
 ---------------------------------------------------------------------
 Center     Atomic      Atomic             Coordinates (Angstroms)
 Number     Number       Type             X           Y           Z
 ---------------------------------------------------------------------
      1         91           0        0.452294    0.678657   -0.123068
      2          8           0        2.567591    0.805943   -0.685580
      3          1           0       -0.874139    1.463326   -2.537582
      4          8           0        0.785684   -0.034351    1.585504
      5          8           0       -0.045470    1.160984   -2.143337
      6          8           0       -0.476295   -1.591329   -0.721766
      7          1           0       -0.912111   -1.832945   -1.549211
      8          1           0       -0.601788   -2.326932   -0.108635
      9          1           0        3.306663    0.585505   -0.107221
     10          8           0        0.246574    2.918882    0.581677
     11          6           0       -2.087617    2.462492    0.900364
     12          6           0       -0.866564    3.447448    0.966985
     13          8           0       -1.776507    1.286061    0.476025
     14          8           0       -3.205788    2.837010    1.231150
     15          8           0       -1.016454    4.598773    1.353813
 ---------------------------------------------------------------------
                    Distance matrix (angstroms):
                    1          2          3          4          5
     1  Pa   0.000000
     2  O    2.192510   0.000000
     3  H    2.864439   3.963277   0.000000
     4  O    1.881155   3.006511   4.690190   0.000000
     5  O    2.135860   3.013171   0.966194   4.002986   0.000000
     6  O    2.524590   3.874721   3.575805   3.056185   3.127571
     7  H    3.194312   4.451731   3.441471   3.992980   3.172958
     8  H    3.185100   4.493632   4.509990   3.170349   4.076157
     9  H    2.855932   0.964012   4.914908   3.099173   3.964056
    10  O    2.357455   3.384904   3.620003   3.165421   3.255948
    11  C    3.268123   5.189444   3.780256   3.867751   3.889524
    12  C    3.254813   4.637019   4.027255   3.903257   3.946671
    13  O    2.386506   4.522282   3.150797   3.088568   3.142163
    14  O    4.458023   6.413345   4.639714   4.929719   4.917707
    15  O    4.439111   5.602683   4.999423   4.976667   4.999126
                    6          7          8          9         10
     6  O    0.000000
     7  H    0.965908   0.000000
     8  H    0.965810   1.554214   0.000000
     9  H    4.407612   5.072109   4.874246   0.000000
    10  O    4.750106   5.335082   5.358620   3.909395   0.000000
    11  C    4.654151   5.082618   5.115109   5.799703   2.399646
    12  C    5.328552   5.849433   5.879671   5.173051   1.291093
    13  O    3.377073   3.817978   3.843892   5.164259   2.601947
    14  O    5.556456   5.899140   5.936509   7.019440   3.513876
    15  O    6.551119   7.057296   7.090563   6.077028   2.239077
                   11         12         13         14         15
    11  C    0.000000
    12  C    1.570206   0.000000
    13  O    1.288737   2.395962   0.000000
    14  O    1.224741   2.431951   2.240202   0.000000
    15  O    2.432428   1.223786   3.510307   2.812835   0.000000
 Stoichiometry    C2H4O8Pa(1-)
 Framework group  C1[X(C2H4O8Pa)]
 Deg. of freedom    39
 Full point group                 C1      NOp   1
 Largest Abelian subgroup         C1      NOp   1
 Largest concise Abelian subgroup C1      NOp   1
                         Standard orientation:                         
 ---------------------------------------------------------------------
 Center     Atomic      Atomic             Coordinates (Angstroms)
 Number     Number       Type             X           Y           Z
 ---------------------------------------------------------------------
      1         91           0        0.642094   -0.091861   -0.041187
      2          8           0        1.946967   -1.836572    0.204559
      3          1           0        0.132142    0.681011    2.669464
      4          8           0        0.775528   -0.057644   -1.917292
      5          8           0        0.694342    0.162769    2.078796
      6          8           0        2.011904    2.028729   -0.057537
      7          1           0        2.228606    2.577732    0.707064
      8          1           0        2.277832    2.520153   -0.845303
      9          1           0        2.333583   -2.342840   -0.519002
     10          8           0       -1.388792   -1.286314    0.038720
     11          6           0       -2.489034    0.844409   -0.049556
     12          6           0       -2.550402   -0.723304    0.014159
     13          8           0       -1.288063    1.311343   -0.071561
     14          8           0       -3.519840    1.505445   -0.071025
     15          8           0       -3.627805   -1.303168    0.038863
 ---------------------------------------------------------------------
 Rotational constants (GHZ):           1.2291779           0.5010817           0.4417619
 Leave Link  202 at Mon Jun 26 12:44:19 2023, MaxMem=  2147483648 cpu:               1.9 elap:               2.0
 (Enter /home/pcmt/gaussian/g16.C.01/g16/l301.exe)
 General basis read from cards:  (5D, 7F)
 Centers:       1
 S 3 1.00
     Exponent=  1.2047376000D+04 Coefficients=  3.4500000000D-04
     Exponent=  1.8116841000D+03 Coefficients=  2.7420000000D-03
     Exponent=  3.4770104000D+02 Coefficients=  1.0053000000D-02
 S 1 1.00
     Exponent=  9.8678010000D+01 Coefficients=  1.0000000000D+00
 S 3 1.00
     Exponent=  5.7507376000D+01 Coefficients=  5.1528000000D-02
     Exponent=  3.3502601000D+01 Coefficients= -2.3692400000D-01
     Exponent=  1.9554451000D+01 Coefficients=  7.1904800000D-01
 S 1 1.00
     Exponent=  9.7164210000D+00 Coefficients=  1.0000000000D+00
 S 1 1.00
     Exponent=  2.6920960000D+00 Coefficients=  1.0000000000D+00
 S 1 1.00
     Exponent=  1.4538470000D+00 Coefficients=  1.0000000000D+00
 S 1 1.00
     Exponent=  5.7435200000D-01 Coefficients=  1.0000000000D+00
 S 1 1.00
     Exponent=  2.6346800000D-01 Coefficients=  1.0000000000D+00
 S 1 1.00
     Exponent=  5.6557000000D-02 Coefficients=  1.0000000000D+00
 S 1 1.00
     Exponent=  2.3169000000D-02 Coefficients=  1.0000000000D+00
 P 5 1.00
     Exponent=  2.9033676000D+03 Coefficients=  3.5000000000D-05
     Exponent=  6.4486356000D+02 Coefficients=  2.0500000000D-04
     Exponent=  2.2025896000D+02 Coefficients=  1.2510000000D-03
     Exponent=  8.0276401000D+01 Coefficients=  2.4570000000D-03
     Exponent=  2.4080211000D+01 Coefficients=  1.1190000000D-02
 P 1 1.00
     Exponent=  1.4077580000D+01 Coefficients=  1.0000000000D+00
 P 1 1.00
     Exponent=  8.2658460000D+00 Coefficients=  1.0000000000D+00
 P 1 1.00
     Exponent=  3.5948000000D+00 Coefficients=  1.0000000000D+00
 P 1 1.00
     Exponent=  1.7531110000D+00 Coefficients=  1.0000000000D+00
 P 1 1.00
     Exponent=  6.5776700000D-01 Coefficients=  1.0000000000D+00
 P 1 1.00
     Exponent=  2.8463900000D-01 Coefficients=  1.0000000000D+00
 P 1 1.00
     Exponent=  1.0054300000D-01 Coefficients=  1.0000000000D+00
 P 1 1.00
     Exponent=  3.0190000000D-02 Coefficients=  1.0000000000D+00
 D 6 1.00
     Exponent=  4.4814991000D+02 Coefficients=  2.6000000000D-05
     Exponent=  1.5446145000D+02 Coefficients=  2.2800000000D-04
     Exponent=  6.0925377000D+01 Coefficients=  9.0400000000D-04
     Exponent=  1.7032091000D+01 Coefficients=  2.5647000000D-02
     Exponent=  1.0018877000D+01 Coefficients= -1.0575100000D-01
     Exponent=  3.4091930000D+00 Coefficients=  4.4743200000D-01
 D 1 1.00
     Exponent=  1.6702130000D+00 Coefficients=  1.0000000000D+00
 D 1 1.00
     Exponent=  7.4109500000D-01 Coefficients=  1.0000000000D+00
 D 1 1.00
     Exponent=  2.6139300000D-01 Coefficients=  1.0000000000D+00
 D 1 1.00
     Exponent=  8.2811000000D-02 Coefficients=  1.0000000000D+00
 F 5 1.00
     Exponent=  8.7991327000D+01 Coefficients=  2.2600000000D-04
     Exponent=  2.8340195000D+01 Coefficients=  2.3230000000D-03
     Exponent=  1.2440994000D+01 Coefficients=  4.5850000000D-03
     Exponent=  3.9572960000D+00 Coefficients=  1.5696100000D-01
     Exponent=  1.8759440000D+00 Coefficients=  3.4497700000D-01
 F 1 1.00
     Exponent=  8.2758900000D-01 Coefficients=  1.0000000000D+00
 F 1 1.00
     Exponent=  3.3274800000D-01 Coefficients=  1.0000000000D+00
 F 1 1.00
     Exponent=  1.1468500000D-01 Coefficients=  1.0000000000D+00
 G 1 1.00
     Exponent=  3.5000000000D-01 Coefficients=  1.0000000000D+00
 ****
 Centers:       2      4      5      6     10     13     14     15
 Def2TZVP
 ****
 Centers:       3      7      8      9
 Def2TZVP
 ****
 Centers:      11     12
 Def2TZVP
 ****
 ======================================================================================================
                                       Pseudopotential Parameters
 ======================================================================================================
  Center     Atomic      Valence      Angular      Power
  Number     Number     Electrons     Momentum     of R      Exponent        Coefficient   SO-Coeffient
 ======================================================================================================
    1         91           31
                                      H and up 
                                                     2        1.0000000        0.00000000    0.00000000
                                      S - H
                                                     2       15.2691737      475.47573283    0.00000000
                                      P - H
                                                     2        9.9577370      207.66485962    0.00000000
                                      D - H
                                                     2        8.9431413      156.67411988    0.00000000
                                      F - H
                                                     2        7.0104666       67.98223685    0.00000000
                                      G - H
                                                     2       12.2010560      -57.63059989    0.00000000
    2          8
                                   No pseudopotential on this center.
    3          1
                                   No pseudopotential on this center.
    4          8
                                   No pseudopotential on this center.
    5          8
                                   No pseudopotential on this center.
    6          8
                                   No pseudopotential on this center.
    7          1
                                   No pseudopotential on this center.
    8          1
                                   No pseudopotential on this center.
    9          1
                                   No pseudopotential on this center.
   10          8
                                   No pseudopotential on this center.
   11          6
                                   No pseudopotential on this center.
   12          6
                                   No pseudopotential on this center.
   13          8
                                   No pseudopotential on this center.
   14          8
                                   No pseudopotential on this center.
   15          8
                                   No pseudopotential on this center.
 ======================================================================================================
 Ernie: Thresh=  0.10000D-02 Tol=  0.10000D-05 Strict=F.
 AO basis set in the form of general basis input (Overlap normalization):
      1 0
 S   3 1.00       0.000000000000
      0.1204737600D+05  0.2857094961D-01
      0.1811684100D+04  0.2270769386D+00
      0.3477010400D+03  0.8325326273D+00
 S   3 1.00       0.000000000000
      0.5750737600D+02  0.9569327984D-01
      0.3350260100D+02 -0.4399944619D+00
      0.1955445100D+02  0.1335352847D+01
 S   1 1.00       0.000000000000
      0.9867801000D+02  0.1000000000D+01
 S   1 1.00       0.000000000000
      0.9716421000D+01  0.1000000000D+01
 S   1 1.00       0.000000000000
      0.2692096000D+01  0.1000000000D+01
 S   1 1.00       0.000000000000
      0.1453847000D+01  0.1000000000D+01
 S   1 1.00       0.000000000000
      0.5743520000D+00  0.1000000000D+01
 S   1 1.00       0.000000000000
      0.2634680000D+00  0.1000000000D+01
 S   1 1.00       0.000000000000
      0.5655700000D-01  0.1000000000D+01
 S   1 1.00       0.000000000000
      0.2316900000D-01  0.1000000000D+01
 P   5 1.00       0.000000000000
      0.2903367600D+04  0.2594222647D-02
      0.6448635600D+03  0.1519473264D-01
      0.2202589600D+03  0.9272492945D-01
      0.8027640100D+02  0.1821144298D+00
      0.2408021100D+02  0.8294100404D+00
 P   1 1.00       0.000000000000
      0.1407758000D+02  0.1000000000D+01
 P   1 1.00       0.000000000000
      0.8265846000D+01  0.1000000000D+01
 P   1 1.00       0.000000000000
      0.3594800000D+01  0.1000000000D+01
 P   1 1.00       0.000000000000
      0.1753111000D+01  0.1000000000D+01
 P   1 1.00       0.000000000000
      0.6577670000D+00  0.1000000000D+01
 P   1 1.00       0.000000000000
      0.2846390000D+00  0.1000000000D+01
 P   1 1.00       0.000000000000
      0.1005430000D+00  0.1000000000D+01
 P   1 1.00       0.000000000000
      0.3019000000D-01  0.1000000000D+01
 D   6 1.00       0.000000000000
      0.4481499100D+03  0.6556927566D-04
      0.1544614500D+03  0.5749921096D-03
      0.6092537700D+02  0.2279793277D-02
      0.1703209100D+02  0.6467904664D-01
      0.1001887700D+02 -0.2666929411D+00
      0.3409193000D+01  0.1128376621D+01
 D   1 1.00       0.000000000000
      0.1670213000D+01  0.1000000000D+01
 D   1 1.00       0.000000000000
      0.7410950000D+00  0.1000000000D+01
 D   1 1.00       0.000000000000
      0.2613930000D+00  0.1000000000D+01
 D   1 1.00       0.000000000000
      0.8281100000D-01  0.1000000000D+01
 F   5 1.00       0.000000000000
      0.8799132700D+02  0.4766318191D-03
      0.2834019500D+02  0.4899184583D-02
      0.1244099400D+02  0.9669720755D-02
      0.3957296000D+01  0.3310292343D+00
      0.1875944000D+01  0.7275531640D+00
 F   1 1.00       0.000000000000
      0.8275890000D+00  0.1000000000D+01
 F   1 1.00       0.000000000000
      0.3327480000D+00  0.1000000000D+01
 F   1 1.00       0.000000000000
      0.1146850000D+00  0.1000000000D+01
 G   1 1.00       0.000000000000
      0.3500000000D+00  0.1000000000D+01
 ****
      2 0
 S   6 1.00       0.000000000000
      0.2703238263D+05  0.5722733521D-03
      0.4052387139D+04  0.4435323349D-02
      0.9223272271D+03  0.2302010771D-01
      0.2612407099D+03  0.9282249067D-01
      0.8535464135D+02  0.2937850001D+00
      0.3103503524D+02  0.6740160450D+00
 S   2 1.00       0.000000000000
      0.1226086073D+02  0.6383993703D+00
      0.4998707601D+01  0.3953458713D+00
 S   1 1.00       0.000000000000
      0.1170310816D+01  0.1000000000D+01
 S   1 1.00       0.000000000000
      0.4647474099D+00  0.1000000000D+01
 S   1 1.00       0.000000000000
      0.1850453636D+00  0.1000000000D+01
 P   4 1.00       0.000000000000
      0.6327495480D+02  0.1201833222D-01
      0.1462704938D+02  0.8300542179D-01
      0.4450122346D+01  0.3199174393D+00
      0.1527579965D+01  0.7071554292D+00
 P   1 1.00       0.000000000000
      0.5293511794D+00  0.1000000000D+01
 P   1 1.00       0.000000000000
      0.1747842127D+00  0.1000000000D+01
 D   1 1.00       0.000000000000
      0.2314000000D+01  0.1000000000D+01
 D   1 1.00       0.000000000000
      0.6450000000D+00  0.1000000000D+01
 F   1 1.00       0.000000000000
      0.1428000000D+01  0.1000000000D+01
 ****
      3 0
 S   3 1.00       0.000000000000
      0.3406134100D+02  0.2543930721D-01
      0.5123574600D+01  0.1900859489D+00
      0.1164662600D+01  0.8524411301D+00
 S   1 1.00       0.000000000000
      0.3272304100D+00  0.1000000000D+01
 S   1 1.00       0.000000000000
      0.1030724100D+00  0.1000000000D+01
 P   1 1.00       0.000000000000
      0.8000000000D+00  0.1000000000D+01
 ****
      4 0
 S   6 1.00       0.000000000000
      0.2703238263D+05  0.5722733521D-03
      0.4052387139D+04  0.4435323349D-02
      0.9223272271D+03  0.2302010771D-01
      0.2612407099D+03  0.9282249067D-01
      0.8535464135D+02  0.2937850001D+00
      0.3103503524D+02  0.6740160450D+00
 S   2 1.00       0.000000000000
      0.1226086073D+02  0.6383993703D+00
      0.4998707601D+01  0.3953458713D+00
 S   1 1.00       0.000000000000
      0.1170310816D+01  0.1000000000D+01
 S   1 1.00       0.000000000000
      0.4647474099D+00  0.1000000000D+01
 S   1 1.00       0.000000000000
      0.1850453636D+00  0.1000000000D+01
 P   4 1.00       0.000000000000
      0.6327495480D+02  0.1201833222D-01
      0.1462704938D+02  0.8300542179D-01
      0.4450122346D+01  0.3199174393D+00
      0.1527579965D+01  0.7071554292D+00
 P   1 1.00       0.000000000000
      0.5293511794D+00  0.1000000000D+01
 P   1 1.00       0.000000000000
      0.1747842127D+00  0.1000000000D+01
 D   1 1.00       0.000000000000
      0.2314000000D+01  0.1000000000D+01
 D   1 1.00       0.000000000000
      0.6450000000D+00  0.1000000000D+01
 F   1 1.00       0.000000000000
      0.1428000000D+01  0.1000000000D+01
 ****
      5 0
 S   6 1.00       0.000000000000
      0.2703238263D+05  0.5722733521D-03
      0.4052387139D+04  0.4435323349D-02
      0.9223272271D+03  0.2302010771D-01
      0.2612407099D+03  0.9282249067D-01
      0.8535464135D+02  0.2937850001D+00
      0.3103503524D+02  0.6740160450D+00
 S   2 1.00       0.000000000000
      0.1226086073D+02  0.6383993703D+00
      0.4998707601D+01  0.3953458713D+00
 S   1 1.00       0.000000000000
      0.1170310816D+01  0.1000000000D+01
 S   1 1.00       0.000000000000
      0.4647474099D+00  0.1000000000D+01
 S   1 1.00       0.000000000000
      0.1850453636D+00  0.1000000000D+01
 P   4 1.00       0.000000000000
      0.6327495480D+02  0.1201833222D-01
      0.1462704938D+02  0.8300542179D-01
      0.4450122346D+01  0.3199174393D+00
      0.1527579965D+01  0.7071554292D+00
 P   1 1.00       0.000000000000
      0.5293511794D+00  0.1000000000D+01
 P   1 1.00       0.000000000000
      0.1747842127D+00  0.1000000000D+01
 D   1 1.00       0.000000000000
      0.2314000000D+01  0.1000000000D+01
 D   1 1.00       0.000000000000
      0.6450000000D+00  0.1000000000D+01
 F   1 1.00       0.000000000000
      0.1428000000D+01  0.1000000000D+01
 ****
      6 0
 S   6 1.00       0.000000000000
      0.2703238263D+05  0.5722733521D-03
      0.4052387139D+04  0.4435323349D-02
      0.9223272271D+03  0.2302010771D-01
      0.2612407099D+03  0.9282249067D-01
      0.8535464135D+02  0.2937850001D+00
      0.3103503524D+02  0.6740160450D+00
 S   2 1.00       0.000000000000
      0.1226086073D+02  0.6383993703D+00
      0.4998707601D+01  0.3953458713D+00
 S   1 1.00       0.000000000000
      0.1170310816D+01  0.1000000000D+01
 S   1 1.00       0.000000000000
      0.4647474099D+00  0.1000000000D+01
 S   1 1.00       0.000000000000
      0.1850453636D+00  0.1000000000D+01
 P   4 1.00       0.000000000000
      0.6327495480D+02  0.1201833222D-01
      0.1462704938D+02  0.8300542179D-01
      0.4450122346D+01  0.3199174393D+00
      0.1527579965D+01  0.7071554292D+00
 P   1 1.00       0.000000000000
      0.5293511794D+00  0.1000000000D+01
 P   1 1.00       0.000000000000
      0.1747842127D+00  0.1000000000D+01
 D   1 1.00       0.000000000000
      0.2314000000D+01  0.1000000000D+01
 D   1 1.00       0.000000000000
      0.6450000000D+00  0.1000000000D+01
 F   1 1.00       0.000000000000
      0.1428000000D+01  0.1000000000D+01
 ****
      7 0
 S   3 1.00       0.000000000000
      0.3406134100D+02  0.2543930721D-01
      0.5123574600D+01  0.1900859489D+00
      0.1164662600D+01  0.8524411301D+00
 S   1 1.00       0.000000000000
      0.3272304100D+00  0.1000000000D+01
 S   1 1.00       0.000000000000
      0.1030724100D+00  0.1000000000D+01
 P   1 1.00       0.000000000000
      0.8000000000D+00  0.1000000000D+01
 ****
      8 0
 S   3 1.00       0.000000000000
      0.3406134100D+02  0.2543930721D-01
      0.5123574600D+01  0.1900859489D+00
      0.1164662600D+01  0.8524411301D+00
 S   1 1.00       0.000000000000
      0.3272304100D+00  0.1000000000D+01
 S   1 1.00       0.000000000000
      0.1030724100D+00  0.1000000000D+01
 P   1 1.00       0.000000000000
      0.8000000000D+00  0.1000000000D+01
 ****
      9 0
 S   3 1.00       0.000000000000
      0.3406134100D+02  0.2543930721D-01
      0.5123574600D+01  0.1900859489D+00
      0.1164662600D+01  0.8524411301D+00
 S   1 1.00       0.000000000000
      0.3272304100D+00  0.1000000000D+01
 S   1 1.00       0.000000000000
      0.1030724100D+00  0.1000000000D+01
 P   1 1.00       0.000000000000
      0.8000000000D+00  0.1000000000D+01
 ****
     10 0
 S   6 1.00       0.000000000000
      0.2703238263D+05  0.5722733521D-03
      0.4052387139D+04  0.4435323349D-02
      0.9223272271D+03  0.2302010771D-01
      0.2612407099D+03  0.9282249067D-01
      0.8535464135D+02  0.2937850001D+00
      0.3103503524D+02  0.6740160450D+00
 S   2 1.00       0.000000000000
      0.1226086073D+02  0.6383993703D+00
      0.4998707601D+01  0.3953458713D+00
 S   1 1.00       0.000000000000
      0.1170310816D+01  0.1000000000D+01
 S   1 1.00       0.000000000000
      0.4647474099D+00  0.1000000000D+01
 S   1 1.00       0.000000000000
      0.1850453636D+00  0.1000000000D+01
 P   4 1.00       0.000000000000
      0.6327495480D+02  0.1201833222D-01
      0.1462704938D+02  0.8300542179D-01
      0.4450122346D+01  0.3199174393D+00
      0.1527579965D+01  0.7071554292D+00
 P   1 1.00       0.000000000000
      0.5293511794D+00  0.1000000000D+01
 P   1 1.00       0.000000000000
      0.1747842127D+00  0.1000000000D+01
 D   1 1.00       0.000000000000
      0.2314000000D+01  0.1000000000D+01
 D   1 1.00       0.000000000000
      0.6450000000D+00  0.1000000000D+01
 F   1 1.00       0.000000000000
      0.1428000000D+01  0.1000000000D+01
 ****
     11 0
 S   6 1.00       0.000000000000
      0.1357534968D+05  0.6064550360D-03
      0.2035233368D+04  0.4697908888D-02
      0.4632256236D+03  0.2433247765D-01
      0.1312001960D+03  0.9739996831D-01
      0.4285301589D+02  0.3019558425D+00
      0.1558418577D+02  0.6623360914D+00
 S   2 1.00       0.000000000000
      0.6206713851D+01  0.6559530854D+00
      0.2576489653D+01  0.3758563329D+00
 S   1 1.00       0.000000000000
      0.5769633942D+00  0.1000000000D+01
 S   1 1.00       0.000000000000
      0.2297283136D+00  0.1000000000D+01
 S   1 1.00       0.000000000000
      0.9516444003D-01  0.1000000000D+01
 P   4 1.00       0.000000000000
      0.3469723224D+02  0.1132722000D-01
      0.7958262283D+01  0.7616965920D-01
      0.2378082688D+01  0.3019225220D+00
      0.8143320818D+00  0.7278502735D+00
 P   1 1.00       0.000000000000
      0.2888754725D+00  0.1000000000D+01
 P   1 1.00       0.000000000000
      0.1005682367D+00  0.1000000000D+01
 D   1 1.00       0.000000000000
      0.1097000000D+01  0.1000000000D+01
 D   1 1.00       0.000000000000
      0.3180000000D+00  0.1000000000D+01
 F   1 1.00       0.000000000000
      0.7610000000D+00  0.1000000000D+01
 ****
     12 0
 S   6 1.00       0.000000000000
      0.1357534968D+05  0.6064550360D-03
      0.2035233368D+04  0.4697908888D-02
      0.4632256236D+03  0.2433247765D-01
      0.1312001960D+03  0.9739996831D-01
      0.4285301589D+02  0.3019558425D+00
      0.1558418577D+02  0.6623360914D+00
 S   2 1.00       0.000000000000
      0.6206713851D+01  0.6559530854D+00
      0.2576489653D+01  0.3758563329D+00
 S   1 1.00       0.000000000000
      0.5769633942D+00  0.1000000000D+01
 S   1 1.00       0.000000000000
      0.2297283136D+00  0.1000000000D+01
 S   1 1.00       0.000000000000
      0.9516444003D-01  0.1000000000D+01
 P   4 1.00       0.000000000000
      0.3469723224D+02  0.1132722000D-01
      0.7958262283D+01  0.7616965920D-01
      0.2378082688D+01  0.3019225220D+00
      0.8143320818D+00  0.7278502735D+00
 P   1 1.00       0.000000000000
      0.2888754725D+00  0.1000000000D+01
 P   1 1.00       0.000000000000
      0.1005682367D+00  0.1000000000D+01
 D   1 1.00       0.000000000000
      0.1097000000D+01  0.1000000000D+01
 D   1 1.00       0.000000000000
      0.3180000000D+00  0.1000000000D+01
 F   1 1.00       0.000000000000
      0.7610000000D+00  0.1000000000D+01
 ****
     13 0
 S   6 1.00       0.000000000000
      0.2703238263D+05  0.5722733521D-03
      0.4052387139D+04  0.4435323349D-02
      0.9223272271D+03  0.2302010771D-01
      0.2612407099D+03  0.9282249067D-01
      0.8535464135D+02  0.2937850001D+00
      0.3103503524D+02  0.6740160450D+00
 S   2 1.00       0.000000000000
      0.1226086073D+02  0.6383993703D+00
      0.4998707601D+01  0.3953458713D+00
 S   1 1.00       0.000000000000
      0.1170310816D+01  0.1000000000D+01
 S   1 1.00       0.000000000000
      0.4647474099D+00  0.1000000000D+01
 S   1 1.00       0.000000000000
      0.1850453636D+00  0.1000000000D+01
 P   4 1.00       0.000000000000
      0.6327495480D+02  0.1201833222D-01
      0.1462704938D+02  0.8300542179D-01
      0.4450122346D+01  0.3199174393D+00
      0.1527579965D+01  0.7071554292D+00
 P   1 1.00       0.000000000000
      0.5293511794D+00  0.1000000000D+01
 P   1 1.00       0.000000000000
      0.1747842127D+00  0.1000000000D+01
 D   1 1.00       0.000000000000
      0.2314000000D+01  0.1000000000D+01
 D   1 1.00       0.000000000000
      0.6450000000D+00  0.1000000000D+01
 F   1 1.00       0.000000000000
      0.1428000000D+01  0.1000000000D+01
 ****
     14 0
 S   6 1.00       0.000000000000
      0.2703238263D+05  0.5722733521D-03
      0.4052387139D+04  0.4435323349D-02
      0.9223272271D+03  0.2302010771D-01
      0.2612407099D+03  0.9282249067D-01
      0.8535464135D+02  0.2937850001D+00
      0.3103503524D+02  0.6740160450D+00
 S   2 1.00       0.000000000000
      0.1226086073D+02  0.6383993703D+00
      0.4998707601D+01  0.3953458713D+00
 S   1 1.00       0.000000000000
      0.1170310816D+01  0.1000000000D+01
 S   1 1.00       0.000000000000
      0.4647474099D+00  0.1000000000D+01
 S   1 1.00       0.000000000000
      0.1850453636D+00  0.1000000000D+01
 P   4 1.00       0.000000000000
      0.6327495480D+02  0.1201833222D-01
      0.1462704938D+02  0.8300542179D-01
      0.4450122346D+01  0.3199174393D+00
      0.1527579965D+01  0.7071554292D+00
 P   1 1.00       0.000000000000
      0.5293511794D+00  0.1000000000D+01
 P   1 1.00       0.000000000000
      0.1747842127D+00  0.1000000000D+01
 D   1 1.00       0.000000000000
      0.2314000000D+01  0.1000000000D+01
 D   1 1.00       0.000000000000
      0.6450000000D+00  0.1000000000D+01
 F   1 1.00       0.000000000000
      0.1428000000D+01  0.1000000000D+01
 ****
     15 0
 S   6 1.00       0.000000000000
      0.2703238263D+05  0.5722733521D-03
      0.4052387139D+04  0.4435323349D-02
      0.9223272271D+03  0.2302010771D-01
      0.2612407099D+03  0.9282249067D-01
      0.8535464135D+02  0.2937850001D+00
      0.3103503524D+02  0.6740160450D+00
 S   2 1.00       0.000000000000
      0.1226086073D+02  0.6383993703D+00
      0.4998707601D+01  0.3953458713D+00
 S   1 1.00       0.000000000000
      0.1170310816D+01  0.1000000000D+01
 S   1 1.00       0.000000000000
      0.4647474099D+00  0.1000000000D+01
 S   1 1.00       0.000000000000
      0.1850453636D+00  0.1000000000D+01
 P   4 1.00       0.000000000000
      0.6327495480D+02  0.1201833222D-01
      0.1462704938D+02  0.8300542179D-01
      0.4450122346D+01  0.3199174393D+00
      0.1527579965D+01  0.7071554292D+00
 P   1 1.00       0.000000000000
      0.5293511794D+00  0.1000000000D+01
 P   1 1.00       0.000000000000
      0.1747842127D+00  0.1000000000D+01
 D   1 1.00       0.000000000000
      0.2314000000D+01  0.1000000000D+01
 D   1 1.00       0.000000000000
      0.6450000000D+00  0.1000000000D+01
 F   1 1.00       0.000000000000
      0.1428000000D+01  0.1000000000D+01
 ****

 AO basis set (Overlap normalization):
 Atom Pa1      Shell     1 S   3     bf    1 -     1          1.213380863079         -0.173592992779         -0.077832186936
      0.1204737600D+05  0.2857094961D-01
      0.1811684100D+04  0.2270769386D+00
      0.3477010400D+03  0.8325326273D+00
 Atom Pa1      Shell     2 S   3     bf    2 -     2          1.213380863079         -0.173592992779         -0.077832186936
      0.5750737600D+02  0.9569327984D-01
      0.3350260100D+02 -0.4399944619D+00
      0.1955445100D+02  0.1335352847D+01
 Atom Pa1      Shell     3 S   1     bf    3 -     3          1.213380863079         -0.173592992779         -0.077832186936
      0.9867801000D+02  0.1000000000D+01
 Atom Pa1      Shell     4 S   1     bf    4 -     4          1.213380863079         -0.173592992779         -0.077832186936
      0.9716421000D+01  0.1000000000D+01
 Atom Pa1      Shell     5 S   1     bf    5 -     5          1.213380863079         -0.173592992779         -0.077832186936
      0.2692096000D+01  0.1000000000D+01
 Atom Pa1      Shell     6 S   1     bf    6 -     6          1.213380863079         -0.173592992779         -0.077832186936
      0.1453847000D+01  0.1000000000D+01
 Atom Pa1      Shell     7 S   1     bf    7 -     7          1.213380863079         -0.173592992779         -0.077832186936
      0.5743520000D+00  0.1000000000D+01
 Atom Pa1      Shell     8 S   1     bf    8 -     8          1.213380863079         -0.173592992779         -0.077832186936
      0.2634680000D+00  0.1000000000D+01
 Atom Pa1      Shell     9 S   1     bf    9 -     9          1.213380863079         -0.173592992779         -0.077832186936
      0.5655700000D-01  0.1000000000D+01
 Atom Pa1      Shell    10 S   1     bf   10 -    10          1.213380863079         -0.173592992779         -0.077832186936
      0.2316900000D-01  0.1000000000D+01
 Atom Pa1      Shell    11 P   5     bf   11 -    13          1.213380863079         -0.173592992779         -0.077832186936
      0.2903367600D+04  0.2594222647D-02
      0.6448635600D+03  0.1519473264D-01
      0.2202589600D+03  0.9272492945D-01
      0.8027640100D+02  0.1821144298D+00
      0.2408021100D+02  0.8294100404D+00
 Atom Pa1      Shell    12 P   1     bf   14 -    16          1.213380863079         -0.173592992779         -0.077832186936
      0.1407758000D+02  0.1000000000D+01
 Atom Pa1      Shell    13 P   1     bf   17 -    19          1.213380863079         -0.173592992779         -0.077832186936
      0.8265846000D+01  0.1000000000D+01
 Atom Pa1      Shell    14 P   1     bf   20 -    22          1.213380863079         -0.173592992779         -0.077832186936
      0.3594800000D+01  0.1000000000D+01
 Atom Pa1      Shell    15 P   1     bf   23 -    25          1.213380863079         -0.173592992779         -0.077832186936
      0.1753111000D+01  0.1000000000D+01
 Atom Pa1      Shell    16 P   1     bf   26 -    28          1.213380863079         -0.173592992779         -0.077832186936
      0.6577670000D+00  0.1000000000D+01
 Atom Pa1      Shell    17 P   1     bf   29 -    31          1.213380863079         -0.173592992779         -0.077832186936
      0.2846390000D+00  0.1000000000D+01
 Atom Pa1      Shell    18 P   1     bf   32 -    34          1.213380863079         -0.173592992779         -0.077832186936
      0.1005430000D+00  0.1000000000D+01
 Atom Pa1      Shell    19 P   1     bf   35 -    37          1.213380863079         -0.173592992779         -0.077832186936
      0.3019000000D-01  0.1000000000D+01
 Atom Pa1      Shell    20 D   6     bf   38 -    42          1.213380863079         -0.173592992779         -0.077832186936
      0.4481499100D+03  0.6556927566D-04
      0.1544614500D+03  0.5749921096D-03
      0.6092537700D+02  0.2279793277D-02
      0.1703209100D+02  0.6467904664D-01
      0.1001887700D+02 -0.2666929411D+00
      0.3409193000D+01  0.1128376621D+01
 Atom Pa1      Shell    21 D   1     bf   43 -    47          1.213380863079         -0.173592992779         -0.077832186936
      0.1670213000D+01  0.1000000000D+01
 Atom Pa1      Shell    22 D   1     bf   48 -    52          1.213380863079         -0.173592992779         -0.077832186936
      0.7410950000D+00  0.1000000000D+01
 Atom Pa1      Shell    23 D   1     bf   53 -    57          1.213380863079         -0.173592992779         -0.077832186936
      0.2613930000D+00  0.1000000000D+01
 Atom Pa1      Shell    24 D   1     bf   58 -    62          1.213380863079         -0.173592992779         -0.077832186936
      0.8281100000D-01  0.1000000000D+01
 Atom Pa1      Shell    25 F   5     bf   63 -    69          1.213380863079         -0.173592992779         -0.077832186936
      0.8799132700D+02  0.4766318191D-03
      0.2834019500D+02  0.4899184583D-02
      0.1244099400D+02  0.9669720755D-02
      0.3957296000D+01  0.3310292343D+00
      0.1875944000D+01  0.7275531640D+00
 Atom Pa1      Shell    26 F   1     bf   70 -    76          1.213380863079         -0.173592992779         -0.077832186936
      0.8275890000D+00  0.1000000000D+01
 Atom Pa1      Shell    27 F   1     bf   77 -    83          1.213380863079         -0.173592992779         -0.077832186936
      0.3327480000D+00  0.1000000000D+01
 Atom Pa1      Shell    28 F   1     bf   84 -    90          1.213380863079         -0.173592992779         -0.077832186936
      0.1146850000D+00  0.1000000000D+01
 Atom Pa1      Shell    29 G   1     bf   91 -    99          1.213380863079         -0.173592992779         -0.077832186936
      0.3500000000D+00  0.1000000000D+01
 Atom O2       Shell    30 S   6     bf  100 -   100          3.679234653567         -3.470617940937          0.386560817452
      0.2703238263D+05  0.5722733521D-03
      0.4052387139D+04  0.4435323349D-02
      0.9223272271D+03  0.2302010771D-01
      0.2612407099D+03  0.9282249067D-01
      0.8535464135D+02  0.2937850001D+00
      0.3103503524D+02  0.6740160450D+00
 Atom O2       Shell    31 S   2     bf  101 -   101          3.679234653567         -3.470617940937          0.386560817452
      0.1226086073D+02  0.6383993703D+00
      0.4998707601D+01  0.3953458713D+00
 Atom O2       Shell    32 S   1     bf  102 -   102          3.679234653567         -3.470617940937          0.386560817452
      0.1170310816D+01  0.1000000000D+01
 Atom O2       Shell    33 S   1     bf  103 -   103          3.679234653567         -3.470617940937          0.386560817452
      0.4647474099D+00  0.1000000000D+01
 Atom O2       Shell    34 S   1     bf  104 -   104          3.679234653567         -3.470617940937          0.386560817452
      0.1850453636D+00  0.1000000000D+01
 Atom O2       Shell    35 P   4     bf  105 -   107          3.679234653567         -3.470617940937          0.386560817452
      0.6327495480D+02  0.1201833222D-01
      0.1462704938D+02  0.8300542179D-01
      0.4450122346D+01  0.3199174393D+00
      0.1527579965D+01  0.7071554292D+00
 Atom O2       Shell    36 P   1     bf  108 -   110          3.679234653567         -3.470617940937          0.386560817452
      0.5293511794D+00  0.1000000000D+01
 Atom O2       Shell    37 P   1     bf  111 -   113          3.679234653567         -3.470617940937          0.386560817452
      0.1747842127D+00  0.1000000000D+01
 Atom O2       Shell    38 D   1     bf  114 -   118          3.679234653567         -3.470617940937          0.386560817452
      0.2314000000D+01  0.1000000000D+01
 Atom O2       Shell    39 D   1     bf  119 -   123          3.679234653567         -3.470617940937          0.386560817452
      0.6450000000D+00  0.1000000000D+01
 Atom O2       Shell    40 F   1     bf  124 -   130          3.679234653567         -3.470617940937          0.386560817452
      0.1428000000D+01  0.1000000000D+01
 Atom H3       Shell    41 S   3     bf  131 -   131          0.249712926550          1.286923764521          5.044555427590
      0.3406134100D+02  0.2543930721D-01
      0.5123574600D+01  0.1900859489D+00
      0.1164662600D+01  0.8524411301D+00
 Atom H3       Shell    42 S   1     bf  132 -   132          0.249712926550          1.286923764521          5.044555427590
      0.3272304100D+00  0.1000000000D+01
 Atom H3       Shell    43 S   1     bf  133 -   133          0.249712926550          1.286923764521          5.044555427590
      0.1030724100D+00  0.1000000000D+01
 Atom H3       Shell    44 P   1     bf  134 -   136          0.249712926550          1.286923764521          5.044555427590
      0.8000000000D+00  0.1000000000D+01
 Atom O4       Shell    45 S   6     bf  137 -   137          1.465535631641         -0.108930990542         -3.623156798235
      0.2703238263D+05  0.5722733521D-03
      0.4052387139D+04  0.4435323349D-02
      0.9223272271D+03  0.2302010771D-01
      0.2612407099D+03  0.9282249067D-01
      0.8535464135D+02  0.2937850001D+00
      0.3103503524D+02  0.6740160450D+00
 Atom O4       Shell    46 S   2     bf  138 -   138          1.465535631641         -0.108930990542         -3.623156798235
      0.1226086073D+02  0.6383993703D+00
      0.4998707601D+01  0.3953458713D+00
 Atom O4       Shell    47 S   1     bf  139 -   139          1.465535631641         -0.108930990542         -3.623156798235
      0.1170310816D+01  0.1000000000D+01
 Atom O4       Shell    48 S   1     bf  140 -   140          1.465535631641         -0.108930990542         -3.623156798235
      0.4647474099D+00  0.1000000000D+01
 Atom O4       Shell    49 S   1     bf  141 -   141          1.465535631641         -0.108930990542         -3.623156798235
      0.1850453636D+00  0.1000000000D+01
 Atom O4       Shell    50 P   4     bf  142 -   144          1.465535631641         -0.108930990542         -3.623156798235
      0.6327495480D+02  0.1201833222D-01
      0.1462704938D+02  0.8300542179D-01
      0.4450122346D+01  0.3199174393D+00
      0.1527579965D+01  0.7071554292D+00
 Atom O4       Shell    51 P   1     bf  145 -   147          1.465535631641         -0.108930990542         -3.623156798235
      0.5293511794D+00  0.1000000000D+01
 Atom O4       Shell    52 P   1     bf  148 -   150          1.465535631641         -0.108930990542         -3.623156798235
      0.1747842127D+00  0.1000000000D+01
 Atom O4       Shell    53 D   1     bf  151 -   155          1.465535631641         -0.108930990542         -3.623156798235
      0.2314000000D+01  0.1000000000D+01
 Atom O4       Shell    54 D   1     bf  156 -   160          1.465535631641         -0.108930990542         -3.623156798235
      0.6450000000D+00  0.1000000000D+01
 Atom O4       Shell    55 F   1     bf  161 -   167          1.465535631641         -0.108930990542         -3.623156798235
      0.1428000000D+01  0.1000000000D+01
 Atom O5       Shell    56 S   6     bf  168 -   168          1.312116499414          0.307588630911          3.928355739578
      0.2703238263D+05  0.5722733521D-03
      0.4052387139D+04  0.4435323349D-02
      0.9223272271D+03  0.2302010771D-01
      0.2612407099D+03  0.9282249067D-01
      0.8535464135D+02  0.2937850001D+00
      0.3103503524D+02  0.6740160450D+00
 Atom O5       Shell    57 S   2     bf  169 -   169          1.312116499414          0.307588630911          3.928355739578
      0.1226086073D+02  0.6383993703D+00
      0.4998707601D+01  0.3953458713D+00
 Atom O5       Shell    58 S   1     bf  170 -   170          1.312116499414          0.307588630911          3.928355739578
      0.1170310816D+01  0.1000000000D+01
 Atom O5       Shell    59 S   1     bf  171 -   171          1.312116499414          0.307588630911          3.928355739578
      0.4647474099D+00  0.1000000000D+01
 Atom O5       Shell    60 S   1     bf  172 -   172          1.312116499414          0.307588630911          3.928355739578
      0.1850453636D+00  0.1000000000D+01
 Atom O5       Shell    61 P   4     bf  173 -   175          1.312116499414          0.307588630911          3.928355739578
      0.6327495480D+02  0.1201833222D-01
      0.1462704938D+02  0.8300542179D-01
      0.4450122346D+01  0.3199174393D+00
      0.1527579965D+01  0.7071554292D+00
 Atom O5       Shell    62 P   1     bf  176 -   178          1.312116499414          0.307588630911          3.928355739578
      0.5293511794D+00  0.1000000000D+01
 Atom O5       Shell    63 P   1     bf  179 -   181          1.312116499414          0.307588630911          3.928355739578
      0.1747842127D+00  0.1000000000D+01
 Atom O5       Shell    64 D   1     bf  182 -   186          1.312116499414          0.307588630911          3.928355739578
      0.2314000000D+01  0.1000000000D+01
 Atom O5       Shell    65 D   1     bf  187 -   191          1.312116499414          0.307588630911          3.928355739578
      0.6450000000D+00  0.1000000000D+01
 Atom O5       Shell    66 F   1     bf  192 -   198          1.312116499414          0.307588630911          3.928355739578
      0.1428000000D+01  0.1000000000D+01
 Atom O6       Shell    67 S   6     bf  199 -   199          3.801948203105          3.833742606930         -0.108729553902
      0.2703238263D+05  0.5722733521D-03
      0.4052387139D+04  0.4435323349D-02
      0.9223272271D+03  0.2302010771D-01
      0.2612407099D+03  0.9282249067D-01
      0.8535464135D+02  0.2937850001D+00
      0.3103503524D+02  0.6740160450D+00
 Atom O6       Shell    68 S   2     bf  200 -   200          3.801948203105          3.833742606930         -0.108729553902
      0.1226086073D+02  0.6383993703D+00
      0.4998707601D+01  0.3953458713D+00
 Atom O6       Shell    69 S   1     bf  201 -   201          3.801948203105          3.833742606930         -0.108729553902
      0.1170310816D+01  0.1000000000D+01
 Atom O6       Shell    70 S   1     bf  202 -   202          3.801948203105          3.833742606930         -0.108729553902
      0.4647474099D+00  0.1000000000D+01
 Atom O6       Shell    71 S   1     bf  203 -   203          3.801948203105          3.833742606930         -0.108729553902
      0.1850453636D+00  0.1000000000D+01
 Atom O6       Shell    72 P   4     bf  204 -   206          3.801948203105          3.833742606930         -0.108729553902
      0.6327495480D+02  0.1201833222D-01
      0.1462704938D+02  0.8300542179D-01
      0.4450122346D+01  0.3199174393D+00
      0.1527579965D+01  0.7071554292D+00
 Atom O6       Shell    73 P   1     bf  207 -   209          3.801948203105          3.833742606930         -0.108729553902
      0.5293511794D+00  0.1000000000D+01
 Atom O6       Shell    74 P   1     bf  210 -   212          3.801948203105          3.833742606930         -0.108729553902
      0.1747842127D+00  0.1000000000D+01
 Atom O6       Shell    75 D   1     bf  213 -   217          3.801948203105          3.833742606930         -0.108729553902
      0.2314000000D+01  0.1000000000D+01
 Atom O6       Shell    76 D   1     bf  218 -   222          3.801948203105          3.833742606930         -0.108729553902
      0.6450000000D+00  0.1000000000D+01
 Atom O6       Shell    77 F   1     bf  223 -   229          3.801948203105          3.833742606930         -0.108729553902
      0.1428000000D+01  0.1000000000D+01
 Atom H7       Shell    78 S   3     bf  230 -   230          4.211455261695          4.871207618290          1.336157059747
      0.3406134100D+02  0.2543930721D-01
      0.5123574600D+01  0.1900859489D+00
      0.1164662600D+01  0.8524411301D+00
 Atom H7       Shell    79 S   1     bf  231 -   231          4.211455261695          4.871207618290          1.336157059747
      0.3272304100D+00  0.1000000000D+01
 Atom H7       Shell    80 S   1     bf  232 -   232          4.211455261695          4.871207618290          1.336157059747
      0.1030724100D+00  0.1000000000D+01
 Atom H7       Shell    81 P   1     bf  233 -   235          4.211455261695          4.871207618290          1.336157059747
      0.8000000000D+00  0.1000000000D+01
 Atom H8       Shell    82 S   3     bf  236 -   236          4.304479409272          4.762398386093         -1.597390518661
      0.3406134100D+02  0.2543930721D-01
      0.5123574600D+01  0.1900859489D+00
      0.1164662600D+01  0.8524411301D+00
 Atom H8       Shell    83 S   1     bf  237 -   237          4.304479409272          4.762398386093         -1.597390518661
      0.3272304100D+00  0.1000000000D+01
 Atom H8       Shell    84 S   1     bf  238 -   238          4.304479409272          4.762398386093         -1.597390518661
      0.1030724100D+00  0.1000000000D+01
 Atom H8       Shell    85 P   1     bf  239 -   241          4.304479409272          4.762398386093         -1.597390518661
      0.8000000000D+00  0.1000000000D+01
 Atom H9       Shell    86 S   3     bf  242 -   242          4.409832005122         -4.427325782962         -0.980771409574
      0.3406134100D+02  0.2543930721D-01
      0.5123574600D+01  0.1900859489D+00
      0.1164662600D+01  0.8524411301D+00
 Atom H9       Shell    87 S   1     bf  243 -   243          4.409832005122         -4.427325782962         -0.980771409574
      0.3272304100D+00  0.1000000000D+01
 Atom H9       Shell    88 S   1     bf  244 -   244          4.409832005122         -4.427325782962         -0.980771409574
      0.1030724100D+00  0.1000000000D+01
 Atom H9       Shell    89 P   1     bf  245 -   247          4.409832005122         -4.427325782962         -0.980771409574
      0.8000000000D+00  0.1000000000D+01
 Atom O10      Shell    90 S   6     bf  248 -   248         -2.624435891005         -2.430780420364          0.073169536416
      0.2703238263D+05  0.5722733521D-03
      0.4052387139D+04  0.4435323349D-02
      0.9223272271D+03  0.2302010771D-01
      0.2612407099D+03  0.9282249067D-01
      0.8535464135D+02  0.2937850001D+00
      0.3103503524D+02  0.6740160450D+00
 Atom O10      Shell    91 S   2     bf  249 -   249         -2.624435891005         -2.430780420364          0.073169536416
      0.1226086073D+02  0.6383993703D+00
      0.4998707601D+01  0.3953458713D+00
 Atom O10      Shell    92 S   1     bf  250 -   250         -2.624435891005         -2.430780420364          0.073169536416
      0.1170310816D+01  0.1000000000D+01
 Atom O10      Shell    93 S   1     bf  251 -   251         -2.624435891005         -2.430780420364          0.073169536416
      0.4647474099D+00  0.1000000000D+01
 Atom O10      Shell    94 S   1     bf  252 -   252         -2.624435891005         -2.430780420364          0.073169536416
      0.1850453636D+00  0.1000000000D+01
 Atom O10      Shell    95 P   4     bf  253 -   255         -2.624435891005         -2.430780420364          0.073169536416
      0.6327495480D+02  0.1201833222D-01
      0.1462704938D+02  0.8300542179D-01
      0.4450122346D+01  0.3199174393D+00
      0.1527579965D+01  0.7071554292D+00
 Atom O10      Shell    96 P   1     bf  256 -   258         -2.624435891005         -2.430780420364          0.073169536416
      0.5293511794D+00  0.1000000000D+01
 Atom O10      Shell    97 P   1     bf  259 -   261         -2.624435891005         -2.430780420364          0.073169536416
      0.1747842127D+00  0.1000000000D+01
 Atom O10      Shell    98 D   1     bf  262 -   266         -2.624435891005         -2.430780420364          0.073169536416
      0.2314000000D+01  0.1000000000D+01
 Atom O10      Shell    99 D   1     bf  267 -   271         -2.624435891005         -2.430780420364          0.073169536416
      0.6450000000D+00  0.1000000000D+01
 Atom O10      Shell   100 F   1     bf  272 -   278         -2.624435891005         -2.430780420364          0.073169536416
      0.1428000000D+01  0.1000000000D+01
 Atom C11      Shell   101 S   6     bf  279 -   279         -4.703591797407          1.595701021273         -0.093647974435
      0.1357534968D+05  0.6064550360D-03
      0.2035233368D+04  0.4697908888D-02
      0.4632256236D+03  0.2433247765D-01
      0.1312001960D+03  0.9739996831D-01
      0.4285301589D+02  0.3019558425D+00
      0.1558418577D+02  0.6623360914D+00
 Atom C11      Shell   102 S   2     bf  280 -   280         -4.703591797407          1.595701021273         -0.093647974435
      0.6206713851D+01  0.6559530854D+00
      0.2576489653D+01  0.3758563329D+00
 Atom C11      Shell   103 S   1     bf  281 -   281         -4.703591797407          1.595701021273         -0.093647974435
      0.5769633942D+00  0.1000000000D+01
 Atom C11      Shell   104 S   1     bf  282 -   282         -4.703591797407          1.595701021273         -0.093647974435
      0.2297283136D+00  0.1000000000D+01
 Atom C11      Shell   105 S   1     bf  283 -   283         -4.703591797407          1.595701021273         -0.093647974435
      0.9516444003D-01  0.1000000000D+01
 Atom C11      Shell   106 P   4     bf  284 -   286         -4.703591797407          1.595701021273         -0.093647974435
      0.3469723224D+02  0.1132722000D-01
      0.7958262283D+01  0.7616965920D-01
      0.2378082688D+01  0.3019225220D+00
      0.8143320818D+00  0.7278502735D+00
 Atom C11      Shell   107 P   1     bf  287 -   289         -4.703591797407          1.595701021273         -0.093647974435
      0.2888754725D+00  0.1000000000D+01
 Atom C11      Shell   108 P   1     bf  290 -   292         -4.703591797407          1.595701021273         -0.093647974435
      0.1005682367D+00  0.1000000000D+01
 Atom C11      Shell   109 D   1     bf  293 -   297         -4.703591797407          1.595701021273         -0.093647974435
      0.1097000000D+01  0.1000000000D+01
 Atom C11      Shell   110 D   1     bf  298 -   302         -4.703591797407          1.595701021273         -0.093647974435
      0.3180000000D+00  0.1000000000D+01
 Atom C11      Shell   111 F   1     bf  303 -   309         -4.703591797407          1.595701021273         -0.093647974435
      0.7610000000D+00  0.1000000000D+01
 Atom C12      Shell   112 S   6     bf  310 -   310         -4.819560739263         -1.366845848180          0.026756067175
      0.1357534968D+05  0.6064550360D-03
      0.2035233368D+04  0.4697908888D-02
      0.4632256236D+03  0.2433247765D-01
      0.1312001960D+03  0.9739996831D-01
      0.4285301589D+02  0.3019558425D+00
      0.1558418577D+02  0.6623360914D+00
 Atom C12      Shell   113 S   2     bf  311 -   311         -4.819560739263         -1.366845848180          0.026756067175
      0.6206713851D+01  0.6559530854D+00
      0.2576489653D+01  0.3758563329D+00
 Atom C12      Shell   114 S   1     bf  312 -   312         -4.819560739263         -1.366845848180          0.026756067175
      0.5769633942D+00  0.1000000000D+01
 Atom C12      Shell   115 S   1     bf  313 -   313         -4.819560739263         -1.366845848180          0.026756067175
      0.2297283136D+00  0.1000000000D+01
 Atom C12      Shell   116 S   1     bf  314 -   314         -4.819560739263         -1.366845848180          0.026756067175
      0.9516444003D-01  0.1000000000D+01
 Atom C12      Shell   117 P   4     bf  315 -   317         -4.819560739263         -1.366845848180          0.026756067175
      0.3469723224D+02  0.1132722000D-01
      0.7958262283D+01  0.7616965920D-01
      0.2378082688D+01  0.3019225220D+00
      0.8143320818D+00  0.7278502735D+00
 Atom C12      Shell   118 P   1     bf  318 -   320         -4.819560739263         -1.366845848180          0.026756067175
      0.2888754725D+00  0.1000000000D+01
 Atom C12      Shell   119 P   1     bf  321 -   323         -4.819560739263         -1.366845848180          0.026756067175
      0.1005682367D+00  0.1000000000D+01
 Atom C12      Shell   120 D   1     bf  324 -   328         -4.819560739263         -1.366845848180          0.026756067175
      0.1097000000D+01  0.1000000000D+01
 Atom C12      Shell   121 D   1     bf  329 -   333         -4.819560739263         -1.366845848180          0.026756067175
      0.3180000000D+00  0.1000000000D+01
 Atom C12      Shell   122 F   1     bf  334 -   340         -4.819560739263         -1.366845848180          0.026756067175
      0.7610000000D+00  0.1000000000D+01
 Atom O13      Shell   123 S   6     bf  341 -   341         -2.434086096611          2.478079215128         -0.135231134319
      0.2703238263D+05  0.5722733521D-03
      0.4052387139D+04  0.4435323349D-02
      0.9223272271D+03  0.2302010771D-01
      0.2612407099D+03  0.9282249067D-01
      0.8535464135D+02  0.2937850001D+00
      0.3103503524D+02  0.6740160450D+00
 Atom O13      Shell   124 S   2     bf  342 -   342         -2.434086096611          2.478079215128         -0.135231134319
      0.1226086073D+02  0.6383993703D+00
      0.4998707601D+01  0.3953458713D+00
 Atom O13      Shell   125 S   1     bf  343 -   343         -2.434086096611          2.478079215128         -0.135231134319
      0.1170310816D+01  0.1000000000D+01
 Atom O13      Shell   126 S   1     bf  344 -   344         -2.434086096611          2.478079215128         -0.135231134319
      0.4647474099D+00  0.1000000000D+01
 Atom O13      Shell   127 S   1     bf  345 -   345         -2.434086096611          2.478079215128         -0.135231134319
      0.1850453636D+00  0.1000000000D+01
 Atom O13      Shell   128 P   4     bf  346 -   348         -2.434086096611          2.478079215128         -0.135231134319
      0.6327495480D+02  0.1201833222D-01
      0.1462704938D+02  0.8300542179D-01
      0.4450122346D+01  0.3199174393D+00
      0.1527579965D+01  0.7071554292D+00
 Atom O13      Shell   129 P   1     bf  349 -   351         -2.434086096611          2.478079215128         -0.135231134319
      0.5293511794D+00  0.1000000000D+01
 Atom O13      Shell   130 P   1     bf  352 -   354         -2.434086096611          2.478079215128         -0.135231134319
      0.1747842127D+00  0.1000000000D+01
 Atom O13      Shell   131 D   1     bf  355 -   359         -2.434086096611          2.478079215128         -0.135231134319
      0.2314000000D+01  0.1000000000D+01
 Atom O13      Shell   132 D   1     bf  360 -   364         -2.434086096611          2.478079215128         -0.135231134319
      0.6450000000D+00  0.1000000000D+01
 Atom O13      Shell   133 F   1     bf  365 -   371         -2.434086096611          2.478079215128         -0.135231134319
      0.1428000000D+01  0.1000000000D+01
 Atom O14      Shell   134 S   6     bf  372 -   372         -6.651533080199          2.844878478579         -0.134217424622
      0.2703238263D+05  0.5722733521D-03
      0.4052387139D+04  0.4435323349D-02
      0.9223272271D+03  0.2302010771D-01
      0.2612407099D+03  0.9282249067D-01
      0.8535464135D+02  0.2937850001D+00
      0.3103503524D+02  0.6740160450D+00
 Atom O14      Shell   135 S   2     bf  373 -   373         -6.651533080199          2.844878478579         -0.134217424622
      0.1226086073D+02  0.6383993703D+00
      0.4998707601D+01  0.3953458713D+00
 Atom O14      Shell   136 S   1     bf  374 -   374         -6.651533080199          2.844878478579         -0.134217424622
      0.1170310816D+01  0.1000000000D+01
 Atom O14      Shell   137 S   1     bf  375 -   375         -6.651533080199          2.844878478579         -0.134217424622
      0.4647474099D+00  0.1000000000D+01
 Atom O14      Shell   138 S   1     bf  376 -   376         -6.651533080199          2.844878478579         -0.134217424622
      0.1850453636D+00  0.1000000000D+01
 Atom O14      Shell   139 P   4     bf  377 -   379         -6.651533080199          2.844878478579         -0.134217424622
      0.6327495480D+02  0.1201833222D-01
      0.1462704938D+02  0.8300542179D-01
      0.4450122346D+01  0.3199174393D+00
      0.1527579965D+01  0.7071554292D+00
 Atom O14      Shell   140 P   1     bf  380 -   382         -6.651533080199          2.844878478579         -0.134217424622
      0.5293511794D+00  0.1000000000D+01
 Atom O14      Shell   141 P   1     bf  383 -   385         -6.651533080199          2.844878478579         -0.134217424622
      0.1747842127D+00  0.1000000000D+01
 Atom O14      Shell   142 D   1     bf  386 -   390         -6.651533080199          2.844878478579         -0.134217424622
      0.2314000000D+01  0.1000000000D+01
 Atom O14      Shell   143 D   1     bf  391 -   395         -6.651533080199          2.844878478579         -0.134217424622
      0.6450000000D+00  0.1000000000D+01
 Atom O14      Shell   144 F   1     bf  396 -   402         -6.651533080199          2.844878478579         -0.134217424622
      0.1428000000D+01  0.1000000000D+01
 Atom O15      Shell   145 S   6     bf  403 -   403         -6.855557785266         -2.462631164902          0.073440054583
      0.2703238263D+05  0.5722733521D-03
      0.4052387139D+04  0.4435323349D-02
      0.9223272271D+03  0.2302010771D-01
      0.2612407099D+03  0.9282249067D-01
      0.8535464135D+02  0.2937850001D+00
      0.3103503524D+02  0.6740160450D+00
 Atom O15      Shell   146 S   2     bf  404 -   404         -6.855557785266         -2.462631164902          0.073440054583
      0.1226086073D+02  0.6383993703D+00
      0.4998707601D+01  0.3953458713D+00
 Atom O15      Shell   147 S   1     bf  405 -   405         -6.855557785266         -2.462631164902          0.073440054583
      0.1170310816D+01  0.1000000000D+01
 Atom O15      Shell   148 S   1     bf  406 -   406         -6.855557785266         -2.462631164902          0.073440054583
      0.4647474099D+00  0.1000000000D+01
 Atom O15      Shell   149 S   1     bf  407 -   407         -6.855557785266         -2.462631164902          0.073440054583
      0.1850453636D+00  0.1000000000D+01
 Atom O15      Shell   150 P   4     bf  408 -   410         -6.855557785266         -2.462631164902          0.073440054583
      0.6327495480D+02  0.1201833222D-01
      0.1462704938D+02  0.8300542179D-01
      0.4450122346D+01  0.3199174393D+00
      0.1527579965D+01  0.7071554292D+00
 Atom O15      Shell   151 P   1     bf  411 -   413         -6.855557785266         -2.462631164902          0.073440054583
      0.5293511794D+00  0.1000000000D+01
 Atom O15      Shell   152 P   1     bf  414 -   416         -6.855557785266         -2.462631164902          0.073440054583
      0.1747842127D+00  0.1000000000D+01
 Atom O15      Shell   153 D   1     bf  417 -   421         -6.855557785266         -2.462631164902          0.073440054583
      0.2314000000D+01  0.1000000000D+01
 Atom O15      Shell   154 D   1     bf  422 -   426         -6.855557785266         -2.462631164902          0.073440054583
      0.6450000000D+00  0.1000000000D+01
 Atom O15      Shell   155 F   1     bf  427 -   433         -6.855557785266         -2.462631164902          0.073440054583
      0.1428000000D+01  0.1000000000D+01
 Effective core potential in the form of general ECP input:
      1 0
 Pa1-ECP   5 60
 H component
  1
  2        1.0000000        0.00000000    0.00000000
 S-H projection
  1
  2       15.2691737      475.47573283    0.00000000
 P-H projection
  1
  2        9.9577370      207.66485962    0.00000000
 D-H projection
  1
  2        8.9431413      156.67411988    0.00000000
 F-H projection
  1
  2        7.0104666       67.98223685    0.00000000
 G-H projection
  1
  2       12.2010560      -57.63059989    0.00000000
 
 There are   506 symmetry adapted cartesian basis functions of A   symmetry.
 There are   433 symmetry adapted basis functions of A   symmetry.
   433 basis functions,   750 primitive gaussians,   506 cartesian basis functions
    56 alpha electrons       56 beta electrons
       nuclear repulsion energy       990.8670148111 Hartrees.
 IExCor=  404 DFT=T Ex=B Corr=P86 ExCW=0 ScaHFX=  0.000000
 ScaDFX=  1.000000  1.000000  1.000000  1.000000 ScalE2=  1.000000  1.000000
 IRadAn=      5 IRanWt=     -1 IRanGd=            0 ICorTp=0 IEmpDi=  4
 NAtoms=   15 NActive=   15 NUniq=   15 SFac= 1.00D+00 NAtFMM=   60 NAOKFM=F Big=F
 Integral buffers will be    131072 words long.
 Raffenetti 2 integral format.
 Two-electron integral symmetry is turned on.
 Leave Link  301 at Mon Jun 26 12:44:23 2023, MaxMem=  2147483648 cpu:               4.9 elap:               3.9
 (Enter /home/pcmt/gaussian/g16.C.01/g16/l302.exe)
 NPDir=0 NMtPBC=     1 NCelOv=     1 NCel=       1 NClECP=     1 NCelD=      1
         NCelK=      1 NCelE2=     1 NClLst=     1 CellRange=     0.0.
 One-electron integrals computed using PRISM.
 One-electron integral symmetry used in STVInt
   1 Symmetry operations used in ECPInt.
 ECPInt:  NShTT=   12090 NPrTT=   36858 LenC2=   11081 LenP2D=   24659.
 LDataN:  DoStor=T MaxTD1= 9 Len=  602
 NBasis=   433 RedAO= T EigKep=  4.77D-04  NBF=   433
 NBsUse=   433 1.00D-06 EigRej= -1.00D+00 NBFU=   433
 Precomputing XC quadrature grid using
 IXCGrd= 4 IRadAn=           5 IRanWt=          -1 IRanGd=           0 AccXCQ= 0.00D+00.
 Defaulting to unpruned grid for atomic number  91.
 Generated NRdTot=       0 NPtTot=           0 NUsed=           0 NTot=          32
 NSgBfM=   498   498   498   498   498 MxSgAt=    15 MxSgA2=    15.
 Leave Link  302 at Mon Jun 26 12:44:27 2023, MaxMem=  2147483648 cpu:              11.7 elap:               4.0
 (Enter /home/pcmt/gaussian/g16.C.01/g16/l303.exe)
 DipDrv:  MaxL=1.
 Leave Link  303 at Mon Jun 26 12:44:28 2023, MaxMem=  2147483648 cpu:               2.0 elap:               1.4
 (Enter /home/pcmt/gaussian/g16.C.01/g16/l401.exe)
 ExpMin= 2.32D-02 ExpMax= 2.70D+04 ExpMxC= 1.20D+04 IAcc=3 IRadAn=         5 AccDes= 0.00D+00
 Harris functional with IExCor=  404 and IRadAn=       5 diagonalized for initial guess.
 HarFok:  IExCor=  404 AccDes= 0.00D+00 IRadAn=         5 IDoV= 1 UseB2=F ITyADJ=14
 ICtDFT=  3500011 ScaDFX=  1.000000  1.000000  1.000000  1.000000
 Defaulting to unpruned grid for atomic number  91.
 FoFCou: FMM=F IPFlag=           0 FMFlag=      100000 FMFlg1=           0
         NFxFlg=           0 DoJE=T BraDBF=F KetDBF=T FulRan=T
         wScrn=  0.000000 ICntrl=       500 IOpCl=  0 I1Cent=   200000004 NGrid=           0
         NMat0=    1 NMatS0=      1 NMatT0=    0 NMatD0=    1 NMtDS0=    0 NMtDT0=    0
 Petite list used in FoFCou.
 Harris En= -1124.39610066184    
 JPrj=0 DoOrth=F DoCkMO=F.
 Leave Link  401 at Mon Jun 26 12:44:35 2023, MaxMem=  2147483648 cpu:              34.0 elap:               7.0
 (Enter /home/pcmt/gaussian/g16.C.01/g16/l502.exe)
 Integral symmetry usage will be decided dynamically.
 Closed shell SCF:
 Using DIIS extrapolation, IDIIS=  1040.
 NGot=  2147483648 LenX=  2146962898 LenY=  2146706356
 Requested convergence on RMS density matrix=1.00D-08 within 100 cycles.
 Requested convergence on MAX density matrix=1.00D-06.
 Requested convergence on             energy=1.00D-06.
 No special actions if energy rises.
 Fock matrices will be formed incrementally for  20 cycles.

 Cycle   1  Pass 1  IDiag  1:
 FoFJK:  IHMeth= 1 ICntrl=     500 DoSepK=F KAlg= 0 I1Cent=           0 FoldK=F
 IRaf= 870000000 NMat=       1 IRICut=       1 DoRegI=T DoRafI=F ISym2E= 0 IDoP0=0 IntGTp=1.
 FoFCou: FMM=F IPFlag=           0 FMFlag=      100000 FMFlg1=           0
         NFxFlg=           0 DoJE=T BraDBF=F KetDBF=F FulRan=T
         wScrn=  0.000000 ICntrl=       500 IOpCl=  0 I1Cent=           0 NGrid=           0
         NMat0=    1 NMatS0=      1 NMatT0=    0 NMatD0=    1 NMtDS0=    0 NMtDT0=    0
 Symmetry not used in FoFCou.
 Defaulting to unpruned grid for atomic number  91.
 Defaulting to unpruned grid for atomic number  91.
 Defaulting to unpruned grid for atomic number  91.
 Defaulting to unpruned grid for atomic number  91.
 Defaulting to unpruned grid for atomic number  91.
 Defaulting to unpruned grid for atomic number  91.
 Defaulting to unpruned grid for atomic number  91.
 Defaulting to unpruned grid for atomic number  91.
 E= -1121.48513943048    
 DIIS: error= 3.93D-02 at cycle   1 NSaved=   1.
 NSaved= 1 IEnMin= 1 EnMin= -1121.48513943048     IErMin= 1 ErrMin= 3.93D-02
 ErrMax= 3.93D-02  0.00D+00 EMaxC= 1.00D-01 BMatC= 1.80D+00 BMatP= 1.80D+00
 IDIUse=3 WtCom= 6.07D-01 WtEn= 3.93D-01
 Coeff-Com:  0.100D+01
 Coeff-En:   0.100D+01
 Coeff:      0.100D+01
 Gap=     0.074 Goal=   None    Shift=    0.000
 GapD=    0.074 DampG=0.500 DampE=0.250 DampFc=0.1250 IDamp=-1.
 Damping current iteration by 1.25D-01
 RMSDP=1.03D-02 MaxDP=1.30D+00              OVMax= 9.61D-01

 Cycle   2  Pass 1  IDiag  1:
 RMSU=  1.27D-03    CP:  1.01D+00
 E= -1121.52083658205     Delta-E=       -0.035697151569 Rises=F Damp=T
 DIIS: error= 2.55D-02 at cycle   2 NSaved=   2.
 NSaved= 2 IEnMin= 2 EnMin= -1121.52083658205     IErMin= 2 ErrMin= 2.55D-02
 ErrMax= 2.55D-02  0.00D+00 EMaxC= 1.00D-01 BMatC= 3.30D-01 BMatP= 1.80D+00
 IDIUse=3 WtCom= 7.45D-01 WtEn= 2.55D-01
 Coeff-Com: -0.508D-01 0.105D+01
 Coeff-En:   0.486D+00 0.514D+00
 Coeff:      0.863D-01 0.914D+00
 Gap=     0.042 Goal=   None    Shift=    0.000
 RMSDP=2.10D-02 MaxDP=4.37D+00 DE=-3.57D-02 OVMax= 8.96D-01

 Cycle   3  Pass 1  IDiag  1:
 RMSU=  2.07D-02    CP:  9.90D-01  3.00D+00
 E= -1115.85902000235     Delta-E=        5.661816579697 Rises=F Damp=F
 DIIS: error= 7.79D-02 at cycle   3 NSaved=   3.
 NSaved= 3 IEnMin= 2 EnMin= -1121.52083658205     IErMin= 2 ErrMin= 2.55D-02
 ErrMax= 7.79D-02  0.00D+00 EMaxC= 1.00D-01 BMatC= 4.83D+00 BMatP= 3.30D-01
 IDIUse=2 WtCom= 0.00D+00 WtEn= 1.00D+00
 EnCoef did     4 forward-backward iterations
 Coeff-En:   0.402D+00 0.497D+00 0.101D+00
 Coeff:      0.402D+00 0.497D+00 0.101D+00
 Gap=    -0.022 Goal=   None    Shift=    0.000
 RMSDP=2.13D-02 MaxDP=4.31D+00 DE= 5.66D+00 OVMax= 8.98D-01

 Cycle   4  Pass 1  IDiag  1:
 RMSU=  3.39D-03    CP:  1.04D+00  3.00D+00 -1.43D-02
 E= -1101.62214022560     Delta-E=       14.236879776753 Rises=F Damp=F
 DIIS: error= 2.71D-01 at cycle   4 NSaved=   4.
 NSaved= 4 IEnMin= 2 EnMin= -1121.52083658205     IErMin= 2 ErrMin= 2.55D-02
 ErrMax= 2.71D-01  0.00D+00 EMaxC= 1.00D-01 BMatC= 4.04D+01 BMatP= 3.30D-01
 IDIUse=2 WtCom= 0.00D+00 WtEn= 1.00D+00
 EnCoef did   100 forward-backward iterations
 Coeff-En:   0.738D+00 0.123D-01 0.114D+00 0.136D+00
 Coeff:      0.738D+00 0.123D-01 0.114D+00 0.136D+00
 Gap=     0.005 Goal=   None    Shift=    0.000
 RMSDP=3.46D-03 MaxDP=2.73D-01 DE= 1.42D+01 OVMax= 8.57D-01

 Cycle   5  Pass 1  IDiag  1:
 RMSU=  2.20D-03    CP:  1.05D+00  1.91D+00  3.57D-03  4.42D-01
 E= -1122.05563081318     Delta-E=      -20.433490587588 Rises=F Damp=F
 DIIS: error= 3.17D-02 at cycle   5 NSaved=   5.
 NSaved= 5 IEnMin= 5 EnMin= -1122.05563081318     IErMin= 2 ErrMin= 2.55D-02
 ErrMax= 3.17D-02  0.00D+00 EMaxC= 1.00D-01 BMatC= 1.07D+00 BMatP= 3.30D-01
 IDIUse=2 WtCom= 0.00D+00 WtEn= 1.00D+00
 EnCoef did   100 forward-backward iterations
 Coeff-En:   0.395D+00 0.557D-02 0.000D+00 0.000D+00 0.600D+00
 Coeff:      0.395D+00 0.557D-02 0.000D+00 0.000D+00 0.600D+00
 Gap=     0.182 Goal=   None    Shift=    0.000
 RMSDP=2.06D-03 MaxDP=8.59D-02 DE=-2.04D+01 OVMax= 3.47D-01

 Cycle   6  Pass 1  IDiag  1:
 RMSU=  1.76D-03    CP:  1.05D+00  1.61D+00 -1.67D-03  2.73D-01  6.28D-01
 E= -1122.45149986271     Delta-E=       -0.395869049524 Rises=F Damp=F
 DIIS: error= 1.95D-02 at cycle   6 NSaved=   6.
 NSaved= 6 IEnMin= 6 EnMin= -1122.45149986271     IErMin= 6 ErrMin= 1.95D-02
 ErrMax= 1.95D-02  0.00D+00 EMaxC= 1.00D-01 BMatC= 3.45D-01 BMatP= 3.30D-01
 IDIUse=3 WtCom= 8.05D-01 WtEn= 1.95D-01
 EnCoef did     7 forward-backward iterations
 Coeff-Com:  0.190D+00 0.151D+00 0.111D-01-0.210D-01 0.400D+00 0.269D+00
 Coeff-En:   0.178D+00 0.000D+00 0.000D+00 0.000D+00 0.353D+00 0.469D+00
 Coeff:      0.188D+00 0.121D+00 0.896D-02-0.169D-01 0.391D+00 0.308D+00
 Gap=     0.135 Goal=   None    Shift=    0.000
 RMSDP=1.60D-03 MaxDP=6.52D-02 DE=-3.96D-01 OVMax= 2.42D-01

 Cycle   7  Pass 1  IDiag  1:
 RMSU=  6.52D-04    CP:  1.05D+00  1.30D+00 -1.62D-03  2.59D-01  6.92D-01
                    CP:  2.05D-01
 E= -1122.65959895604     Delta-E=       -0.208099093330 Rises=F Damp=F
 DIIS: error= 9.65D-03 at cycle   7 NSaved=   7.
 NSaved= 7 IEnMin= 7 EnMin= -1122.65959895604     IErMin= 7 ErrMin= 9.65D-03
 ErrMax= 9.65D-03  0.00D+00 EMaxC= 1.00D-01 BMatC= 1.15D-01 BMatP= 3.30D-01
 IDIUse=3 WtCom= 9.04D-01 WtEn= 9.65D-02
 EnCoef did     2 forward-backward iterations
 Coeff-Com: -0.214D-01 0.160D+00 0.810D-02-0.734D-02 0.169D+00 0.209D+00
 Coeff-Com:  0.482D+00
 Coeff-En:   0.000D+00 0.000D+00 0.000D+00 0.000D+00 0.973D-01 0.230D+00
 Coeff-En:   0.672D+00
 Coeff:     -0.193D-01 0.145D+00 0.732D-02-0.663D-02 0.162D+00 0.211D+00
 Coeff:      0.501D+00
 Gap=     0.119 Goal=   None    Shift=    0.000
 RMSDP=4.87D-04 MaxDP=2.56D-02 DE=-2.08D-01 OVMax= 7.18D-02

 Cycle   8  Pass 1  IDiag  1:
 RMSU=  3.83D-04    CP:  1.05D+00  1.39D+00 -3.95D-03  2.67D-01  6.94D-01
                    CP:  2.86D-01  6.41D-01
 E= -1122.73461426035     Delta-E=       -0.075015304316 Rises=F Damp=F
 DIIS: error= 4.90D-03 at cycle   8 NSaved=   8.
 NSaved= 8 IEnMin= 8 EnMin= -1122.73461426035     IErMin= 8 ErrMin= 4.90D-03
 ErrMax= 4.90D-03  0.00D+00 EMaxC= 1.00D-01 BMatC= 2.53D-02 BMatP= 1.15D-01
 IDIUse=3 WtCom= 9.51D-01 WtEn= 4.90D-02
 Coeff-Com: -0.577D-01 0.106D+00-0.484D-02-0.197D-03 0.733D-01 0.114D+00
 Coeff-Com:  0.370D+00 0.399D+00
 Coeff-En:   0.000D+00 0.000D+00 0.000D+00 0.000D+00 0.000D+00 0.000D+00
 Coeff-En:   0.116D-01 0.988D+00
 Coeff:     -0.549D-01 0.101D+00-0.461D-02-0.188D-03 0.697D-01 0.108D+00
 Coeff:      0.353D+00 0.428D+00
 Gap=     0.100 Goal=   None    Shift=    0.000
 RMSDP=2.43D-04 MaxDP=1.42D-02 DE=-7.50D-02 OVMax= 3.55D-02

 Cycle   9  Pass 1  IDiag  1:
 RMSU=  1.63D-04    CP:  1.05D+00  1.44D+00 -4.50D-03  2.76D-01  7.07D-01
                    CP:  3.10D-01  7.42D-01  6.45D-01
 E= -1122.74855851448     Delta-E=       -0.013944254129 Rises=F Damp=F
 DIIS: error= 3.33D-03 at cycle   9 NSaved=   9.
 NSaved= 9 IEnMin= 9 EnMin= -1122.74855851448     IErMin= 9 ErrMin= 3.33D-03
 ErrMax= 3.33D-03  0.00D+00 EMaxC= 1.00D-01 BMatC= 9.55D-03 BMatP= 2.53D-02
 IDIUse=3 WtCom= 9.67D-01 WtEn= 3.33D-02
 Coeff-Com: -0.418D-01 0.729D-01-0.753D-02 0.106D-02 0.443D-01 0.615D-01
 Coeff-Com:  0.146D+00 0.265D+00 0.459D+00
 Coeff-En:   0.000D+00 0.000D+00 0.000D+00 0.000D+00 0.000D+00 0.000D+00
 Coeff-En:   0.000D+00 0.361D-01 0.964D+00
 Coeff:     -0.405D-01 0.705D-01-0.728D-02 0.102D-02 0.429D-01 0.595D-01
 Coeff:      0.141D+00 0.257D+00 0.476D+00
 Gap=     0.094 Goal=   None    Shift=    0.000
 RMSDP=1.24D-04 MaxDP=8.15D-03 DE=-1.39D-02 OVMax= 1.77D-02

 Cycle  10  Pass 1  IDiag  1:
 RMSU=  9.19D-05    CP:  1.05D+00  1.46D+00 -4.58D-03  2.81D-01  7.20D-01
                    CP:  3.33D-01  7.17D-01  7.60D-01  8.12D-01
 E= -1122.75305680122     Delta-E=       -0.004498286742 Rises=F Damp=F
 DIIS: error= 1.82D-03 at cycle  10 NSaved=  10.
 NSaved=10 IEnMin=10 EnMin= -1122.75305680122     IErMin=10 ErrMin= 1.82D-03
 ErrMax= 1.82D-03  0.00D+00 EMaxC= 1.00D-01 BMatC= 4.49D-03 BMatP= 9.55D-03
 IDIUse=3 WtCom= 9.82D-01 WtEn= 1.82D-02
 Coeff-Com: -0.107D-01 0.308D-01-0.310D-02 0.150D-02 0.110D-01 0.295D-02
 Coeff-Com: -0.123D+00-0.125D+00 0.372D+00 0.843D+00
 Coeff-En:   0.000D+00 0.000D+00 0.000D+00 0.000D+00 0.000D+00 0.000D+00
 Coeff-En:   0.000D+00 0.000D+00 0.000D+00 0.100D+01
 Coeff:     -0.105D-01 0.302D-01-0.304D-02 0.148D-02 0.108D-01 0.290D-02
 Coeff:     -0.121D+00-0.122D+00 0.365D+00 0.846D+00
 Gap=     0.089 Goal=   None    Shift=    0.000
 RMSDP=1.59D-04 MaxDP=1.48D-02 DE=-4.50D-03 OVMax= 1.92D-02

 Cycle  11  Pass 1  IDiag  1:
 RMSU=  9.09D-05    CP:  1.05D+00  1.50D+00 -5.28D-03  2.85D-01  7.25D-01
                    CP:  3.58D-01  7.52D-01  8.12D-01  1.38D+00  1.38D+00
 E= -1122.75715344265     Delta-E=       -0.004096641424 Rises=F Damp=F
 DIIS: error= 1.35D-03 at cycle  11 NSaved=  11.
 NSaved=11 IEnMin=11 EnMin= -1122.75715344265     IErMin=11 ErrMin= 1.35D-03
 ErrMax= 1.35D-03  0.00D+00 EMaxC= 1.00D-01 BMatC= 1.32D-03 BMatP= 4.49D-03
 IDIUse=3 WtCom= 9.87D-01 WtEn= 1.35D-02
 Coeff-Com:  0.145D-01-0.531D-02-0.722D-03 0.674D-03 0.391D-02-0.130D-01
 Coeff-Com: -0.179D+00-0.233D+00 0.103D+00 0.763D+00 0.547D+00
 Coeff-En:   0.000D+00 0.000D+00 0.000D+00 0.000D+00 0.000D+00 0.000D+00
 Coeff-En:   0.000D+00 0.000D+00 0.000D+00 0.000D+00 0.100D+01
 Coeff:      0.143D-01-0.524D-02-0.712D-03 0.665D-03 0.386D-02-0.128D-01
[...]
 121         V                 0.707350          1.501061
 122         V                 0.718567          1.778806
 123         V                 0.735469          1.810593
 124         V                 0.746138          1.573805
 125         V                 0.752508          1.432479
 126         V                 0.762543          2.353535
 127         V                 0.787282          2.142241
 128         V                 0.791970          2.416088
 129         V                 0.800410          2.115983
 130         V                 0.817467          1.906037
 131         V                 0.835458          1.655067
 132         V                 0.843006          1.785126
 133         V                 0.865997          1.687613
 134         V                 0.880926          1.722116
 135         V                 0.891286          1.635854
 136         V                 0.907223          1.594700
 137         V                 0.918996          2.106429
 138         V                 0.941241          1.882120
 139         V                 0.963036          1.786167
 140         V                 0.977505          1.879941
 141         V                 0.993743          1.860860
 142         V                 1.012658          2.004844
 143         V                 1.030568          2.098821
 144         V                 1.051619          2.110480
 145         V                 1.077429          2.239866
 146         V                 1.085844          2.650011
 147         V                 1.092492          1.725910
 148         V                 1.124298          2.116811
 149         V                 1.143348          2.195905
 150         V                 1.162069          2.563386
 151         V                 1.172286          2.771665
 152         V                 1.184849          2.277709
 153         V                 1.210422          2.799129
 154         V                 1.237933          2.677713
 155         V                 1.247584          2.614355
 156         V                 1.258013          2.693447
 157         V                 1.262572          2.641063
 158         V                 1.282045          2.771967
 159         V                 1.286275          2.910430
 160         V                 1.303427          2.609557
 161         V                 1.320391          2.739171
 162         V                 1.331509          2.830643
 163         V                 1.338773          2.880290
 164         V                 1.348004          2.918136
 165         V                 1.355373          2.773608
 166         V                 1.361352          2.851805
 167         V                 1.406456          2.978321
 168         V                 1.422561          2.887019
 169         V                 1.458859          2.457303
 170         V                 1.463989          2.489695
 171         V                 1.474075          2.729172
 172         V                 1.492190          2.708466
 173         V                 1.508746          3.593650
 174         V                 1.515499          3.009955
 175         V                 1.534952          3.293532
 176         V                 1.553988          2.908594
 177         V                 1.562723          3.500504
 178         V                 1.578032          3.109432
 179         V                 1.607461          2.954501
 180         V                 1.625173          3.074589
 181         V                 1.627865          2.679228
 182         V                 1.638534          3.044470
 183         V                 1.645547          2.668751
 184         V                 1.657039          3.091615
 185         V                 1.666215          3.019761
 186         V                 1.677459          3.239716
 187         V                 1.705157          2.878929
 188         V                 1.723034          3.085649
 189         V                 1.734725          3.288678
 190         V                 1.743050          3.084830
 191         V                 1.773952          2.795543
 192         V                 1.777227          3.227444
 193         V                 1.793274          3.146927
 194         V                 1.815021          3.149417
 195         V                 1.827702          3.325530
 196         V                 1.837014          3.278844
 197         V                 1.883020          3.031877
 198         V                 1.888467          3.260736
 199         V                 1.904445          3.341033
 200         V                 1.916514          3.611480
 201         V                 1.922922          3.417391
 202         V                 1.948599          3.021264
 203         V                 1.962079          3.442086
 204         V                 1.987920          3.358345
 205         V                 2.008187          3.420434
 206         V                 2.020274          2.936726
 207         V                 2.032740          3.331553
 208         V                 2.051247          3.629186
 209         V                 2.066934          3.657570
 210         V                 2.085188          3.093996
 211         V                 2.090819          3.205469
 212         V                 2.112844          3.486448
 213         V                 2.119176          3.436658
 214         V                 2.151965          3.394559
 215         V                 2.169748          3.778435
 216         V                 2.203718          3.508908
 217         V                 2.213517          3.601896
 218         V                 2.218377          3.488575
 219         V                 2.239962          3.774789
 220         V                 2.251289          3.726477
 221         V                 2.256287          3.826748
 222         V                 2.266840          3.577524
 223         V                 2.282317          3.772238
 224         V                 2.307679          4.036509
 225         V                 2.325102          4.126991
 226         V                 2.340803          4.175976
 227         V                 2.376000          4.143658
 228         V                 2.389412          4.370939
 229         V                 2.395445          4.778286
 230         V                 2.407601          4.438621
 231         V                 2.418285          4.389408
 232         V                 2.445970          4.400890
 233         V                 2.457335          4.653200
 234         V                 2.536450          4.003225
 235         V                 2.556947          4.700683
 236         V                 2.591047          5.748299
 237         V                 2.614862          5.274994
 238         V                 2.621985          5.177291
 239         V                 2.636093          4.680421
 240         V                 2.646982          4.696431
 241         V                 2.653851          4.584994
 242         V                 2.686432          5.373454
 243         V                 2.711499          5.486889
 244         V                 2.740381          6.844000
 245         V                 2.747867          6.754789
 246         V                 2.761556          4.429418
 247         V                 2.775352          6.353087
 248         V                 2.788800          6.014883
 249         V                 2.826076          5.678756
 250         V                 2.840335          5.066730
 251         V                 2.854078          6.525534
 252         V                 2.863481          6.195640
 253         V                 2.955070          5.536310
 254         V                 2.971485          5.955297
 255         V                 2.987801          6.483122
 256         V                 3.016700          6.822420
 257         V                 3.043220          7.041989
 258         V                 3.062370          6.274437
 259         V                 3.069675          6.391940
 260         V                 3.083117          5.786528
 261         V                 3.107271          5.696941
 262         V                 3.109186          5.635088
 263         V                 3.141982          5.782468
 264         V                 3.151719          6.146025
 265         V                 3.174215          4.635233
 266         V                 3.187627          6.274500
 267         V                 3.246249          6.928045
 268         V                 3.274946          4.688387
 269         V                 3.311318          7.201692
 270         V                 3.338949          6.433834
 271         V                 3.367063          6.798165
 272         V                 3.373599          6.682897
 273         V                 3.402215          7.668843
 274         V                 3.434882          4.870083
 275         V                 3.470173          7.013252
 276         V                 3.498449          6.600925
 277         V                 3.521723          5.919828
 278         V                 3.530384          4.976064
 279         V                 3.540845          6.852594
 280         V                 3.578042          6.007844
 281         V                 3.614725          6.264882
 282         V                 3.646712          4.875417
 283         V                 3.692200          7.261211
 284         V                 3.720679          7.414600
 285         V                 3.753083          5.078592
 286         V                 3.762172          5.867308
 287         V                 3.835452          6.861757
 288         V                 3.854429          6.735411
 289         V                 3.866106          7.134330
 290         V                 3.886921          4.971353
 291         V                 3.908563          9.606674
 292         V                 3.992660          7.233748
 293         V                 3.999862          8.088555
 294         V                 4.040203          8.982214
 295         V                 4.076224          8.572763
 296         V                 4.105302          9.378535
 297         V                 4.175244          7.578699
 298         V                 4.265138          8.545777
 299         V                 4.301893          7.971121
 300         V                 4.315248          7.748858
 301         V                 4.380587          7.769622
 302         V                 4.442662          9.131096
 303         V                 4.525754          7.002245
 304         V                 4.603171          7.303969
 305         V                 4.694469          6.553740
 306         V                 4.915783          8.189870
 307         V                 5.036378          6.539384
 308         V                 5.150803          6.471346
 309         V                 5.153243          6.492147
 310         V                 5.169761          6.451492
 311         V                 5.178177          6.519083
 312         V                 5.186016          6.682256
 313         V                 5.194052          6.531780
 314         V                 5.200573          6.644734
 315         V                 5.206800          6.534260
 316         V                 5.211365          6.500290
 317         V                 5.212829          6.482270
 318         V                 5.221449          6.556952
 319         V                 5.232066          6.485173
 320         V                 5.232889          6.522874
 321         V                 5.244898          6.593401
 322         V                 5.250014          6.686456
 323         V                 5.264376          6.730089
 324         V                 5.276478          6.634156
 325         V                 5.277856          6.709263
 326         V                 5.295224          6.775782
 327         V                 5.299546          6.830857
 328         V                 5.302044          6.772525
 329         V                 5.306751          6.740085
 330         V                 5.307204          6.743287
 331         V                 5.319473          6.818478
 332         V                 5.368594          6.878364
 333         V                 5.395281          7.027028
 334         V                 5.407322          6.982664
 335         V                 5.411292          6.855085
 336         V                 5.439774          7.262083
 337         V                 5.452408          6.889645
 338         V                 5.461539          7.240107
 339         V                 5.489676          7.192903
 340         V                 5.499397          7.159958
 341         V                 5.563901          7.053194
 342         V                 5.568102          7.069193
 343         V                 5.614326          7.122159
 344         V                 5.622733          7.278234
 345         V                 5.679190          7.307464
 346         V                 5.727360          7.381526
 347         V                 5.805861          7.872649
 348         V                 5.908147          8.520935
 349         V                 5.934366          7.795597
 350         V                 5.979752          7.897580
 351         V                 5.988241          8.357380
 352         V                 6.084206          8.186171
 353         V                 6.136594          8.369071
 354         V                 6.138914          9.019267
 355         V                 6.185127         10.293705
 356         V                 6.218011          9.477332
 357         V                 6.241734          8.860743
 358         V                 6.255040          8.980828
 359         V                 6.264610          9.328284
 360         V                 6.274441          9.157593
 361         V                 6.293623          9.397819
 362         V                 6.331626          9.324835
 363         V                 6.354738          9.256414
 364         V                 6.356649          9.296069
 365         V                 6.362977          9.398324
 366         V                 6.379350          9.321688
 367         V                 6.406393          9.254465
 368         V                 6.419652          9.170724
 369         V                 6.427716          9.408982
 370         V                 6.455574          9.492622
 371         V                 6.471349          9.424916
 372         V                 6.490324          9.424038
 373         V                 6.522679          9.535899
 374         V                 6.531885          9.491792
 375         V                 6.537718          9.521827
 376         V                 6.540021          9.605362
 377         V                 6.561466          9.397295
 378         V                 6.584470          9.618235
 379         V                 6.600777          9.590825
 380         V                 6.658735          9.799875
 381         V                 6.671149         10.045315
 382         V                 6.734898          9.645912
 383         V                 6.741221          9.671667
 384         V                 6.784372          9.541500
 385         V                 6.822563          9.392518
 386         V                 6.833266          9.445239
 387         V                 6.842607          9.429955
 388         V                 6.845134         10.107326
 389         V                 6.915596         10.038230
 390         V                 6.922771          9.543752
 391         V                 6.932310          9.854058
 392         V                 6.950206         10.088846
 393         V                 6.979157          9.931401
 394         V                 6.983607         10.694422
 395         V                 7.038729         10.038850
 396         V                 7.058719          9.752340
 397         V                 7.099358         10.158592
 398         V                 7.113537         10.062972
 399         V                 7.141101         10.235647
 400         V                 7.207817         10.383242
 401         V                 7.219714         10.405026
 402         V                 7.280867         10.543746
 403         V                 7.480858         12.473002
 404         V                 7.597556         10.905129
 405         V                 7.617419         13.668757
 406         V                 7.641328         12.167054
 407         V                 8.356206         15.808164
 408         V                 8.376993         15.823017
 409         V                 8.498690         15.834399
 410         V                 8.888314         16.021010
 411         V                 9.161423         16.241036
 412         V                23.200349         56.741163
 413         V                23.373953         56.897721
 414         V                29.504033         36.057315
 415         V                29.599558         36.146882
 416         V                29.633618         36.173622
 417         V                43.128357        108.484134
 418         V                43.380719        108.578505
 419         V                43.511782        108.690428
 420         V                43.532158        108.742597
 421         V                43.625393        108.852542
 422         V                43.687339        108.878318
 423         V                43.701445        108.923339
 424         V                43.909556        109.121774
 425         V                54.231917         39.959079
 426         V                70.395875         83.984382
 427         V                70.450589         84.082362
 428         V                70.477167         84.116833
 429         V               142.801569        242.470767
 430         V               142.904272        242.600310
 431         V               142.948431        242.655202
 432         V               202.743948        130.068107
 433         V               626.253353       1034.495898
 Total kinetic energy from orbitals= 8.428316379890D+02
 No NMR shielding tensors so no spin-rotation constants.
 Leave Link  601 at Mon Jun 26 12:49:57 2023, MaxMem=  2147483648 cpu:              19.1 elap:               7.6
 (Enter /home/pcmt/gaussian/g16.C.01/g16/l9999.exe)

 Test job not archived.
 1\1\GINC-U-0-3\SP\RBP86\Gen\C2H4O8Pa1(1-)\SHAABAN\26-Jun-2023\0\\#p BP
 86/GEN Pseudo=Read GFInput GFPrint IOP(6/7=3) Symm=(Loose) Int=(UltraF
 ine) Guess=(Harris) Scf=(NoVarAcc,MaxCycle=100,conver=8)\\pao_oh2_c2o4
 _h2o-bp86-cosmors-deftzvp-gp.com SGP in PCM calculation\\-1,1\Pa,0,0.4
 522944352,0.6786570107,-0.1230677361\O,0,2.5675909077,0.8059427853,-0.
 6855801029\H,0,-0.8741386207,1.4633260845,-2.5375819838\O,0,0.78568414
 08,-0.0343505592,1.5855039102\O,0,-0.0454703857,1.1609837795,-2.143336
 784\O,0,-0.4762953971,-1.591328797,-0.7217656993\H,0,-0.9121106081,-1.
 8329453973,-1.549210625\H,0,-0.6017880608,-2.3269316921,-0.108635082\H
 ,0,3.3066626693,0.585505131,-0.1072207276\O,0,0.2465741023,2.918882207
 6,0.5816774503\C,0,-2.0876171293,2.4624915551,0.9003637987\C,0,-0.8665
 644837,3.447448177,0.9669848881\O,0,-1.7765074855,1.2860605111,0.47602
 50421\O,0,-3.2057884137,2.8370103595,1.231150346\O,0,-1.0164537158,4.5
 987728744,1.3538125815\\Version=ES64L-G16RevC.01\State=1-A\HF=-1122.75
 92845\RMSD=8.195e-09\Dipole=0.9522209,-4.6704882,-2.365751\Quadrupole=
 -6.603793,2.6851596,3.9186334,13.5639613,12.2818804,-3.6463272\PG=C01 
 [X(C2H4O8Pa1)]\\@


 IF AT FIRST YOU DON'T SUCCEED, TRY LOOKING IN 
 THE WASTEBASKET FOR THE DIRECTIONS.
 Job cpu time:       0 days  0 hours 42 minutes  6.0 seconds.
 Elapsed time:       0 days  0 hours  5 minutes 56.6 seconds.
 File lengths (MBytes):  RWF=    100 Int=      0 D2E=      0 Chk=     14 Scr=      1
 Normal termination of Gaussian 16 at Mon Jun 26 12:50:10 2023.
