 Entering Gaussian System, Link 0=/home/pcmt/gaussian/g16.C.01/g16/g16
 AtFile(1): /home/shaaban/basis.gaussian/Pa-def-TZVP
 AtFile(1): /home/shaaban/basis.gaussian/Pa-ECP60MWB
 Initial command:
 /home/pcmt/gaussian/g16.C.01/g16/l1.exe "/state/partition2/shaaban/971907.phlam-s-sakura/Gau-53215.inp" -scrdir="/state/partition2/shaaban/971907.phlam-s-sakura/"
 Entering Link 1 = /home/pcmt/gaussian/g16.C.01/g16/l1.exe PID=     53216.
  
 Copyright (c) 1988-2019, Gaussian, Inc.  All Rights Reserved.
  
 This is part of the Gaussian(R) 16 program.  It is based on
 the Gaussian(R) 09 system (copyright 2009, Gaussian, Inc.),
 the Gaussian(R) 03 system (copyright 2003, Gaussian, Inc.),
 the Gaussian(R) 98 system (copyright 1998, Gaussian, Inc.),
 the Gaussian(R) 94 system (copyright 1995, Gaussian, Inc.),
 the Gaussian 92(TM) system (copyright 1992, Gaussian, Inc.),
 the Gaussian 90(TM) system (copyright 1990, Gaussian, Inc.),
 the Gaussian 88(TM) system (copyright 1988, Gaussian, Inc.),
 the Gaussian 86(TM) system (copyright 1986, Carnegie Mellon
 University), and the Gaussian 82(TM) system (copyright 1983,
 Carnegie Mellon University). Gaussian is a federally registered
 trademark of Gaussian, Inc.
  
 This software contains proprietary and confidential information,
 including trade secrets, belonging to Gaussian, Inc.
  
 This software is provided under written license and may be
 used, copied, transmitted, or stored only in accord with that
 written license.
  
 The following legend is applicable only to US Government
 contracts under FAR:
  
                    RESTRICTED RIGHTS LEGEND
  
 Use, reproduction and disclosure by the US Government is
 subject to restrictions as set forth in subparagraphs (a)
 and (c) of the Commercial Computer Software - Restricted
 Rights clause in FAR 52.227-19.
  
 Gaussian, Inc.
 340 Quinnipiac St., Bldg. 40, Wallingford CT 06492
  
  
 ---------------------------------------------------------------
 Warning -- This program may not be used in any manner that
 competes with the business of Gaussian, Inc. or will provide
 assistance to any competitor of Gaussian, Inc.  The licensee
 of this program is prohibited from giving any competitor of
 Gaussian, Inc. access to this program.  By using this program,
 the user acknowledges that Gaussian, Inc. is engaged in the
 business of creating and licensing software in the field of
 computational chemistry and represents and warrants to the
 licensee that it is not a competitor of Gaussian, Inc. and that
 it will not use this program in any manner prohibited above.
 ---------------------------------------------------------------
  

 Cite this work as:
 Gaussian 16, Revision C.01,
 M. J. Frisch, G. W. Trucks, H. B. Schlegel, G. E. Scuseria, 
 M. A. Robb, J. R. Cheeseman, G. Scalmani, V. Barone, 
 G. A. Petersson, H. Nakatsuji, X. Li, M. Caricato, A. V. Marenich, 
 J. Bloino, B. G. Janesko, R. Gomperts, B. Mennucci, H. P. Hratchian, 
 J. V. Ortiz, A. F. Izmaylov, J. L. Sonnenberg, D. Williams-Young, 
 F. Ding, F. Lipparini, F. Egidi, J. Goings, B. Peng, A. Petrone, 
 T. Henderson, D. Ranasinghe, V. G. Zakrzewski, J. Gao, N. Rega, 
 G. Zheng, W. Liang, M. Hada, M. Ehara, K. Toyota, R. Fukuda, 
 J. Hasegawa, M. Ishida, T. Nakajima, Y. Honda, O. Kitao, H. Nakai, 
 T. Vreven, K. Throssell, J. A. Montgomery, Jr., J. E. Peralta, 
 F. Ogliaro, M. J. Bearpark, J. J. Heyd, E. N. Brothers, K. N. Kudin, 
 V. N. Staroverov, T. A. Keith, R. Kobayashi, J. Normand, 
 K. Raghavachari, A. P. Rendell, J. C. Burant, S. S. Iyengar, 
 J. Tomasi, M. Cossi, J. M. Millam, M. Klene, C. Adamo, R. Cammi, 
 J. W. Ochterski, R. L. Martin, K. Morokuma, O. Farkas, 
 J. B. Foresman, and D. J. Fox, Gaussian, Inc., Wallingford CT, 2019.
 
 ******************************************
 Gaussian 16:  ES64L-G16RevC.01  3-Jul-2019
                26-Jun-2023 
 ******************************************
 %mem=16Gb
 %NProc=8
 Will use up to    8 processors via shared memory.
 %chk=pao_oh2_c2o4_h2o-bp86-cosmors-deftzvp-klamt.chk
 ----------------------------------------------------------------------
 #p BP86/GEN Pseudo=Read GFInput GFPrint IOP(6/7=3) Symm=(Loose) Int=(U
 ltraFine) Guess=(Harris) SCRF=(COSMORS) Scf=(NoVarAcc,MaxCycle=100,con
 ver=8)
 ----------------------------------------------------------------------
 1/38=1,172=1/1;
 2/12=2,17=4,18=3,40=1/2;
 3/5=7,11=2,16=1,17=8,24=110,25=1,30=1,70=12101,74=404,75=-5/1,2,3;
 4/11=8/1;
 5/5=2,6=8,7=100,38=1/2;
 6/7=3,8=2,9=2,10=2,28=1/1;
 99/5=1,9=1/99;
 Leave Link    1 at Mon Jun 26 12:43:11 2023, MaxMem=  2147483648 cpu:               0.5 elap:               0.1
 (Enter /home/pcmt/gaussian/g16.C.01/g16/l101.exe)
 ----------------------------------------------------------------------
 pao_oh2_c2o4_h2o-bp86-cosmors-deftzvp-klamt.com SGP in PCM calculation
 ----------------------------------------------------------------------
 Symbolic Z-matrix:
 Charge = -1 Multiplicity = 1
 Pa                    0.45229   0.67866  -0.12307 
 O                     2.56759   0.80594  -0.68558 
 H                    -0.87414   1.46333  -2.53758 
 O                     0.78568  -0.03435   1.5855 
 O                    -0.04547   1.16098  -2.14334 
 O                    -0.4763   -1.59133  -0.72177 
 H                    -0.91211  -1.83295  -1.54921 
 H                    -0.60179  -2.32693  -0.10864 
 H                     3.30666   0.58551  -0.10722 
 O                     0.24657   2.91888   0.58168 
 C                    -2.08762   2.46249   0.90036 
 C                    -0.86656   3.44745   0.96698 
 O                    -1.77651   1.28606   0.47603 
 O                    -3.20579   2.83701   1.23115 
 O                    -1.01645   4.59877   1.35381 
 
 ITRead=  0  0  0  0  0  0  0  0  0  0  0  0  0  0  0
 MicOpt= -1 -1 -1 -1 -1 -1 -1 -1 -1 -1 -1 -1 -1 -1 -1
 NAtoms=     15 NQM=       15 NQMF=       0 NMMI=      0 NMMIF=      0
                NMic=       0 NMicF=      0.
                    Isotopes and Nuclear Properties:
 (Nuclear quadrupole moments (NQMom) in fm**2, nuclear magnetic moments (NMagM)
  in nuclear magnetons)

  Atom         1           2           3           4           5           6           7           8           9          10
 IAtWgt=         231          16           1          16          16          16           1           1           1          16
 AtmWgt= 231.0359000  15.9949146   1.0078250  15.9949146  15.9949146  15.9949146   1.0078250   1.0078250   1.0078250  15.9949146
 NucSpn=           3           0           1           0           0           0           1           1           1           0
 AtZEff=  -0.0000000  -0.0000000  -0.0000000  -0.0000000  -0.0000000  -0.0000000  -0.0000000  -0.0000000  -0.0000000  -0.0000000
 NQMom= -172.0000000   0.0000000   0.0000000   0.0000000   0.0000000   0.0000000   0.0000000   0.0000000   0.0000000   0.0000000
 NMagM=    2.0100000   0.0000000   2.7928460   0.0000000   0.0000000   0.0000000   2.7928460   2.7928460   2.7928460   0.0000000
 AtZNuc=  91.0000000   8.0000000   1.0000000   8.0000000   8.0000000   8.0000000   1.0000000   1.0000000   1.0000000   8.0000000

  Atom        11          12          13          14          15
 IAtWgt=          12          12          16          16          16
 AtmWgt=  12.0000000  12.0000000  15.9949146  15.9949146  15.9949146
 NucSpn=           0           0           0           0           0
 AtZEff=  -0.0000000  -0.0000000  -0.0000000  -0.0000000  -0.0000000
 NQMom=    0.0000000   0.0000000   0.0000000   0.0000000   0.0000000
 NMagM=    0.0000000   0.0000000   0.0000000   0.0000000   0.0000000
 AtZNuc=   6.0000000   6.0000000   8.0000000   8.0000000   8.0000000
 Leave Link  101 at Mon Jun 26 12:43:11 2023, MaxMem=  2147483648 cpu:               0.7 elap:               0.1
 (Enter /home/pcmt/gaussian/g16.C.01/g16/l202.exe)
                          Input orientation:                          
 ---------------------------------------------------------------------
 Center     Atomic      Atomic             Coordinates (Angstroms)
 Number     Number       Type             X           Y           Z
 ---------------------------------------------------------------------
      1         91           0        0.452294    0.678657   -0.123068
      2          8           0        2.567591    0.805943   -0.685580
      3          1           0       -0.874139    1.463326   -2.537582
      4          8           0        0.785684   -0.034351    1.585504
      5          8           0       -0.045470    1.160984   -2.143337
      6          8           0       -0.476295   -1.591329   -0.721766
      7          1           0       -0.912111   -1.832945   -1.549211
      8          1           0       -0.601788   -2.326932   -0.108635
      9          1           0        3.306663    0.585505   -0.107221
     10          8           0        0.246574    2.918882    0.581677
     11          6           0       -2.087617    2.462492    0.900364
     12          6           0       -0.866564    3.447448    0.966985
     13          8           0       -1.776507    1.286061    0.476025
     14          8           0       -3.205788    2.837010    1.231150
     15          8           0       -1.016454    4.598773    1.353813
 ---------------------------------------------------------------------
                    Distance matrix (angstroms):
                    1          2          3          4          5
     1  Pa   0.000000
     2  O    2.192510   0.000000
     3  H    2.864439   3.963277   0.000000
     4  O    1.881155   3.006511   4.690190   0.000000
     5  O    2.135860   3.013171   0.966194   4.002986   0.000000
     6  O    2.524590   3.874721   3.575805   3.056185   3.127571
     7  H    3.194312   4.451731   3.441471   3.992980   3.172958
     8  H    3.185100   4.493632   4.509990   3.170349   4.076157
     9  H    2.855932   0.964012   4.914908   3.099173   3.964056
    10  O    2.357455   3.384904   3.620003   3.165421   3.255948
    11  C    3.268123   5.189444   3.780256   3.867751   3.889524
    12  C    3.254813   4.637019   4.027255   3.903257   3.946671
    13  O    2.386506   4.522282   3.150797   3.088568   3.142163
    14  O    4.458023   6.413345   4.639714   4.929719   4.917707
    15  O    4.439111   5.602683   4.999423   4.976667   4.999126
                    6          7          8          9         10
     6  O    0.000000
     7  H    0.965908   0.000000
     8  H    0.965810   1.554214   0.000000
     9  H    4.407612   5.072109   4.874246   0.000000
    10  O    4.750106   5.335082   5.358620   3.909395   0.000000
    11  C    4.654151   5.082618   5.115109   5.799703   2.399646
    12  C    5.328552   5.849433   5.879671   5.173051   1.291093
    13  O    3.377073   3.817978   3.843892   5.164259   2.601947
    14  O    5.556456   5.899140   5.936509   7.019440   3.513876
    15  O    6.551119   7.057296   7.090563   6.077028   2.239077
                   11         12         13         14         15
    11  C    0.000000
    12  C    1.570206   0.000000
    13  O    1.288737   2.395962   0.000000
    14  O    1.224741   2.431951   2.240202   0.000000
    15  O    2.432428   1.223786   3.510307   2.812835   0.000000
 Stoichiometry    C2H4O8Pa(1-)
 Framework group  C1[X(C2H4O8Pa)]
 Deg. of freedom    39
 Full point group                 C1      NOp   1
 Largest Abelian subgroup         C1      NOp   1
 Largest concise Abelian subgroup C1      NOp   1
                         Standard orientation:                         
 ---------------------------------------------------------------------
 Center     Atomic      Atomic             Coordinates (Angstroms)
 Number     Number       Type             X           Y           Z
 ---------------------------------------------------------------------
      1         91           0        0.642094   -0.091861   -0.041187
      2          8           0        1.946967   -1.836572    0.204559
      3          1           0        0.132142    0.681011    2.669464
      4          8           0        0.775528   -0.057644   -1.917292
      5          8           0        0.694342    0.162769    2.078796
      6          8           0        2.011904    2.028729   -0.057537
      7          1           0        2.228606    2.577732    0.707064
      8          1           0        2.277832    2.520153   -0.845303
      9          1           0        2.333583   -2.342840   -0.519002
     10          8           0       -1.388792   -1.286314    0.038720
     11          6           0       -2.489034    0.844409   -0.049556
     12          6           0       -2.550402   -0.723304    0.014159
     13          8           0       -1.288063    1.311343   -0.071561
     14          8           0       -3.519840    1.505445   -0.071025
     15          8           0       -3.627805   -1.303168    0.038863
 ---------------------------------------------------------------------
 Rotational constants (GHZ):           1.2291779           0.5010817           0.4417619
 Leave Link  202 at Mon Jun 26 12:43:11 2023, MaxMem=  2147483648 cpu:               0.1 elap:               0.1
 (Enter /home/pcmt/gaussian/g16.C.01/g16/l301.exe)
 General basis read from cards:  (5D, 7F)
 Centers:       1
 S 3 1.00
     Exponent=  1.2047376000D+04 Coefficients=  3.4500000000D-04
     Exponent=  1.8116841000D+03 Coefficients=  2.7420000000D-03
     Exponent=  3.4770104000D+02 Coefficients=  1.0053000000D-02
 S 1 1.00
     Exponent=  9.8678010000D+01 Coefficients=  1.0000000000D+00
 S 3 1.00
     Exponent=  5.7507376000D+01 Coefficients=  5.1528000000D-02
     Exponent=  3.3502601000D+01 Coefficients= -2.3692400000D-01
     Exponent=  1.9554451000D+01 Coefficients=  7.1904800000D-01
 S 1 1.00
     Exponent=  9.7164210000D+00 Coefficients=  1.0000000000D+00
 S 1 1.00
     Exponent=  2.6920960000D+00 Coefficients=  1.0000000000D+00
 S 1 1.00
     Exponent=  1.4538470000D+00 Coefficients=  1.0000000000D+00
 S 1 1.00
     Exponent=  5.7435200000D-01 Coefficients=  1.0000000000D+00
 S 1 1.00
     Exponent=  2.6346800000D-01 Coefficients=  1.0000000000D+00
 S 1 1.00
     Exponent=  5.6557000000D-02 Coefficients=  1.0000000000D+00
 S 1 1.00
     Exponent=  2.3169000000D-02 Coefficients=  1.0000000000D+00
 P 5 1.00
     Exponent=  2.9033676000D+03 Coefficients=  3.5000000000D-05
     Exponent=  6.4486356000D+02 Coefficients=  2.0500000000D-04
     Exponent=  2.2025896000D+02 Coefficients=  1.2510000000D-03
     Exponent=  8.0276401000D+01 Coefficients=  2.4570000000D-03
     Exponent=  2.4080211000D+01 Coefficients=  1.1190000000D-02
 P 1 1.00
     Exponent=  1.4077580000D+01 Coefficients=  1.0000000000D+00
 P 1 1.00
     Exponent=  8.2658460000D+00 Coefficients=  1.0000000000D+00
 P 1 1.00
     Exponent=  3.5948000000D+00 Coefficients=  1.0000000000D+00
 P 1 1.00
     Exponent=  1.7531110000D+00 Coefficients=  1.0000000000D+00
 P 1 1.00
     Exponent=  6.5776700000D-01 Coefficients=  1.0000000000D+00
 P 1 1.00
     Exponent=  2.8463900000D-01 Coefficients=  1.0000000000D+00
 P 1 1.00
     Exponent=  1.0054300000D-01 Coefficients=  1.0000000000D+00
 P 1 1.00
     Exponent=  3.0190000000D-02 Coefficients=  1.0000000000D+00
 D 6 1.00
     Exponent=  4.4814991000D+02 Coefficients=  2.6000000000D-05
     Exponent=  1.5446145000D+02 Coefficients=  2.2800000000D-04
     Exponent=  6.0925377000D+01 Coefficients=  9.0400000000D-04
     Exponent=  1.7032091000D+01 Coefficients=  2.5647000000D-02
     Exponent=  1.0018877000D+01 Coefficients= -1.0575100000D-01
     Exponent=  3.4091930000D+00 Coefficients=  4.4743200000D-01
 D 1 1.00
     Exponent=  1.6702130000D+00 Coefficients=  1.0000000000D+00
 D 1 1.00
     Exponent=  7.4109500000D-01 Coefficients=  1.0000000000D+00
 D 1 1.00
     Exponent=  2.6139300000D-01 Coefficients=  1.0000000000D+00
 D 1 1.00
     Exponent=  8.2811000000D-02 Coefficients=  1.0000000000D+00
 F 5 1.00
     Exponent=  8.7991327000D+01 Coefficients=  2.2600000000D-04
     Exponent=  2.8340195000D+01 Coefficients=  2.3230000000D-03
     Exponent=  1.2440994000D+01 Coefficients=  4.5850000000D-03
     Exponent=  3.9572960000D+00 Coefficients=  1.5696100000D-01
     Exponent=  1.8759440000D+00 Coefficients=  3.4497700000D-01
 F 1 1.00
     Exponent=  8.2758900000D-01 Coefficients=  1.0000000000D+00
 F 1 1.00
     Exponent=  3.3274800000D-01 Coefficients=  1.0000000000D+00
 F 1 1.00
     Exponent=  1.1468500000D-01 Coefficients=  1.0000000000D+00
 G 1 1.00
     Exponent=  3.5000000000D-01 Coefficients=  1.0000000000D+00
 ****
 Centers:       2      4      5      6     10     13     14     15
 Def2TZVP
 ****
 Centers:       3      7      8      9
 Def2TZVP
 ****
 Centers:      11     12
 Def2TZVP
 ****
 ======================================================================================================
                                       Pseudopotential Parameters
 ======================================================================================================
  Center     Atomic      Valence      Angular      Power
  Number     Number     Electrons     Momentum     of R      Exponent        Coefficient   SO-Coeffient
 ======================================================================================================
    1         91           31
                                      H and up 
                                                     2        1.0000000        0.00000000    0.00000000
                                      S - H
                                                     2       15.2691737      475.47573283    0.00000000
                                      P - H
                                                     2        9.9577370      207.66485962    0.00000000
                                      D - H
                                                     2        8.9431413      156.67411988    0.00000000
                                      F - H
                                                     2        7.0104666       67.98223685    0.00000000
                                      G - H
                                                     2       12.2010560      -57.63059989    0.00000000
    2          8
                                   No pseudopotential on this center.
    3          1
                                   No pseudopotential on this center.
    4          8
                                   No pseudopotential on this center.
    5          8
                                   No pseudopotential on this center.
    6          8
                                   No pseudopotential on this center.
    7          1
                                   No pseudopotential on this center.
    8          1
                                   No pseudopotential on this center.
    9          1
                                   No pseudopotential on this center.
   10          8
                                   No pseudopotential on this center.
   11          6
                                   No pseudopotential on this center.
   12          6
                                   No pseudopotential on this center.
   13          8
                                   No pseudopotential on this center.
   14          8
                                   No pseudopotential on this center.
   15          8
                                   No pseudopotential on this center.
 ======================================================================================================
 Ernie: Thresh=  0.10000D-02 Tol=  0.10000D-05 Strict=F.
 AO basis set in the form of general basis input (Overlap normalization):
      1 0
 S   3 1.00       0.000000000000
      0.1204737600D+05  0.2857094961D-01
      0.1811684100D+04  0.2270769386D+00
      0.3477010400D+03  0.8325326273D+00
 S   3 1.00       0.000000000000
      0.5750737600D+02  0.9569327984D-01
      0.3350260100D+02 -0.4399944619D+00
      0.1955445100D+02  0.1335352847D+01
 S   1 1.00       0.000000000000
      0.9867801000D+02  0.1000000000D+01
 S   1 1.00       0.000000000000
      0.9716421000D+01  0.1000000000D+01
 S   1 1.00       0.000000000000
      0.2692096000D+01  0.1000000000D+01
 S   1 1.00       0.000000000000
      0.1453847000D+01  0.1000000000D+01
 S   1 1.00       0.000000000000
      0.5743520000D+00  0.1000000000D+01
 S   1 1.00       0.000000000000
      0.2634680000D+00  0.1000000000D+01
 S   1 1.00       0.000000000000
      0.5655700000D-01  0.1000000000D+01
 S   1 1.00       0.000000000000
      0.2316900000D-01  0.1000000000D+01
 P   5 1.00       0.000000000000
      0.2903367600D+04  0.2594222647D-02
      0.6448635600D+03  0.1519473264D-01
      0.2202589600D+03  0.9272492945D-01
      0.8027640100D+02  0.1821144298D+00
      0.2408021100D+02  0.8294100404D+00
 P   1 1.00       0.000000000000
      0.1407758000D+02  0.1000000000D+01
 P   1 1.00       0.000000000000
      0.8265846000D+01  0.1000000000D+01
 P   1 1.00       0.000000000000
      0.3594800000D+01  0.1000000000D+01
 P   1 1.00       0.000000000000
      0.1753111000D+01  0.1000000000D+01
 P   1 1.00       0.000000000000
      0.6577670000D+00  0.1000000000D+01
 P   1 1.00       0.000000000000
      0.2846390000D+00  0.1000000000D+01
 P   1 1.00       0.000000000000
      0.1005430000D+00  0.1000000000D+01
 P   1 1.00       0.000000000000
      0.3019000000D-01  0.1000000000D+01
 D   6 1.00       0.000000000000
      0.4481499100D+03  0.6556927566D-04
      0.1544614500D+03  0.5749921096D-03
      0.6092537700D+02  0.2279793277D-02
      0.1703209100D+02  0.6467904664D-01
      0.1001887700D+02 -0.2666929411D+00
      0.3409193000D+01  0.1128376621D+01
 D   1 1.00       0.000000000000
      0.1670213000D+01  0.1000000000D+01
 D   1 1.00       0.000000000000
      0.7410950000D+00  0.1000000000D+01
 D   1 1.00       0.000000000000
      0.2613930000D+00  0.1000000000D+01
 D   1 1.00       0.000000000000
      0.8281100000D-01  0.1000000000D+01
 F   5 1.00       0.000000000000
      0.8799132700D+02  0.4766318191D-03
      0.2834019500D+02  0.4899184583D-02
      0.1244099400D+02  0.9669720755D-02
      0.3957296000D+01  0.3310292343D+00
      0.1875944000D+01  0.7275531640D+00
 F   1 1.00       0.000000000000
      0.8275890000D+00  0.1000000000D+01
 F   1 1.00       0.000000000000
      0.3327480000D+00  0.1000000000D+01
 F   1 1.00       0.000000000000
      0.1146850000D+00  0.1000000000D+01
 G   1 1.00       0.000000000000
      0.3500000000D+00  0.1000000000D+01
 ****
      2 0
 S   6 1.00       0.000000000000
      0.2703238263D+05  0.5722733521D-03
      0.4052387139D+04  0.4435323349D-02
      0.9223272271D+03  0.2302010771D-01
      0.2612407099D+03  0.9282249067D-01
      0.8535464135D+02  0.2937850001D+00
      0.3103503524D+02  0.6740160450D+00
 S   2 1.00       0.000000000000
      0.1226086073D+02  0.6383993703D+00
      0.4998707601D+01  0.3953458713D+00
 S   1 1.00       0.000000000000
      0.1170310816D+01  0.1000000000D+01
 S   1 1.00       0.000000000000
      0.4647474099D+00  0.1000000000D+01
 S   1 1.00       0.000000000000
      0.1850453636D+00  0.1000000000D+01
 P   4 1.00       0.000000000000
      0.6327495480D+02  0.1201833222D-01
      0.1462704938D+02  0.8300542179D-01
      0.4450122346D+01  0.3199174393D+00
      0.1527579965D+01  0.7071554292D+00
 P   1 1.00       0.000000000000
      0.5293511794D+00  0.1000000000D+01
 P   1 1.00       0.000000000000
      0.1747842127D+00  0.1000000000D+01
 D   1 1.00       0.000000000000
      0.2314000000D+01  0.1000000000D+01
 D   1 1.00       0.000000000000
      0.6450000000D+00  0.1000000000D+01
 F   1 1.00       0.000000000000
      0.1428000000D+01  0.1000000000D+01
 ****
      3 0
 S   3 1.00       0.000000000000
      0.3406134100D+02  0.2543930721D-01
      0.5123574600D+01  0.1900859489D+00
      0.1164662600D+01  0.8524411301D+00
 S   1 1.00       0.000000000000
      0.3272304100D+00  0.1000000000D+01
 S   1 1.00       0.000000000000
      0.1030724100D+00  0.1000000000D+01
 P   1 1.00       0.000000000000
      0.8000000000D+00  0.1000000000D+01
 ****
      4 0
 S   6 1.00       0.000000000000
      0.2703238263D+05  0.5722733521D-03
      0.4052387139D+04  0.4435323349D-02
      0.9223272271D+03  0.2302010771D-01
      0.2612407099D+03  0.9282249067D-01
      0.8535464135D+02  0.2937850001D+00
      0.3103503524D+02  0.6740160450D+00
 S   2 1.00       0.000000000000
      0.1226086073D+02  0.6383993703D+00
      0.4998707601D+01  0.3953458713D+00
 S   1 1.00       0.000000000000
      0.1170310816D+01  0.1000000000D+01
 S   1 1.00       0.000000000000
      0.4647474099D+00  0.1000000000D+01
 S   1 1.00       0.000000000000
      0.1850453636D+00  0.1000000000D+01
 P   4 1.00       0.000000000000
      0.6327495480D+02  0.1201833222D-01
      0.1462704938D+02  0.8300542179D-01
      0.4450122346D+01  0.3199174393D+00
      0.1527579965D+01  0.7071554292D+00
 P   1 1.00       0.000000000000
      0.5293511794D+00  0.1000000000D+01
 P   1 1.00       0.000000000000
      0.1747842127D+00  0.1000000000D+01
 D   1 1.00       0.000000000000
      0.2314000000D+01  0.1000000000D+01
 D   1 1.00       0.000000000000
      0.6450000000D+00  0.1000000000D+01
 F   1 1.00       0.000000000000
      0.1428000000D+01  0.1000000000D+01
 ****
      5 0
 S   6 1.00       0.000000000000
      0.2703238263D+05  0.5722733521D-03
      0.4052387139D+04  0.4435323349D-02
      0.9223272271D+03  0.2302010771D-01
      0.2612407099D+03  0.9282249067D-01
      0.8535464135D+02  0.2937850001D+00
      0.3103503524D+02  0.6740160450D+00
 S   2 1.00       0.000000000000
      0.1226086073D+02  0.6383993703D+00
      0.4998707601D+01  0.3953458713D+00
 S   1 1.00       0.000000000000
      0.1170310816D+01  0.1000000000D+01
 S   1 1.00       0.000000000000
      0.4647474099D+00  0.1000000000D+01
 S   1 1.00       0.000000000000
      0.1850453636D+00  0.1000000000D+01
 P   4 1.00       0.000000000000
      0.6327495480D+02  0.1201833222D-01
      0.1462704938D+02  0.8300542179D-01
      0.4450122346D+01  0.3199174393D+00
      0.1527579965D+01  0.7071554292D+00
 P   1 1.00       0.000000000000
      0.5293511794D+00  0.1000000000D+01
 P   1 1.00       0.000000000000
      0.1747842127D+00  0.1000000000D+01
 D   1 1.00       0.000000000000
      0.2314000000D+01  0.1000000000D+01
 D   1 1.00       0.000000000000
      0.6450000000D+00  0.1000000000D+01
 F   1 1.00       0.000000000000
      0.1428000000D+01  0.1000000000D+01
 ****
      6 0
 S   6 1.00       0.000000000000
      0.2703238263D+05  0.5722733521D-03
      0.4052387139D+04  0.4435323349D-02
      0.9223272271D+03  0.2302010771D-01
      0.2612407099D+03  0.9282249067D-01
      0.8535464135D+02  0.2937850001D+00
      0.3103503524D+02  0.6740160450D+00
 S   2 1.00       0.000000000000
      0.1226086073D+02  0.6383993703D+00
      0.4998707601D+01  0.3953458713D+00
 S   1 1.00       0.000000000000
      0.1170310816D+01  0.1000000000D+01
 S   1 1.00       0.000000000000
      0.4647474099D+00  0.1000000000D+01
 S   1 1.00       0.000000000000
      0.1850453636D+00  0.1000000000D+01
 P   4 1.00       0.000000000000
      0.6327495480D+02  0.1201833222D-01
      0.1462704938D+02  0.8300542179D-01
      0.4450122346D+01  0.3199174393D+00
      0.1527579965D+01  0.7071554292D+00
 P   1 1.00       0.000000000000
      0.5293511794D+00  0.1000000000D+01
 P   1 1.00       0.000000000000
      0.1747842127D+00  0.1000000000D+01
 D   1 1.00       0.000000000000
      0.2314000000D+01  0.1000000000D+01
 D   1 1.00       0.000000000000
      0.6450000000D+00  0.1000000000D+01
 F   1 1.00       0.000000000000
      0.1428000000D+01  0.1000000000D+01
 ****
      7 0
 S   3 1.00       0.000000000000
      0.3406134100D+02  0.2543930721D-01
      0.5123574600D+01  0.1900859489D+00
      0.1164662600D+01  0.8524411301D+00
 S   1 1.00       0.000000000000
      0.3272304100D+00  0.1000000000D+01
 S   1 1.00       0.000000000000
      0.1030724100D+00  0.1000000000D+01
 P   1 1.00       0.000000000000
      0.8000000000D+00  0.1000000000D+01
 ****
      8 0
 S   3 1.00       0.000000000000
      0.3406134100D+02  0.2543930721D-01
      0.5123574600D+01  0.1900859489D+00
      0.1164662600D+01  0.8524411301D+00
 S   1 1.00       0.000000000000
      0.3272304100D+00  0.1000000000D+01
 S   1 1.00       0.000000000000
      0.1030724100D+00  0.1000000000D+01
 P   1 1.00       0.000000000000
      0.8000000000D+00  0.1000000000D+01
 ****
      9 0
 S   3 1.00       0.000000000000
      0.3406134100D+02  0.2543930721D-01
      0.5123574600D+01  0.1900859489D+00
      0.1164662600D+01  0.8524411301D+00
 S   1 1.00       0.000000000000
      0.3272304100D+00  0.1000000000D+01
 S   1 1.00       0.000000000000
      0.1030724100D+00  0.1000000000D+01
 P   1 1.00       0.000000000000
      0.8000000000D+00  0.1000000000D+01
 ****
     10 0
 S   6 1.00       0.000000000000
      0.2703238263D+05  0.5722733521D-03
      0.4052387139D+04  0.4435323349D-02
      0.9223272271D+03  0.2302010771D-01
      0.2612407099D+03  0.9282249067D-01
      0.8535464135D+02  0.2937850001D+00
      0.3103503524D+02  0.6740160450D+00
 S   2 1.00       0.000000000000
      0.1226086073D+02  0.6383993703D+00
      0.4998707601D+01  0.3953458713D+00
 S   1 1.00       0.000000000000
      0.1170310816D+01  0.1000000000D+01
 S   1 1.00       0.000000000000
      0.4647474099D+00  0.1000000000D+01
 S   1 1.00       0.000000000000
      0.1850453636D+00  0.1000000000D+01
 P   4 1.00       0.000000000000
      0.6327495480D+02  0.1201833222D-01
      0.1462704938D+02  0.8300542179D-01
      0.4450122346D+01  0.3199174393D+00
      0.1527579965D+01  0.7071554292D+00
 P   1 1.00       0.000000000000
      0.5293511794D+00  0.1000000000D+01
 P   1 1.00       0.000000000000
      0.1747842127D+00  0.1000000000D+01
 D   1 1.00       0.000000000000
      0.2314000000D+01  0.1000000000D+01
 D   1 1.00       0.000000000000
      0.6450000000D+00  0.1000000000D+01
 F   1 1.00       0.000000000000
      0.1428000000D+01  0.1000000000D+01
 ****
     11 0
 S   6 1.00       0.000000000000
      0.1357534968D+05  0.6064550360D-03
      0.2035233368D+04  0.4697908888D-02
      0.4632256236D+03  0.2433247765D-01
      0.1312001960D+03  0.9739996831D-01
      0.4285301589D+02  0.3019558425D+00
      0.1558418577D+02  0.6623360914D+00
 S   2 1.00       0.000000000000
      0.6206713851D+01  0.6559530854D+00
      0.2576489653D+01  0.3758563329D+00
 S   1 1.00       0.000000000000
      0.5769633942D+00  0.1000000000D+01
 S   1 1.00       0.000000000000
      0.2297283136D+00  0.1000000000D+01
 S   1 1.00       0.000000000000
      0.9516444003D-01  0.1000000000D+01
 P   4 1.00       0.000000000000
      0.3469723224D+02  0.1132722000D-01
      0.7958262283D+01  0.7616965920D-01
      0.2378082688D+01  0.3019225220D+00
      0.8143320818D+00  0.7278502735D+00
 P   1 1.00       0.000000000000
      0.2888754725D+00  0.1000000000D+01
 P   1 1.00       0.000000000000
      0.1005682367D+00  0.1000000000D+01
 D   1 1.00       0.000000000000
      0.1097000000D+01  0.1000000000D+01
 D   1 1.00       0.000000000000
      0.3180000000D+00  0.1000000000D+01
 F   1 1.00       0.000000000000
      0.7610000000D+00  0.1000000000D+01
 ****
     12 0
 S   6 1.00       0.000000000000
      0.1357534968D+05  0.6064550360D-03
      0.2035233368D+04  0.4697908888D-02
      0.4632256236D+03  0.2433247765D-01
      0.1312001960D+03  0.9739996831D-01
      0.4285301589D+02  0.3019558425D+00
      0.1558418577D+02  0.6623360914D+00
 S   2 1.00       0.000000000000
      0.6206713851D+01  0.6559530854D+00
      0.2576489653D+01  0.3758563329D+00
 S   1 1.00       0.000000000000
      0.5769633942D+00  0.1000000000D+01
 S   1 1.00       0.000000000000
      0.2297283136D+00  0.1000000000D+01
 S   1 1.00       0.000000000000
      0.9516444003D-01  0.1000000000D+01
 P   4 1.00       0.000000000000
      0.3469723224D+02  0.1132722000D-01
      0.7958262283D+01  0.7616965920D-01
      0.2378082688D+01  0.3019225220D+00
      0.8143320818D+00  0.7278502735D+00
 P   1 1.00       0.000000000000
      0.2888754725D+00  0.1000000000D+01
 P   1 1.00       0.000000000000
      0.1005682367D+00  0.1000000000D+01
 D   1 1.00       0.000000000000
      0.1097000000D+01  0.1000000000D+01
 D   1 1.00       0.000000000000
      0.3180000000D+00  0.1000000000D+01
 F   1 1.00       0.000000000000
      0.7610000000D+00  0.1000000000D+01
 ****
     13 0
 S   6 1.00       0.000000000000
      0.2703238263D+05  0.5722733521D-03
      0.4052387139D+04  0.4435323349D-02
      0.9223272271D+03  0.2302010771D-01
      0.2612407099D+03  0.9282249067D-01
      0.8535464135D+02  0.2937850001D+00
      0.3103503524D+02  0.6740160450D+00
 S   2 1.00       0.000000000000
      0.1226086073D+02  0.6383993703D+00
      0.4998707601D+01  0.3953458713D+00
 S   1 1.00       0.000000000000
      0.1170310816D+01  0.1000000000D+01
 S   1 1.00       0.000000000000
      0.4647474099D+00  0.1000000000D+01
 S   1 1.00       0.000000000000
      0.1850453636D+00  0.1000000000D+01
 P   4 1.00       0.000000000000
      0.6327495480D+02  0.1201833222D-01
      0.1462704938D+02  0.8300542179D-01
      0.4450122346D+01  0.3199174393D+00
      0.1527579965D+01  0.7071554292D+00
 P   1 1.00       0.000000000000
      0.5293511794D+00  0.1000000000D+01
 P   1 1.00       0.000000000000
      0.1747842127D+00  0.1000000000D+01
 D   1 1.00       0.000000000000
      0.2314000000D+01  0.1000000000D+01
 D   1 1.00       0.000000000000
      0.6450000000D+00  0.1000000000D+01
 F   1 1.00       0.000000000000
      0.1428000000D+01  0.1000000000D+01
 ****
     14 0
 S   6 1.00       0.000000000000
      0.2703238263D+05  0.5722733521D-03
      0.4052387139D+04  0.4435323349D-02
      0.9223272271D+03  0.2302010771D-01
      0.2612407099D+03  0.9282249067D-01
      0.8535464135D+02  0.2937850001D+00
      0.3103503524D+02  0.6740160450D+00
 S   2 1.00       0.000000000000
      0.1226086073D+02  0.6383993703D+00
      0.4998707601D+01  0.3953458713D+00
 S   1 1.00       0.000000000000
      0.1170310816D+01  0.1000000000D+01
 S   1 1.00       0.000000000000
      0.4647474099D+00  0.1000000000D+01
 S   1 1.00       0.000000000000
      0.1850453636D+00  0.1000000000D+01
 P   4 1.00       0.000000000000
      0.6327495480D+02  0.1201833222D-01
      0.1462704938D+02  0.8300542179D-01
      0.4450122346D+01  0.3199174393D+00
      0.1527579965D+01  0.7071554292D+00
 P   1 1.00       0.000000000000
      0.5293511794D+00  0.1000000000D+01
 P   1 1.00       0.000000000000
      0.1747842127D+00  0.1000000000D+01
 D   1 1.00       0.000000000000
      0.2314000000D+01  0.1000000000D+01
 D   1 1.00       0.000000000000
      0.6450000000D+00  0.1000000000D+01
 F   1 1.00       0.000000000000
      0.1428000000D+01  0.1000000000D+01
 ****
     15 0
 S   6 1.00       0.000000000000
      0.2703238263D+05  0.5722733521D-03
      0.4052387139D+04  0.4435323349D-02
      0.9223272271D+03  0.2302010771D-01
      0.2612407099D+03  0.9282249067D-01
      0.8535464135D+02  0.2937850001D+00
      0.3103503524D+02  0.6740160450D+00
 S   2 1.00       0.000000000000
      0.1226086073D+02  0.6383993703D+00
      0.4998707601D+01  0.3953458713D+00
 S   1 1.00       0.000000000000
      0.1170310816D+01  0.1000000000D+01
 S   1 1.00       0.000000000000
      0.4647474099D+00  0.1000000000D+01
 S   1 1.00       0.000000000000
      0.1850453636D+00  0.1000000000D+01
 P   4 1.00       0.000000000000
      0.6327495480D+02  0.1201833222D-01
      0.1462704938D+02  0.8300542179D-01
      0.4450122346D+01  0.3199174393D+00
      0.1527579965D+01  0.7071554292D+00
 P   1 1.00       0.000000000000
      0.5293511794D+00  0.1000000000D+01
 P   1 1.00       0.000000000000
      0.1747842127D+00  0.1000000000D+01
 D   1 1.00       0.000000000000
      0.2314000000D+01  0.1000000000D+01
 D   1 1.00       0.000000000000
      0.6450000000D+00  0.1000000000D+01
 F   1 1.00       0.000000000000
      0.1428000000D+01  0.1000000000D+01
 ****

 AO basis set (Overlap normalization):
 Atom Pa1      Shell     1 S   3     bf    1 -     1          1.213380863079         -0.173592992779         -0.077832186936
      0.1204737600D+05  0.2857094961D-01
      0.1811684100D+04  0.2270769386D+00
      0.3477010400D+03  0.8325326273D+00
 Atom Pa1      Shell     2 S   3     bf    2 -     2          1.213380863079         -0.173592992779         -0.077832186936
      0.5750737600D+02  0.9569327984D-01
      0.3350260100D+02 -0.4399944619D+00
      0.1955445100D+02  0.1335352847D+01
 Atom Pa1      Shell     3 S   1     bf    3 -     3          1.213380863079         -0.173592992779         -0.077832186936
      0.9867801000D+02  0.1000000000D+01
 Atom Pa1      Shell     4 S   1     bf    4 -     4          1.213380863079         -0.173592992779         -0.077832186936
      0.9716421000D+01  0.1000000000D+01
 Atom Pa1      Shell     5 S   1     bf    5 -     5          1.213380863079         -0.173592992779         -0.077832186936
      0.2692096000D+01  0.1000000000D+01
 Atom Pa1      Shell     6 S   1     bf    6 -     6          1.213380863079         -0.173592992779         -0.077832186936
      0.1453847000D+01  0.1000000000D+01
 Atom Pa1      Shell     7 S   1     bf    7 -     7          1.213380863079         -0.173592992779         -0.077832186936
      0.5743520000D+00  0.1000000000D+01
 Atom Pa1      Shell     8 S   1     bf    8 -     8          1.213380863079         -0.173592992779         -0.077832186936
      0.2634680000D+00  0.1000000000D+01
 Atom Pa1      Shell     9 S   1     bf    9 -     9          1.213380863079         -0.173592992779         -0.077832186936
      0.5655700000D-01  0.1000000000D+01
 Atom Pa1      Shell    10 S   1     bf   10 -    10          1.213380863079         -0.173592992779         -0.077832186936
      0.2316900000D-01  0.1000000000D+01
 Atom Pa1      Shell    11 P   5     bf   11 -    13          1.213380863079         -0.173592992779         -0.077832186936
      0.2903367600D+04  0.2594222647D-02
      0.6448635600D+03  0.1519473264D-01
      0.2202589600D+03  0.9272492945D-01
      0.8027640100D+02  0.1821144298D+00
      0.2408021100D+02  0.8294100404D+00
 Atom Pa1      Shell    12 P   1     bf   14 -    16          1.213380863079         -0.173592992779         -0.077832186936
      0.1407758000D+02  0.1000000000D+01
 Atom Pa1      Shell    13 P   1     bf   17 -    19          1.213380863079         -0.173592992779         -0.077832186936
      0.8265846000D+01  0.1000000000D+01
 Atom Pa1      Shell    14 P   1     bf   20 -    22          1.213380863079         -0.173592992779         -0.077832186936
      0.3594800000D+01  0.1000000000D+01
 Atom Pa1      Shell    15 P   1     bf   23 -    25          1.213380863079         -0.173592992779         -0.077832186936
      0.1753111000D+01  0.1000000000D+01
 Atom Pa1      Shell    16 P   1     bf   26 -    28          1.213380863079         -0.173592992779         -0.077832186936
      0.6577670000D+00  0.1000000000D+01
 Atom Pa1      Shell    17 P   1     bf   29 -    31          1.213380863079         -0.173592992779         -0.077832186936
      0.2846390000D+00  0.1000000000D+01
 Atom Pa1      Shell    18 P   1     bf   32 -    34          1.213380863079         -0.173592992779         -0.077832186936
      0.1005430000D+00  0.1000000000D+01
 Atom Pa1      Shell    19 P   1     bf   35 -    37          1.213380863079         -0.173592992779         -0.077832186936
      0.3019000000D-01  0.1000000000D+01
 Atom Pa1      Shell    20 D   6     bf   38 -    42          1.213380863079         -0.173592992779         -0.077832186936
      0.4481499100D+03  0.6556927566D-04
      0.1544614500D+03  0.5749921096D-03
      0.6092537700D+02  0.2279793277D-02
      0.1703209100D+02  0.6467904664D-01
      0.1001887700D+02 -0.2666929411D+00
      0.3409193000D+01  0.1128376621D+01
 Atom Pa1      Shell    21 D   1     bf   43 -    47          1.213380863079         -0.173592992779         -0.077832186936
      0.1670213000D+01  0.1000000000D+01
 Atom Pa1      Shell    22 D   1     bf   48 -    52          1.213380863079         -0.173592992779         -0.077832186936
      0.7410950000D+00  0.1000000000D+01
 Atom Pa1      Shell    23 D   1     bf   53 -    57          1.213380863079         -0.173592992779         -0.077832186936
      0.2613930000D+00  0.1000000000D+01
 Atom Pa1      Shell    24 D   1     bf   58 -    62          1.213380863079         -0.173592992779         -0.077832186936
      0.8281100000D-01  0.1000000000D+01
 Atom Pa1      Shell    25 F   5     bf   63 -    69          1.213380863079         -0.173592992779         -0.077832186936
      0.8799132700D+02  0.4766318191D-03
      0.2834019500D+02  0.4899184583D-02
      0.1244099400D+02  0.9669720755D-02
      0.3957296000D+01  0.3310292343D+00
      0.1875944000D+01  0.7275531640D+00
 Atom Pa1      Shell    26 F   1     bf   70 -    76          1.213380863079         -0.173592992779         -0.077832186936
      0.8275890000D+00  0.1000000000D+01
 Atom Pa1      Shell    27 F   1     bf   77 -    83          1.213380863079         -0.173592992779         -0.077832186936
      0.3327480000D+00  0.1000000000D+01
 Atom Pa1      Shell    28 F   1     bf   84 -    90          1.213380863079         -0.173592992779         -0.077832186936
      0.1146850000D+00  0.1000000000D+01
 Atom Pa1      Shell    29 G   1     bf   91 -    99          1.213380863079         -0.173592992779         -0.077832186936
      0.3500000000D+00  0.1000000000D+01
 Atom O2       Shell    30 S   6     bf  100 -   100          3.679234653567         -3.470617940937          0.386560817452
      0.2703238263D+05  0.5722733521D-03
      0.4052387139D+04  0.4435323349D-02
      0.9223272271D+03  0.2302010771D-01
      0.2612407099D+03  0.9282249067D-01
      0.8535464135D+02  0.2937850001D+00
      0.3103503524D+02  0.6740160450D+00
 Atom O2       Shell    31 S   2     bf  101 -   101          3.679234653567         -3.470617940937          0.386560817452
      0.1226086073D+02  0.6383993703D+00
      0.4998707601D+01  0.3953458713D+00
 Atom O2       Shell    32 S   1     bf  102 -   102          3.679234653567         -3.470617940937          0.386560817452
      0.1170310816D+01  0.1000000000D+01
 Atom O2       Shell    33 S   1     bf  103 -   103          3.679234653567         -3.470617940937          0.386560817452
      0.4647474099D+00  0.1000000000D+01
 Atom O2       Shell    34 S   1     bf  104 -   104          3.679234653567         -3.470617940937          0.386560817452
      0.1850453636D+00  0.1000000000D+01
 Atom O2       Shell    35 P   4     bf  105 -   107          3.679234653567         -3.470617940937          0.386560817452
      0.6327495480D+02  0.1201833222D-01
      0.1462704938D+02  0.8300542179D-01
      0.4450122346D+01  0.3199174393D+00
      0.1527579965D+01  0.7071554292D+00
 Atom O2       Shell    36 P   1     bf  108 -   110          3.679234653567         -3.470617940937          0.386560817452
      0.5293511794D+00  0.1000000000D+01
 Atom O2       Shell    37 P   1     bf  111 -   113          3.679234653567         -3.470617940937          0.386560817452
      0.1747842127D+00  0.1000000000D+01
 Atom O2       Shell    38 D   1     bf  114 -   118          3.679234653567         -3.470617940937          0.386560817452
      0.2314000000D+01  0.1000000000D+01
 Atom O2       Shell    39 D   1     bf  119 -   123          3.679234653567         -3.470617940937          0.386560817452
      0.6450000000D+00  0.1000000000D+01
 Atom O2       Shell    40 F   1     bf  124 -   130          3.679234653567         -3.470617940937          0.386560817452
      0.1428000000D+01  0.1000000000D+01
 Atom H3       Shell    41 S   3     bf  131 -   131          0.249712926550          1.286923764521          5.044555427590
      0.3406134100D+02  0.2543930721D-01
      0.5123574600D+01  0.1900859489D+00
      0.1164662600D+01  0.8524411301D+00
 Atom H3       Shell    42 S   1     bf  132 -   132          0.249712926550          1.286923764521          5.044555427590
      0.3272304100D+00  0.1000000000D+01
 Atom H3       Shell    43 S   1     bf  133 -   133          0.249712926550          1.286923764521          5.044555427590
      0.1030724100D+00  0.1000000000D+01
 Atom H3       Shell    44 P   1     bf  134 -   136          0.249712926550          1.286923764521          5.044555427590
      0.8000000000D+00  0.1000000000D+01
 Atom O4       Shell    45 S   6     bf  137 -   137          1.465535631641         -0.108930990542         -3.623156798235
      0.2703238263D+05  0.5722733521D-03
      0.4052387139D+04  0.4435323349D-02
      0.9223272271D+03  0.2302010771D-01
      0.2612407099D+03  0.9282249067D-01
      0.8535464135D+02  0.2937850001D+00
      0.3103503524D+02  0.6740160450D+00
 Atom O4       Shell    46 S   2     bf  138 -   138          1.465535631641         -0.108930990542         -3.623156798235
      0.1226086073D+02  0.6383993703D+00
      0.4998707601D+01  0.3953458713D+00
 Atom O4       Shell    47 S   1     bf  139 -   139          1.465535631641         -0.108930990542         -3.623156798235
      0.1170310816D+01  0.1000000000D+01
 Atom O4       Shell    48 S   1     bf  140 -   140          1.465535631641         -0.108930990542         -3.623156798235
      0.4647474099D+00  0.1000000000D+01
 Atom O4       Shell    49 S   1     bf  141 -   141          1.465535631641         -0.108930990542         -3.623156798235
      0.1850453636D+00  0.1000000000D+01
 Atom O4       Shell    50 P   4     bf  142 -   144          1.465535631641         -0.108930990542         -3.623156798235
      0.6327495480D+02  0.1201833222D-01
      0.1462704938D+02  0.8300542179D-01
      0.4450122346D+01  0.3199174393D+00
      0.1527579965D+01  0.7071554292D+00
 Atom O4       Shell    51 P   1     bf  145 -   147          1.465535631641         -0.108930990542         -3.623156798235
      0.5293511794D+00  0.1000000000D+01
 Atom O4       Shell    52 P   1     bf  148 -   150          1.465535631641         -0.108930990542         -3.623156798235
      0.1747842127D+00  0.1000000000D+01
 Atom O4       Shell    53 D   1     bf  151 -   155          1.465535631641         -0.108930990542         -3.623156798235
      0.2314000000D+01  0.1000000000D+01
 Atom O4       Shell    54 D   1     bf  156 -   160          1.465535631641         -0.108930990542         -3.623156798235
      0.6450000000D+00  0.1000000000D+01
 Atom O4       Shell    55 F   1     bf  161 -   167          1.465535631641         -0.108930990542         -3.623156798235
      0.1428000000D+01  0.1000000000D+01
 Atom O5       Shell    56 S   6     bf  168 -   168          1.312116499414          0.307588630911          3.928355739578
      0.2703238263D+05  0.5722733521D-03
      0.4052387139D+04  0.4435323349D-02
      0.9223272271D+03  0.2302010771D-01
      0.2612407099D+03  0.9282249067D-01
      0.8535464135D+02  0.2937850001D+00
      0.3103503524D+02  0.6740160450D+00
 Atom O5       Shell    57 S   2     bf  169 -   169          1.312116499414          0.307588630911          3.928355739578
      0.1226086073D+02  0.6383993703D+00
      0.4998707601D+01  0.3953458713D+00
 Atom O5       Shell    58 S   1     bf  170 -   170          1.312116499414          0.307588630911          3.928355739578
      0.1170310816D+01  0.1000000000D+01
 Atom O5       Shell    59 S   1     bf  171 -   171          1.312116499414          0.307588630911          3.928355739578
      0.4647474099D+00  0.1000000000D+01
 Atom O5       Shell    60 S   1     bf  172 -   172          1.312116499414          0.307588630911          3.928355739578
      0.1850453636D+00  0.1000000000D+01
 Atom O5       Shell    61 P   4     bf  173 -   175          1.312116499414          0.307588630911          3.928355739578
      0.6327495480D+02  0.1201833222D-01
      0.1462704938D+02  0.8300542179D-01
      0.4450122346D+01  0.3199174393D+00
      0.1527579965D+01  0.7071554292D+00
 Atom O5       Shell    62 P   1     bf  176 -   178          1.312116499414          0.307588630911          3.928355739578
      0.5293511794D+00  0.1000000000D+01
 Atom O5       Shell    63 P   1     bf  179 -   181          1.312116499414          0.307588630911          3.928355739578
      0.1747842127D+00  0.1000000000D+01
 Atom O5       Shell    64 D   1     bf  182 -   186          1.312116499414          0.307588630911          3.928355739578
      0.2314000000D+01  0.1000000000D+01
 Atom O5       Shell    65 D   1     bf  187 -   191          1.312116499414          0.307588630911          3.928355739578
      0.6450000000D+00  0.1000000000D+01
 Atom O5       Shell    66 F   1     bf  192 -   198          1.312116499414          0.307588630911          3.928355739578
      0.1428000000D+01  0.1000000000D+01
 Atom O6       Shell    67 S   6     bf  199 -   199          3.801948203105          3.833742606930         -0.108729553902
      0.2703238263D+05  0.5722733521D-03
      0.4052387139D+04  0.4435323349D-02
      0.9223272271D+03  0.2302010771D-01
      0.2612407099D+03  0.9282249067D-01
      0.8535464135D+02  0.2937850001D+00
      0.3103503524D+02  0.6740160450D+00
 Atom O6       Shell    68 S   2     bf  200 -   200          3.801948203105          3.833742606930         -0.108729553902
      0.1226086073D+02  0.6383993703D+00
      0.4998707601D+01  0.3953458713D+00
 Atom O6       Shell    69 S   1     bf  201 -   201          3.801948203105          3.833742606930         -0.108729553902
      0.1170310816D+01  0.1000000000D+01
 Atom O6       Shell    70 S   1     bf  202 -   202          3.801948203105          3.833742606930         -0.108729553902
      0.4647474099D+00  0.1000000000D+01
 Atom O6       Shell    71 S   1     bf  203 -   203          3.801948203105          3.833742606930         -0.108729553902
      0.1850453636D+00  0.1000000000D+01
 Atom O6       Shell    72 P   4     bf  204 -   206          3.801948203105          3.833742606930         -0.108729553902
      0.6327495480D+02  0.1201833222D-01
      0.1462704938D+02  0.8300542179D-01
      0.4450122346D+01  0.3199174393D+00
      0.1527579965D+01  0.7071554292D+00
 Atom O6       Shell    73 P   1     bf  207 -   209          3.801948203105          3.833742606930         -0.108729553902
      0.5293511794D+00  0.1000000000D+01
 Atom O6       Shell    74 P   1     bf  210 -   212          3.801948203105          3.833742606930         -0.108729553902
      0.1747842127D+00  0.1000000000D+01
 Atom O6       Shell    75 D   1     bf  213 -   217          3.801948203105          3.833742606930         -0.108729553902
      0.2314000000D+01  0.1000000000D+01
 Atom O6       Shell    76 D   1     bf  218 -   222          3.801948203105          3.833742606930         -0.108729553902
      0.6450000000D+00  0.1000000000D+01
 Atom O6       Shell    77 F   1     bf  223 -   229          3.801948203105          3.833742606930         -0.108729553902
      0.1428000000D+01  0.1000000000D+01
 Atom H7       Shell    78 S   3     bf  230 -   230          4.211455261695          4.871207618290          1.336157059747
      0.3406134100D+02  0.2543930721D-01
      0.5123574600D+01  0.1900859489D+00
      0.1164662600D+01  0.8524411301D+00
 Atom H7       Shell    79 S   1     bf  231 -   231          4.211455261695          4.871207618290          1.336157059747
      0.3272304100D+00  0.1000000000D+01
 Atom H7       Shell    80 S   1     bf  232 -   232          4.211455261695          4.871207618290          1.336157059747
      0.1030724100D+00  0.1000000000D+01
 Atom H7       Shell    81 P   1     bf  233 -   235          4.211455261695          4.871207618290          1.336157059747
      0.8000000000D+00  0.1000000000D+01
 Atom H8       Shell    82 S   3     bf  236 -   236          4.304479409272          4.762398386093         -1.597390518661
      0.3406134100D+02  0.2543930721D-01
      0.5123574600D+01  0.1900859489D+00
      0.1164662600D+01  0.8524411301D+00
 Atom H8       Shell    83 S   1     bf  237 -   237          4.304479409272          4.762398386093         -1.597390518661
      0.3272304100D+00  0.1000000000D+01
 Atom H8       Shell    84 S   1     bf  238 -   238          4.304479409272          4.762398386093         -1.597390518661
      0.1030724100D+00  0.1000000000D+01
 Atom H8       Shell    85 P   1     bf  239 -   241          4.304479409272          4.762398386093         -1.597390518661
      0.8000000000D+00  0.1000000000D+01
 Atom H9       Shell    86 S   3     bf  242 -   242          4.409832005122         -4.427325782962         -0.980771409574
      0.3406134100D+02  0.2543930721D-01
      0.5123574600D+01  0.1900859489D+00
      0.1164662600D+01  0.8524411301D+00
 Atom H9       Shell    87 S   1     bf  243 -   243          4.409832005122         -4.427325782962         -0.980771409574
      0.3272304100D+00  0.1000000000D+01
 Atom H9       Shell    88 S   1     bf  244 -   244          4.409832005122         -4.427325782962         -0.980771409574
      0.1030724100D+00  0.1000000000D+01
 Atom H9       Shell    89 P   1     bf  245 -   247          4.409832005122         -4.427325782962         -0.980771409574
      0.8000000000D+00  0.1000000000D+01
 Atom O10      Shell    90 S   6     bf  248 -   248         -2.624435891005         -2.430780420364          0.073169536416
      0.2703238263D+05  0.5722733521D-03
      0.4052387139D+04  0.4435323349D-02
      0.9223272271D+03  0.2302010771D-01
      0.2612407099D+03  0.9282249067D-01
      0.8535464135D+02  0.2937850001D+00
      0.3103503524D+02  0.6740160450D+00
 Atom O10      Shell    91 S   2     bf  249 -   249         -2.624435891005         -2.430780420364          0.073169536416
      0.1226086073D+02  0.6383993703D+00
      0.4998707601D+01  0.3953458713D+00
 Atom O10      Shell    92 S   1     bf  250 -   250         -2.624435891005         -2.430780420364          0.073169536416
      0.1170310816D+01  0.1000000000D+01
 Atom O10      Shell    93 S   1     bf  251 -   251         -2.624435891005         -2.430780420364          0.073169536416
      0.4647474099D+00  0.1000000000D+01
 Atom O10      Shell    94 S   1     bf  252 -   252         -2.624435891005         -2.430780420364          0.073169536416
      0.1850453636D+00  0.1000000000D+01
 Atom O10      Shell    95 P   4     bf  253 -   255         -2.624435891005         -2.430780420364          0.073169536416
      0.6327495480D+02  0.1201833222D-01
      0.1462704938D+02  0.8300542179D-01
      0.4450122346D+01  0.3199174393D+00
      0.1527579965D+01  0.7071554292D+00
 Atom O10      Shell    96 P   1     bf  256 -   258         -2.624435891005         -2.430780420364          0.073169536416
      0.5293511794D+00  0.1000000000D+01
 Atom O10      Shell    97 P   1     bf  259 -   261         -2.624435891005         -2.430780420364          0.073169536416
      0.1747842127D+00  0.1000000000D+01
 Atom O10      Shell    98 D   1     bf  262 -   266         -2.624435891005         -2.430780420364          0.073169536416
      0.2314000000D+01  0.1000000000D+01
 Atom O10      Shell    99 D   1     bf  267 -   271         -2.624435891005         -2.430780420364          0.073169536416
      0.6450000000D+00  0.1000000000D+01
 Atom O10      Shell   100 F   1     bf  272 -   278         -2.624435891005         -2.430780420364          0.073169536416
      0.1428000000D+01  0.1000000000D+01
 Atom C11      Shell   101 S   6     bf  279 -   279         -4.703591797407          1.595701021273         -0.093647974435
      0.1357534968D+05  0.6064550360D-03
      0.2035233368D+04  0.4697908888D-02
      0.4632256236D+03  0.2433247765D-01
      0.1312001960D+03  0.9739996831D-01
      0.4285301589D+02  0.3019558425D+00
      0.1558418577D+02  0.6623360914D+00
 Atom C11      Shell   102 S   2     bf  280 -   280         -4.703591797407          1.595701021273         -0.093647974435
      0.6206713851D+01  0.6559530854D+00
      0.2576489653D+01  0.3758563329D+00
 Atom C11      Shell   103 S   1     bf  281 -   281         -4.703591797407          1.595701021273         -0.093647974435
      0.5769633942D+00  0.1000000000D+01
 Atom C11      Shell   104 S   1     bf  282 -   282         -4.703591797407          1.595701021273         -0.093647974435
      0.2297283136D+00  0.1000000000D+01
 Atom C11      Shell   105 S   1     bf  283 -   283         -4.703591797407          1.595701021273         -0.093647974435
      0.9516444003D-01  0.1000000000D+01
 Atom C11      Shell   106 P   4     bf  284 -   286         -4.703591797407          1.595701021273         -0.093647974435
      0.3469723224D+02  0.1132722000D-01
      0.7958262283D+01  0.7616965920D-01
      0.2378082688D+01  0.3019225220D+00
      0.8143320818D+00  0.7278502735D+00
 Atom C11      Shell   107 P   1     bf  287 -   289         -4.703591797407          1.595701021273         -0.093647974435
      0.2888754725D+00  0.1000000000D+01
 Atom C11      Shell   108 P   1     bf  290 -   292         -4.703591797407          1.595701021273         -0.093647974435
      0.1005682367D+00  0.1000000000D+01
 Atom C11      Shell   109 D   1     bf  293 -   297         -4.703591797407          1.595701021273         -0.093647974435
      0.1097000000D+01  0.1000000000D+01
 Atom C11      Shell   110 D   1     bf  298 -   302         -4.703591797407          1.595701021273         -0.093647974435
      0.3180000000D+00  0.1000000000D+01
 Atom C11      Shell   111 F   1     bf  303 -   309         -4.703591797407          1.595701021273         -0.093647974435
      0.7610000000D+00  0.1000000000D+01
 Atom C12      Shell   112 S   6     bf  310 -   310         -4.819560739263         -1.366845848180          0.026756067175
      0.1357534968D+05  0.6064550360D-03
      0.2035233368D+04  0.4697908888D-02
      0.4632256236D+03  0.2433247765D-01
      0.1312001960D+03  0.9739996831D-01
      0.4285301589D+02  0.3019558425D+00
      0.1558418577D+02  0.6623360914D+00
 Atom C12      Shell   113 S   2     bf  311 -   311         -4.819560739263         -1.366845848180          0.026756067175
      0.6206713851D+01  0.6559530854D+00
      0.2576489653D+01  0.3758563329D+00
 Atom C12      Shell   114 S   1     bf  312 -   312         -4.819560739263         -1.366845848180          0.026756067175
      0.5769633942D+00  0.1000000000D+01
 Atom C12      Shell   115 S   1     bf  313 -   313         -4.819560739263         -1.366845848180          0.026756067175
      0.2297283136D+00  0.1000000000D+01
 Atom C12      Shell   116 S   1     bf  314 -   314         -4.819560739263         -1.366845848180          0.026756067175
      0.9516444003D-01  0.1000000000D+01
 Atom C12      Shell   117 P   4     bf  315 -   317         -4.819560739263         -1.366845848180          0.026756067175
      0.3469723224D+02  0.1132722000D-01
      0.7958262283D+01  0.7616965920D-01
      0.2378082688D+01  0.3019225220D+00
      0.8143320818D+00  0.7278502735D+00
 Atom C12      Shell   118 P   1     bf  318 -   320         -4.819560739263         -1.366845848180          0.026756067175
      0.2888754725D+00  0.1000000000D+01
 Atom C12      Shell   119 P   1     bf  321 -   323         -4.819560739263         -1.366845848180          0.026756067175
      0.1005682367D+00  0.1000000000D+01
 Atom C12      Shell   120 D   1     bf  324 -   328         -4.819560739263         -1.366845848180          0.026756067175
      0.1097000000D+01  0.1000000000D+01
 Atom C12      Shell   121 D   1     bf  329 -   333         -4.819560739263         -1.366845848180          0.026756067175
      0.3180000000D+00  0.1000000000D+01
 Atom C12      Shell   122 F   1     bf  334 -   340         -4.819560739263         -1.366845848180          0.026756067175
      0.7610000000D+00  0.1000000000D+01
 Atom O13      Shell   123 S   6     bf  341 -   341         -2.434086096611          2.478079215128         -0.135231134319
      0.2703238263D+05  0.5722733521D-03
      0.4052387139D+04  0.4435323349D-02
      0.9223272271D+03  0.2302010771D-01
      0.2612407099D+03  0.9282249067D-01
      0.8535464135D+02  0.2937850001D+00
      0.3103503524D+02  0.6740160450D+00
 Atom O13      Shell   124 S   2     bf  342 -   342         -2.434086096611          2.478079215128         -0.135231134319
      0.1226086073D+02  0.6383993703D+00
      0.4998707601D+01  0.3953458713D+00
 Atom O13      Shell   125 S   1     bf  343 -   343         -2.434086096611          2.478079215128         -0.135231134319
      0.1170310816D+01  0.1000000000D+01
 Atom O13      Shell   126 S   1     bf  344 -   344         -2.434086096611          2.478079215128         -0.135231134319
      0.4647474099D+00  0.1000000000D+01
 Atom O13      Shell   127 S   1     bf  345 -   345         -2.434086096611          2.478079215128         -0.135231134319
      0.1850453636D+00  0.1000000000D+01
 Atom O13      Shell   128 P   4     bf  346 -   348         -2.434086096611          2.478079215128         -0.135231134319
      0.6327495480D+02  0.1201833222D-01
      0.1462704938D+02  0.8300542179D-01
      0.4450122346D+01  0.3199174393D+00
      0.1527579965D+01  0.7071554292D+00
 Atom O13      Shell   129 P   1     bf  349 -   351         -2.434086096611          2.478079215128         -0.135231134319
      0.5293511794D+00  0.1000000000D+01
 Atom O13      Shell   130 P   1     bf  352 -   354         -2.434086096611          2.478079215128         -0.135231134319
      0.1747842127D+00  0.1000000000D+01
 Atom O13      Shell   131 D   1     bf  355 -   359         -2.434086096611          2.478079215128         -0.135231134319
      0.2314000000D+01  0.1000000000D+01
 Atom O13      Shell   132 D   1     bf  360 -   364         -2.434086096611          2.478079215128         -0.135231134319
      0.6450000000D+00  0.1000000000D+01
 Atom O13      Shell   133 F   1     bf  365 -   371         -2.434086096611          2.478079215128         -0.135231134319
      0.1428000000D+01  0.1000000000D+01
 Atom O14      Shell   134 S   6     bf  372 -   372         -6.651533080199          2.844878478579         -0.134217424622
      0.2703238263D+05  0.5722733521D-03
      0.4052387139D+04  0.4435323349D-02
      0.9223272271D+03  0.2302010771D-01
      0.2612407099D+03  0.9282249067D-01
      0.8535464135D+02  0.2937850001D+00
      0.3103503524D+02  0.6740160450D+00
 Atom O14      Shell   135 S   2     bf  373 -   373         -6.651533080199          2.844878478579         -0.134217424622
      0.1226086073D+02  0.6383993703D+00
      0.4998707601D+01  0.3953458713D+00
 Atom O14      Shell   136 S   1     bf  374 -   374         -6.651533080199          2.844878478579         -0.134217424622
      0.1170310816D+01  0.1000000000D+01
 Atom O14      Shell   137 S   1     bf  375 -   375         -6.651533080199          2.844878478579         -0.134217424622
      0.4647474099D+00  0.1000000000D+01
 Atom O14      Shell   138 S   1     bf  376 -   376         -6.651533080199          2.844878478579         -0.134217424622
      0.1850453636D+00  0.1000000000D+01
 Atom O14      Shell   139 P   4     bf  377 -   379         -6.651533080199          2.844878478579         -0.134217424622
      0.6327495480D+02  0.1201833222D-01
      0.1462704938D+02  0.8300542179D-01
      0.4450122346D+01  0.3199174393D+00
      0.1527579965D+01  0.7071554292D+00
 Atom O14      Shell   140 P   1     bf  380 -   382         -6.651533080199          2.844878478579         -0.134217424622
      0.5293511794D+00  0.1000000000D+01
 Atom O14      Shell   141 P   1     bf  383 -   385         -6.651533080199          2.844878478579         -0.134217424622
      0.1747842127D+00  0.1000000000D+01
 Atom O14      Shell   142 D   1     bf  386 -   390         -6.651533080199          2.844878478579         -0.134217424622
      0.2314000000D+01  0.1000000000D+01
 Atom O14      Shell   143 D   1     bf  391 -   395         -6.651533080199          2.844878478579         -0.134217424622
      0.6450000000D+00  0.1000000000D+01
 Atom O14      Shell   144 F   1     bf  396 -   402         -6.651533080199          2.844878478579         -0.134217424622
      0.1428000000D+01  0.1000000000D+01
 Atom O15      Shell   145 S   6     bf  403 -   403         -6.855557785266         -2.462631164902          0.073440054583
      0.2703238263D+05  0.5722733521D-03
      0.4052387139D+04  0.4435323349D-02
      0.9223272271D+03  0.2302010771D-01
      0.2612407099D+03  0.9282249067D-01
      0.8535464135D+02  0.2937850001D+00
      0.3103503524D+02  0.6740160450D+00
 Atom O15      Shell   146 S   2     bf  404 -   404         -6.855557785266         -2.462631164902          0.073440054583
      0.1226086073D+02  0.6383993703D+00
      0.4998707601D+01  0.3953458713D+00
 Atom O15      Shell   147 S   1     bf  405 -   405         -6.855557785266         -2.462631164902          0.073440054583
      0.1170310816D+01  0.1000000000D+01
 Atom O15      Shell   148 S   1     bf  406 -   406         -6.855557785266         -2.462631164902          0.073440054583
      0.4647474099D+00  0.1000000000D+01
 Atom O15      Shell   149 S   1     bf  407 -   407         -6.855557785266         -2.462631164902          0.073440054583
      0.1850453636D+00  0.1000000000D+01
 Atom O15      Shell   150 P   4     bf  408 -   410         -6.855557785266         -2.462631164902          0.073440054583
      0.6327495480D+02  0.1201833222D-01
      0.1462704938D+02  0.8300542179D-01
      0.4450122346D+01  0.3199174393D+00
      0.1527579965D+01  0.7071554292D+00
 Atom O15      Shell   151 P   1     bf  411 -   413         -6.855557785266         -2.462631164902          0.073440054583
      0.5293511794D+00  0.1000000000D+01
 Atom O15      Shell   152 P   1     bf  414 -   416         -6.855557785266         -2.462631164902          0.073440054583
      0.1747842127D+00  0.1000000000D+01
 Atom O15      Shell   153 D   1     bf  417 -   421         -6.855557785266         -2.462631164902          0.073440054583
      0.2314000000D+01  0.1000000000D+01
 Atom O15      Shell   154 D   1     bf  422 -   426         -6.855557785266         -2.462631164902          0.073440054583
      0.6450000000D+00  0.1000000000D+01
 Atom O15      Shell   155 F   1     bf  427 -   433         -6.855557785266         -2.462631164902          0.073440054583
      0.1428000000D+01  0.1000000000D+01
 Effective core potential in the form of general ECP input:
      1 0
 Pa1-ECP   5 60
 H component
  1
  2        1.0000000        0.00000000    0.00000000
 S-H projection
  1
  2       15.2691737      475.47573283    0.00000000
 P-H projection
  1
  2        9.9577370      207.66485962    0.00000000
 D-H projection
  1
  2        8.9431413      156.67411988    0.00000000
 F-H projection
  1
  2        7.0104666       67.98223685    0.00000000
 G-H projection
  1
  2       12.2010560      -57.63059989    0.00000000
 
 There are   506 symmetry adapted cartesian basis functions of A   symmetry.
 There are   433 symmetry adapted basis functions of A   symmetry.
   433 basis functions,   750 primitive gaussians,   506 cartesian basis functions
    56 alpha electrons       56 beta electrons
       nuclear repulsion energy       990.8670148111 Hartrees.
 IExCor=  404 DFT=T Ex=B Corr=P86 ExCW=0 ScaHFX=  0.000000
 ScaDFX=  1.000000  1.000000  1.000000  1.000000 ScalE2=  1.000000  1.000000
 IRadAn=      5 IRanWt=     -1 IRanGd=            0 ICorTp=0 IEmpDi=  4
 NAtoms=   15 NActive=   15 NUniq=   15 SFac= 1.00D+00 NAtFMM=   60 NAOKFM=F Big=F
 Integral buffers will be    131072 words long.
 Raffenetti 2 integral format.
 Two-electron integral symmetry is turned on.
 Warning! Using old PCM defaults because the COSMOthermo output has been requested.
 These settings can be overridden by following keywords.
 ------------------------------------------------------------------------------
 Polarizable Continuum Model (PCM)
 =================================
 Model                : C-PCM.
 Atomic radii         : Klamt.
 XCosmo               : -1.000 (infinite dielectric limit)
 Polarization charges : Electronic and nuclear charges.
 Charge compensation  : Type 3 (Electronic density weighted correction).
 Solution method      : On-the-fly selection.
 Cavity type          : VdW (van der Waals Surface) (Alpha=1.000).
 Cavity algorithm     : GePol (No added spheres)
                        Default sphere list used, NSphG=   15.
                        Tesserae with average area of 0.200 Ang**2.
                        Smoothing algorithm: None.
                        Polarization charges: point-like.
                        Self-potential: constant (ISelfS= 1).
                        Self-field    : global E.n sum rule (ISelfD= 3).
 Solvent              : Water, Eps=  78.355300 Eps(inf)=   1.777849
 ------------------------------------------------------------------------------
 Spheres list:
 ISph  on   Nord     Re0    Alpha      Xe            Ye            Ze
    1  Pa      1    2.0000  1.170      0.642094     -0.091861     -0.041187
    2   O      2    1.7200  1.000      1.946967     -1.836572      0.204559
    3   H      3    1.3000  1.000      0.132142      0.681011      2.669464
    4   O      4    1.7200  1.000      0.775528     -0.057644     -1.917292
    5   O      5    1.7200  1.000      0.694342      0.162769      2.078796
    6   O      6    1.7200  1.000      2.011904      2.028729     -0.057537
    7   H      7    1.3000  1.000      2.228606      2.577732      0.707064
    8   H      8    1.3000  1.000      2.277832      2.520153     -0.845303
    9   H      9    1.3000  1.000      2.333583     -2.342840     -0.519002
   10   O     10    1.7200  1.000     -1.388792     -1.286314      0.038720
   11   C     11    2.0000  1.000     -2.489034      0.844409     -0.049556
   12   C     12    2.0000  1.000     -2.550402     -0.723304      0.014159
   13   O     13    1.7200  1.000     -1.288063      1.311343     -0.071561
   14   O     14    1.7200  1.000     -3.519840      1.505445     -0.071025
   15   O     15    1.7200  1.000     -3.627805     -1.303168      0.038863
 ------------------------------------------------------------------------------
 GePol: Number of generator spheres                  =      15
 GePol: Total number of spheres                      =      15
 GePol: Number of exposed spheres                    =      15 (100.00%)
 GePol: Number of tesserae                           =    1368
 GePol: Average area of tesserae                     =       0.15 Ang**2
 GePol: Minimum area of tessera                      =   0.10D-02 Ang**2
 GePol: Maximum area of tessera                      =    0.35817 Ang**2
 GePol: Number of small tesserae                     =      10
 GePol: Fraction of small tesserae (<1% of avg)      =       0.73%
 GePol: Total count of vertices                      =    4565
 GePol: Maximum number of vertices in a tessera      =       6
 GePol: Cavity surface area                          =    206.950 Ang**2
 GePol: Cavity volume                                =    180.256 Ang**3
 DisRep: Neglecting contributions from atom    1 of solute.
 Leave Link  301 at Mon Jun 26 12:43:11 2023, MaxMem=  2147483648 cpu:               1.1 elap:               0.2
 (Enter /home/pcmt/gaussian/g16.C.01/g16/l302.exe)
 NPDir=0 NMtPBC=     1 NCelOv=     1 NCel=       1 NClECP=     1 NCelD=      1
         NCelK=      1 NCelE2=     1 NClLst=     1 CellRange=     0.0.
 One-electron integrals computed using PRISM.
 One-electron integral symmetry used in STVInt
   1 Symmetry operations used in ECPInt.
 ECPInt:  NShTT=   12090 NPrTT=   36858 LenC2=   11081 LenP2D=   24659.
 LDataN:  DoStor=T MaxTD1= 9 Len=  602
 NBasis=   433 RedAO= T EigKep=  4.77D-04  NBF=   433
 NBsUse=   433 1.00D-06 EigRej= -1.00D+00 NBFU=   433
 Precomputing XC quadrature grid using
 IXCGrd= 4 IRadAn=           5 IRanWt=          -1 IRanGd=           0 AccXCQ= 0.00D+00.
 Defaulting to unpruned grid for atomic number  91.
 Generated NRdTot=       0 NPtTot=           0 NUsed=           0 NTot=          32
 NSgBfM=   498   498   498   498   498 MxSgAt=    15 MxSgA2=    15.
 Leave Link  302 at Mon Jun 26 12:43:13 2023, MaxMem=  2147483648 cpu:               8.7 elap:               1.2
 (Enter /home/pcmt/gaussian/g16.C.01/g16/l303.exe)
 DipDrv:  MaxL=1.
 Leave Link  303 at Mon Jun 26 12:43:13 2023, MaxMem=  2147483648 cpu:               0.6 elap:               0.1
 (Enter /home/pcmt/gaussian/g16.C.01/g16/l401.exe)
 ExpMin= 2.32D-02 ExpMax= 2.70D+04 ExpMxC= 1.20D+04 IAcc=3 IRadAn=         5 AccDes= 0.00D+00
 Harris functional with IExCor=  404 and IRadAn=       5 diagonalized for initial guess.
 HarFok:  IExCor=  404 AccDes= 0.00D+00 IRadAn=         5 IDoV= 1 UseB2=F ITyADJ=14
 ICtDFT=  3500011 ScaDFX=  1.000000  1.000000  1.000000  1.000000
 Defaulting to unpruned grid for atomic number  91.
 FoFCou: FMM=F IPFlag=           0 FMFlag=      100000 FMFlg1=           0
         NFxFlg=           0 DoJE=T BraDBF=F KetDBF=T FulRan=T
         wScrn=  0.000000 ICntrl=       500 IOpCl=  0 I1Cent=   200000004 NGrid=           0
         NMat0=    1 NMatS0=      1 NMatT0=    0 NMatD0=    1 NMtDS0=    0 NMtDT0=    0
 Petite list used in FoFCou.
 Harris En= -1124.39610066183    
 JPrj=0 DoOrth=F DoCkMO=F.
 Leave Link  401 at Mon Jun 26 12:43:17 2023, MaxMem=  2147483648 cpu:              32.4 elap:               4.1
 (Enter /home/pcmt/gaussian/g16.C.01/g16/l502.exe)
 Integral symmetry usage will be decided dynamically.
 Closed shell SCF:
 Using DIIS extrapolation, IDIIS=  1040.
 NGot=  2147483648 LenX=  2146962898 LenY=  2146706356
 Requested convergence on RMS density matrix=1.00D-08 within 100 cycles.
 Requested convergence on MAX density matrix=1.00D-06.
 Requested convergence on             energy=1.00D-06.
 No special actions if energy rises.
 Fock matrices will be formed incrementally for  20 cycles.

 Cycle   1  Pass 1  IDiag  1:
 FoFJK:  IHMeth= 1 ICntrl=     500 DoSepK=F KAlg= 0 I1Cent=           0 FoldK=F
 IRaf= 870000000 NMat=       1 IRICut=       1 DoRegI=T DoRafI=F ISym2E= 0 IDoP0=0 IntGTp=1.
 FoFCou: FMM=F IPFlag=           0 FMFlag=      100000 FMFlg1=           0
         NFxFlg=           0 DoJE=T BraDBF=F KetDBF=F FulRan=T
         wScrn=  0.000000 ICntrl=       500 IOpCl=  0 I1Cent=           0 NGrid=           0
         NMat0=    1 NMatS0=      1 NMatT0=    0 NMatD0=    1 NMtDS0=    0 NMtDT0=    0
 Symmetry not used in FoFCou.
 Defaulting to unpruned grid for atomic number  91.
 Defaulting to unpruned grid for atomic number  91.
 Defaulting to unpruned grid for atomic number  91.
 Defaulting to unpruned grid for atomic number  91.
 Defaulting to unpruned grid for atomic number  91.
 Defaulting to unpruned grid for atomic number  91.
 Defaulting to unpruned grid for atomic number  91.
 Defaulting to unpruned grid for atomic number  91.
 Inv3:  Mode=1 IEnd=     5614272.
 Iteration    1 A*A^-1 deviation from unit magnitude is 4.11D-15 for    845.
 Iteration    1 A*A^-1 deviation from orthogonality  is 6.85D-15 for    811    433.
 Iteration    1 A^-1*A deviation from unit magnitude is 4.11D-15 for   1352.
 Iteration    1 A^-1*A deviation from orthogonality  is 4.48D-15 for    811    433.
 E= -1121.67263836243    
 DIIS: error= 3.82D-02 at cycle   1 NSaved=   1.
 NSaved= 1 IEnMin= 1 EnMin= -1121.67263836243     IErMin= 1 ErrMin= 3.82D-02
 ErrMax= 3.82D-02  0.00D+00 EMaxC= 1.00D-01 BMatC= 1.76D+00 BMatP= 1.76D+00
 IDIUse=3 WtCom= 6.18D-01 WtEn= 3.82D-01
 Coeff-Com:  0.100D+01
 Coeff-En:   0.100D+01
 Coeff:      0.100D+01
 Gap=     0.083 Goal=   None    Shift=    0.000
 GapD=    0.083 DampG=0.500 DampE=0.250 DampFc=0.1250 IDamp=-1.
 Damping current iteration by 1.25D-01
 RMSDP=9.32D-03 MaxDP=1.22D+00              OVMax= 9.97D-01

 Cycle   2  Pass 1  IDiag  1:
 RMSU=  1.15D-03    CP:  1.01D+00
 E= -1121.73771376563     Delta-E=       -0.065075403203 Rises=F Damp=T
 DIIS: error= 2.13D-02 at cycle   2 NSaved=   2.
 NSaved= 2 IEnMin= 2 EnMin= -1121.73771376563     IErMin= 2 ErrMin= 2.13D-02
 ErrMax= 2.13D-02  0.00D+00 EMaxC= 1.00D-01 BMatC= 2.98D-01 BMatP= 1.76D+00
 IDIUse=3 WtCom= 7.87D-01 WtEn= 2.13D-01
 Coeff-Com: -0.898D-01 0.109D+01
 Coeff-En:   0.472D+00 0.528D+00
 Coeff:      0.297D-01 0.970D+00
 Gap=    -0.061 Goal=   None    Shift=    0.000
 RMSDP=4.23D-03 MaxDP=1.80D-01 DE=-6.51D-02 OVMax= 9.50D-01

 Cycle   3  Pass 1  IDiag  1:
 RMSU=  4.21D-03    CP:  9.88D-01  1.08D+00
 E= -1120.22030197196     Delta-E=        1.517411793678 Rises=F Damp=F
 DIIS: error= 5.17D-02 at cycle   3 NSaved=   3.
 NSaved= 3 IEnMin= 2 EnMin= -1121.73771376563     IErMin= 2 ErrMin= 2.13D-02
 ErrMax= 5.17D-02  0.00D+00 EMaxC= 1.00D-01 BMatC= 2.37D+00 BMatP= 2.98D-01
 IDIUse=2 WtCom= 0.00D+00 WtEn= 1.00D+00
 EnCoef did     3 forward-backward iterations
 Coeff-En:   0.318D+00 0.477D+00 0.205D+00
 Coeff:      0.318D+00 0.477D+00 0.205D+00
 Gap=    -0.115 Goal=   None    Shift=    0.000
 RMSDP=5.97D-03 MaxDP=5.68D-01 DE= 1.52D+00 OVMax= 8.49D-01

 Cycle   4  Pass 1  IDiag  1:
 RMSU=  3.07D-03    CP:  1.05D+00  3.00D+00  9.11D-02
 E= -1100.81968116633     Delta-E=       19.400620805624 Rises=F Damp=F
 DIIS: error= 2.61D-01 at cycle   4 NSaved=   4.
 NSaved= 4 IEnMin= 2 EnMin= -1121.73771376563     IErMin= 2 ErrMin= 2.13D-02
 ErrMax= 2.61D-01  0.00D+00 EMaxC= 1.00D-01 BMatC= 4.18D+01 BMatP= 2.98D-01
 IDIUse=2 WtCom= 0.00D+00 WtEn= 1.00D+00
 EnCoef did   100 forward-backward iterations
 Coeff-En:   0.631D+00 0.197D-01 0.230D+00 0.119D+00
 Coeff:      0.631D+00 0.197D-01 0.230D+00 0.119D+00
 Gap=     0.012 Goal=   None    Shift=    0.000
 RMSDP=3.53D-03 MaxDP=2.81D-01 DE= 1.94D+01 OVMax= 9.04D-01

 Cycle   5  Pass 1  IDiag  1:
 RMSU=  1.97D-03    CP:  1.05D+00  2.28D+00  2.15D-01  2.34D-01
 E= -1122.25924542640     Delta-E=      -21.439564260072 Rises=F Damp=F
 DIIS: error= 3.20D-02 at cycle   5 NSaved=   5.
 NSaved= 5 IEnMin= 5 EnMin= -1122.25924542640     IErMin= 2 ErrMin= 2.13D-02
 ErrMax= 3.20D-02  0.00D+00 EMaxC= 1.00D-01 BMatC= 1.01D+00 BMatP= 2.98D-01
 IDIUse=2 WtCom= 0.00D+00 WtEn= 1.00D+00
 EnCoef did   100 forward-backward iterations
 Coeff-En:   0.386D+00 0.257D-02 0.371D-02 0.000D+00 0.608D+00
 Coeff:      0.386D+00 0.257D-02 0.371D-02 0.000D+00 0.608D+00
 Gap=     0.206 Goal=   None    Shift=    0.000
 RMSDP=1.63D-03 MaxDP=1.38D-01 DE=-2.14D+01 OVMax= 2.61D-01

 Cycle   6  Pass 1  IDiag  1:
 RMSU=  1.04D-03    CP:  1.04D+00  1.43D+00  1.87D-01  1.11D-01  6.68D-01
 E= -1122.68141839843     Delta-E=       -0.422172972023 Rises=F Damp=F
 DIIS: error= 1.61D-02 at cycle   6 NSaved=   6.
 NSaved= 6 IEnMin= 6 EnMin= -1122.68141839843     IErMin= 6 ErrMin= 1.61D-02
 ErrMax= 1.61D-02  0.00D+00 EMaxC= 1.00D-01 BMatC= 2.56D-01 BMatP= 2.98D-01
 IDIUse=3 WtCom= 8.39D-01 WtEn= 1.61D-01
 Coeff-Com:  0.464D-01 0.260D+00 0.165D-01-0.186D-01 0.330D+00 0.365D+00
 Coeff-En:   0.000D+00 0.000D+00 0.000D+00 0.000D+00 0.311D+00 0.689D+00
 Coeff:      0.390D-01 0.218D+00 0.139D-01-0.156D-01 0.327D+00 0.417D+00
 Gap=     0.165 Goal=   None    Shift=    0.000
 RMSDP=7.42D-04 MaxDP=3.88D-02 DE=-4.22D-01 OVMax= 8.50D-02

 Cycle   7  Pass 1  IDiag  1:
 RMSU=  4.41D-04    CP:  1.05D+00  1.52D+00  1.56D-01  1.33D-01  7.30D-01
                    CP:  4.66D-01
 E= -1122.82559850324     Delta-E=       -0.144180104812 Rises=F Damp=F
 DIIS: error= 9.17D-03 at cycle   7 NSaved=   7.
 NSaved= 7 IEnMin= 7 EnMin= -1122.82559850324     IErMin= 7 ErrMin= 9.17D-03
 ErrMax= 9.17D-03  0.00D+00 EMaxC= 1.00D-01 BMatC= 8.26D-02 BMatP= 2.56D-01
 IDIUse=3 WtCom= 9.08D-01 WtEn= 9.17D-02
 EnCoef did     3 forward-backward iterations
 Coeff-Com: -0.991D-01 0.217D+00 0.945D-02-0.372D-02 0.128D+00 0.273D+00
 Coeff-Com:  0.475D+00
 Coeff-En:   0.000D+00 0.000D+00 0.000D+00 0.000D+00 0.150D+00 0.123D+00
 Coeff-En:   0.727D+00
[...]
 123         V                 0.598541          1.734580
 124         V                 0.605105          1.602940
 125         V                 0.616160          1.819683
 126         V                 0.622043          1.507739
 127         V                 0.631705          2.176632
 128         V                 0.647033          2.102693
 129         V                 0.655019          3.217374
 130         V                 0.681652          1.751726
 131         V                 0.693715          1.657636
 132         V                 0.709171          1.715548
 133         V                 0.721773          1.674756
 134         V                 0.733372          1.714455
 135         V                 0.758679          2.023215
 136         V                 0.763643          1.757244
 137         V                 0.766801          1.536180
 138         V                 0.783771          1.832642
 139         V                 0.817656          1.846604
 140         V                 0.847636          1.824218
 141         V                 0.850933          1.979374
 142         V                 0.874965          1.948871
 143         V                 0.886837          2.060070
 144         V                 0.903401          1.949910
 145         V                 0.915646          2.179676
 146         V                 0.935405          2.122353
 147         V                 0.941199          2.445337
 148         V                 0.978832          2.043156
 149         V                 0.984842          2.062002
 150         V                 1.019241          2.553234
 151         V                 1.041995          2.967887
 152         V                 1.072583          2.729529
 153         V                 1.086187          2.698328
 154         V                 1.089330          2.748657
 155         V                 1.099178          2.497667
 156         V                 1.124313          2.483881
 157         V                 1.132420          2.681582
 158         V                 1.145036          2.717681
 159         V                 1.159038          2.631020
 160         V                 1.168682          2.896924
 161         V                 1.180454          2.703632
 162         V                 1.196289          2.966952
 163         V                 1.204977          3.020194
 164         V                 1.212242          2.875192
 165         V                 1.223530          2.769460
 166         V                 1.228060          2.652252
 167         V                 1.266857          2.953173
 168         V                 1.289424          2.886320
 169         V                 1.325900          2.833831
 170         V                 1.330226          2.639481
 171         V                 1.341147          2.648306
 172         V                 1.349806          3.384518
 173         V                 1.363845          2.629577
 174         V                 1.381203          2.818528
 175         V                 1.400306          3.530748
 176         V                 1.401320          3.377059
 177         V                 1.433513          3.206111
 178         V                 1.453912          2.869317
 179         V                 1.466961          3.012146
 180         V                 1.478495          2.815416
 181         V                 1.486645          2.719180
 182         V                 1.496407          2.853696
 183         V                 1.510020          2.927510
 184         V                 1.525659          3.144157
 185         V                 1.539424          2.838531
 186         V                 1.556788          3.058342
 187         V                 1.575894          3.091986
 188         V                 1.593043          3.209405
 189         V                 1.605045          3.161879
 190         V                 1.623535          2.909893
 191         V                 1.633282          3.180151
 192         V                 1.649170          3.111857
 193         V                 1.655713          3.170732
 194         V                 1.685718          3.170540
 195         V                 1.701577          3.396810
 196         V                 1.723840          2.841768
 197         V                 1.742490          3.035513
 198         V                 1.749388          3.521808
 199         V                 1.768876          3.236073
 200         V                 1.779693          3.235667
 201         V                 1.786326          3.387075
 202         V                 1.796304          3.090985
 203         V                 1.823045          3.558888
 204         V                 1.847911          3.272770
 205         V                 1.859634          2.940422
 206         V                 1.869933          3.456204
 207         V                 1.900705          3.515140
 208         V                 1.929846          3.448483
 209         V                 1.939003          3.434968
 210         V                 1.951175          3.445535
 211         V                 1.968465          3.542589
 212         V                 1.974265          3.516503
 213         V                 2.025451          3.234564
 214         V                 2.032353          3.156578
 215         V                 2.046322          3.600288
 216         V                 2.051750          3.576951
 217         V                 2.059912          3.924983
 218         V                 2.089312          3.673661
 219         V                 2.092496          3.722672
 220         V                 2.102889          3.803421
 221         V                 2.107546          3.679182
 222         V                 2.130308          3.838962
 223         V                 2.138300          3.419324
 224         V                 2.162567          4.092478
 225         V                 2.176030          4.076733
 226         V                 2.216540          4.126807
 227         V                 2.224495          4.319287
 228         V                 2.247001          4.176847
 229         V                 2.269409          4.503394
 230         V                 2.281395          4.199665
 231         V                 2.291280          4.485615
 232         V                 2.301401          4.675805
 233         V                 2.321650          4.870433
 234         V                 2.418643          4.879199
 235         V                 2.453904          4.244324
 236         V                 2.475657          4.736055
 237         V                 2.477641          4.477426
 238         V                 2.486766          4.739028
 239         V                 2.512185          4.463083
 240         V                 2.536003          6.410825
 241         V                 2.553622          5.468905
 242         V                 2.593341          4.999796
 243         V                 2.599131          5.396024
 244         V                 2.603360          5.319862
 245         V                 2.613494          6.400350
 246         V                 2.614237          6.286974
 247         V                 2.624620          6.449722
 248         V                 2.662557          5.885824
 249         V                 2.687344          5.275558
 250         V                 2.695068          6.596728
 251         V                 2.707950          5.943066
 252         V                 2.711494          5.574271
 253         V                 2.802137          4.959840
 254         V                 2.814797          6.221326
 255         V                 2.839451          6.587708
 256         V                 2.874896          6.790592
 257         V                 2.896665          6.889681
 258         V                 2.908838          5.676867
 259         V                 2.921360          5.806713
 260         V                 2.939776          5.859926
 261         V                 2.946904          5.298032
 262         V                 2.971772          6.931412
 263         V                 2.984215          6.380200
 264         V                 2.993443          5.956960
 265         V                 3.009757          4.626510
 266         V                 3.032490          6.485694
 267         V                 3.090530          6.841948
 268         V                 3.111185          4.650158
 269         V                 3.161411          6.909562
 270         V                 3.184440          6.682866
 271         V                 3.205020          6.860839
 272         V                 3.212517          6.618658
 273         V                 3.250066          7.807952
 274         V                 3.273306          4.872464
 275         V                 3.318561          6.508632
 276         V                 3.335707          6.550991
 277         V                 3.360094          5.597505
 278         V                 3.364039          5.301124
 279         V                 3.388024          7.365453
 280         V                 3.415331          6.029705
 281         V                 3.483665          4.876910
 282         V                 3.535112          6.979161
 283         V                 3.554997          6.409994
 284         V                 3.576833          6.687559
 285         V                 3.588093          4.990779
 286         V                 3.608835          6.819299
 287         V                 3.711668          6.940754
 288         V                 3.721830          5.023716
 289         V                 3.730831          7.154094
 290         V                 3.769313          9.096432
 291         V                 3.784382          8.018208
 292         V                 3.834055          6.224514
 293         V                 3.881030          8.201643
 294         V                 3.900971          8.971492
 295         V                 3.933773          8.125718
 296         V                 3.966948          9.301902
 297         V                 4.025181          7.815409
 298         V                 4.111457          8.059736
 299         V                 4.142951          8.087208
 300         V                 4.162197          7.776818
 301         V                 4.231026          8.266215
 302         V                 4.304009          9.152672
 303         V                 4.365379          7.024068
 304         V                 4.436087          7.325781
 305         V                 4.530826          6.553560
 306         V                 4.753372          8.184181
 307         V                 4.966900          6.527318
 308         V                 5.022006          6.487117
 309         V                 5.023510          6.452581
 310         V                 5.033692          6.451428
 311         V                 5.038937          6.505365
 312         V                 5.040135          6.524435
 313         V                 5.044337          6.549727
 314         V                 5.049371          6.517872
 315         V                 5.059980          6.516901
 316         V                 5.062217          6.480736
 317         V                 5.064038          6.496004
 318         V                 5.065772          6.582221
 319         V                 5.067604          6.515463
 320         V                 5.087080          6.585943
 321         V                 5.090461          6.648547
 322         V                 5.112213          6.737197
 323         V                 5.115047          6.615404
 324         V                 5.127621          6.667030
 325         V                 5.139469          6.682099
 326         V                 5.154326          6.796839
 327         V                 5.157776          6.755380
 328         V                 5.171644          6.760925
 329         V                 5.179871          6.855215
 330         V                 5.225161          6.872578
 331         V                 5.236855          6.908331
 332         V                 5.244779          6.905157
 333         V                 5.249109          6.844793
 334         V                 5.258362          6.964667
 335         V                 5.294721          7.412000
 336         V                 5.311773          6.989835
 337         V                 5.321274          6.917993
 338         V                 5.345221          7.071138
 339         V                 5.354804          7.203709
 340         V                 5.363962          7.107054
 341         V                 5.401179          7.047603
 342         V                 5.405762          7.086525
 343         V                 5.451882          7.088113
 344         V                 5.491914          7.312324
 345         V                 5.519046          7.295890
 346         V                 5.560927          7.389858
 347         V                 5.642990          7.864491
 348         V                 5.773039          7.795438
 349         V                 5.815817          7.891828
 350         V                 5.826543          8.350667
 351         V                 5.847810          8.530079
 352         V                 5.916889          8.184422
 353         V                 5.974434          8.282644
 354         V                 6.051557         10.391323
 355         V                 6.064831          9.355279
 356         V                 6.084582          8.869568
 357         V                 6.087421          8.891291
 358         V                 6.105386          9.134004
 359         V                 6.139872          9.249535
 360         V                 6.170397          9.271751
 361         V                 6.187389          9.277352
 362         V                 6.198374          9.353390
 363         V                 6.218657          9.255279
 364         V                 6.222950          9.343938
 365         V                 6.230130          9.268814
 366         V                 6.245511          9.342215
 367         V                 6.253249          9.344274
 368         V                 6.260660          9.278198
 369         V                 6.288289          9.440796
 370         V                 6.300211          9.441013
 371         V                 6.302453          9.453467
 372         V                 6.348544          9.393291
 373         V                 6.360447          9.472144
 374         V                 6.376080          9.425656
 375         V                 6.396874          9.505707
 376         V                 6.405043          9.471695
 377         V                 6.418916          9.553251
 378         V                 6.441828          9.514430
 379         V                 6.487017          9.928039
 380         V                 6.504142          9.774491
 381         V                 6.533064         10.056856
 382         V                 6.592742          9.617756
 383         V                 6.596109          9.681864
 384         V                 6.627093          9.558508
 385         V                 6.657370          9.382131
 386         V                 6.677149          9.430756
 387         V                 6.708340         10.218375
 388         V                 6.756699          9.538626
 389         V                 6.765232          9.549447
 390         V                 6.773584         10.035142
 391         V                 6.799895          9.906562
 392         V                 6.814845          9.875166
 393         V                 6.846820         10.671342
 394         V                 6.868538          9.892294
 395         V                 6.876472         10.102578
 396         V                 6.924123          9.726419
 397         V                 6.942937          9.964024
 398         V                 6.962143          9.995503
 399         V                 6.993444         10.372266
 400         V                 7.043651         10.343450
 401         V                 7.063665         10.464381
 402         V                 7.122356         10.486329
 403         V                 7.333948         12.467354
 404         V                 7.439682         10.364498
 405         V                 7.479848         13.659486
 406         V                 7.495882         12.832943
 407         V                 8.217570         15.805026
 408         V                 8.238156         15.820454
 409         V                 8.359904         15.831394
 410         V                 8.749182         16.020263
 411         V                 9.022108         16.240371
 412         V                23.035491         56.740742
 413         V                23.209141         56.897399
 414         V                29.362213         36.057057
 415         V                29.457392         36.146707
 416         V                29.491926         36.173427
 417         V                43.062503        108.483184
 418         V                43.247379        108.578742
 419         V                43.347498        108.691243
 420         V                43.407683        108.743095
 421         V                43.467542        108.854097
 422         V                43.534882        108.917443
 423         V                43.548689        108.882546
 424         V                43.748849        109.122566
 425         V                54.089509         39.959138
 426         V                70.252637         83.983842
 427         V                70.307170         84.081859
 428         V                70.334395         84.116171
 429         V               142.657666        242.471579
 430         V               142.760227        242.601038
 431         V               142.804761        242.656141
 432         V               202.601087        130.067573
 433         V               626.108951       1034.500070
 Total kinetic energy from orbitals= 8.421181371175D+02
 No NMR shielding tensors so no spin-rotation constants.
 Leave Link  601 at Mon Jun 26 12:48:39 2023, MaxMem=  2147483648 cpu:               4.9 elap:               0.7
 (Enter /home/pcmt/gaussian/g16.C.01/g16/l9999.exe)

 Test job not archived.
 1\1\GINC-U-0-13\SP\RBP86\Gen\C2H4O8Pa1(1-)\ROOT\26-Jun-2023\0\\#p BP86
 /GEN Pseudo=Read GFInput GFPrint IOP(6/7=3) Symm=(Loose) Int=(UltraFin
 e) Guess=(Harris) SCRF=(COSMORS) Scf=(NoVarAcc,MaxCycle=100,conver=8)\
 \pao_oh2_c2o4_h2o-bp86-cosmors-deftzvp-klamt.com SGP in PCM calculatio
 n\\-1,1\Pa,0,0.4522944352,0.6786570107,-0.1230677361\O,0,2.5675909077,
 0.8059427853,-0.6855801029\H,0,-0.8741386207,1.4633260845,-2.537581983
 8\O,0,0.7856841408,-0.0343505592,1.5855039102\O,0,-0.0454703857,1.1609
 837795,-2.143336784\O,0,-0.4762953971,-1.591328797,-0.7217656993\H,0,-
 0.9121106081,-1.8329453973,-1.549210625\H,0,-0.6017880608,-2.326931692
 1,-0.108635082\H,0,3.3066626693,0.585505131,-0.1072207276\O,0,0.246574
 1023,2.9188822076,0.5816774503\C,0,-2.0876171293,2.4624915551,0.900363
 7987\C,0,-0.8665644837,3.447448177,0.9669848881\O,0,-1.7765074855,1.28
 60605111,0.4760250421\O,0,-3.2057884137,2.8370103595,1.231150346\O,0,-
 1.0164537158,4.5987728744,1.3538125815\\Version=ES64L-G16RevC.01\State
 =1-A\HF=-1122.8918773\RMSD=9.702e-09\Dipole=1.1282591,-5.8760386,-3.15
 91845\Quadrupole=-7.2594386,3.0797552,4.1796835,15.4759428,14.4481178,
 -3.9019907\PG=C01 [X(C2H4O8Pa1)]\\@


 I DO NOT DEFINE TIME, SPACE, PLACE, AND MOTION, AS BEING WELL KNOWN TO ALL.
                                            -- NEWTON (1642-1726), PRINCIPIA
 Job cpu time:       0 days  0 hours 43 minutes  4.0 seconds.
 Elapsed time:       0 days  0 hours  5 minutes 27.9 seconds.
 File lengths (MBytes):  RWF=    116 Int=      0 D2E=      0 Chk=     13 Scr=      1
 Normal termination of Gaussian 16 at Mon Jun 26 12:48:39 2023.
