

 Parallel Execution: Process Information
 ==============================================================================
 Rank   Node Name                              NodeID   MyNodeRank  NodeMaster
    0   u-0-1.local                               0          0          0
    1   u-0-1.local                               0          1         -1
    2   u-0-1.local                               1          0          1
    3   u-0-1.local                               1          1         -1
    4   u-0-1.local                               2          0          2
    5   u-0-1.local                               2          1         -1
    6   u-0-1.local                               3          0          3
    7   u-0-1.local                               3          1         -1
 ==============================================================================


May use up to 31228MB of RAM as shared memory on node 0
May use up to 31250MB of RAM as shared memory on node 1
May use up to 31250MB of RAM as shared memory on node 2
May use up to 31250MB of RAM as shared memory on node 3

 *******************************************************************************
 *                                                                             *
 *  --------------------------------                                           *
 *   Amsterdam Modeling Suite (AMS)              2022.103                      *
 *  --------------------------------                                           *
 *                                               r104886 2022-06-17            *
 *                                                                             *
 *                                                                             *
 *                              =================                              *
 *                              |               |                              *
 *                              |     A M S     |                              *
 *                              |               |                              *
 *                              =================                              *
 *                                                                             *
 *                                                                             *
 *   Online information and documentation:  https://www.scm.com/support/       *
 *   E-mail:  support@scm.com   info@scm.com                                   *
 *                                                                             *
 *   Scientific publications using AMS results must be properly referenced     *
 *   See the User Manuals (or the web site) for recommended citations          *
 *   The terms and conditions of the End User License Agreement apply to       *
 *   the use of AMS, https://www.scm.com/license-terms/                        *
 *                                                                             *
 **********************  x86_64_linux_intel / intelmpi  ************************
 
 Licensed to: Dr. Val?rie Vallet / Laboratoire PhLAM UMR 8523 / Villeneuve d'Ascq Cedex / FRANCE 2023-02-21 11:49:39
 SCM User ID: u10325
  
 AMS 2022.103  RunTime: Feb23-2023 17:48:48  ShM Nodes: 4  Procs: 8

 AMS jobname: ams
 AMS jobid  : 377757758

 Start   directory: /home/shaaban/ams/PhD/chloride/pao_oh2_cl_h2o/gp/
 Results directory: /home/shaaban/ams/PhD/chloride/pao_oh2_cl_h2o/gp/pao_oh2_cl_h2o.SR.b3lyp.tz2p.opt-freq.results/
 Scratch directory: /state/partition2/shaaban/929448.phlam-s-sakura/amstmp_ams_kid0.377757758/


 Communication costs MPI_COMM_WORLD:      2.703 usec per message,   0.0088 usec per 8-byte item
 Communication costs for intra-node:      0.575 usec per message,   0.0024 usec per 8-byte item

 RNG seed: 591178529 -877717063 -491545016 468545334 -627892913 1863120252 303942775 486069131



                      ************************************************************************
                      *  ADF 2022.103  RunTime: Feb23-2023 17:48:49  ShM Nodes: 4  Procs: 8  *
                      ************************************************************************
  
       ***************************
       *  GEOMETRY OPTIMIZATION  *
       ***************************

Optimization Method                    Quasi Newton
Optimization Coordinates               Delocalized Coordinates
Optimize lattice                       F
 
 ------------------------------------------------------
 Convergence criteria (Hartree,Angstrom)
 ------------------------------------------------------
 Maximum gradient               0.000100000000
 Maximum rms gradient           0.000066666667
 Maximum step allowed           0.001000000000
 Maximum rms step allowed       0.000666666667
 Maximum energy change allowe   0.000010000000
 Maximum stress energy allowe   0.000500000000
 
Initial model Hessian                  Automatic Hessian
 
------------------------------------
Quasi-Newton Optimizer Parameters
------------------------------------
Hessian Update Method                  BFGS
Maximum number of steps                  250
First GDIIS cycle                          0
Maximum GDIIS vectors                      0
Trust radius (bohr)                        0.200000
Trust radius varies                        T
Constraints converged at all steps         T
Use projector                              T
 
 Rigid motions settings for: old optimizer
 Atomic rotations (x,y,z):     T T T
 Atomic translations (x,y,z):  T T T
 Tolerance:                   1.000000000000000E-006
 
--------
Geometry
--------
Formula: H4ClO4Pa
Atoms
  Index Symbol   x (angstrom)   y (angstrom)   z (angstrom)
      1     Pa     0.41625635     0.11062101     0.00453388
      2      O     1.10953981     1.38674047    -1.55214785
      3      H     1.04259017     2.25028412    -1.97581368
      4      O    -0.89543235     1.12286003     0.84749514
      5      H    -0.91296272    -2.38177016     0.68613582
      6      O    -0.14911669    -1.59415248    -1.23782329
      7      H    -0.05769586    -1.90715355    -2.14576573
      8      O    -0.71453397    -1.79860163     1.44273294
      9      H    -1.56727131    -1.49636857     1.79395880
     10     Cl     2.70296305    -0.46390189     1.14702935
 
Total System Charge             0.00000
Bonding info available!
 
 
----------------
ADF Engine Input
----------------
 
 Basis
 Type TZ2P
 Core None
 End
 XC
 Hybrid B3LYP
 End
 NumericalQuality Good
 

 Title: *** (NO TITLE) ***

 Using automatic Hessian for delocalized coordinates.
 *** GO1_GOStep1 ***



 ======================
 RI Hartree-Fock Scheme
 ======================
  
 Fit Set Quality     : GOOD
 Threshold Quality   : GOOD
 Integration Quality : GOOD
 Response Quality    : DEFAULT
 Is Range Separated  :  F
 
 RIHartreeFock Dependency: number of modified vectors:           5
  
 Hartree-Fock exchange energy:   -528.233820336692     

 Energy gradients wrt nuclear displacements
 ==========================================

     Atom      Cartesian (a.u./angstrom)
                 X         Y         Z
 ----------------------------------------
     1 Pa    0.013492 -0.007253  0.004443
     2 O     0.008759  0.003278 -0.009150
     3 H    -0.002211  0.007140 -0.001583
     4 O    -0.016263  0.011224  0.008942
     5 H    -0.002245 -0.002892 -0.007433
     6 O    -0.006178 -0.010493 -0.000158
     7 H     0.000742 -0.001691 -0.006470
     8 O     0.010637 -0.002040  0.009390
     9 H    -0.008108  0.003565  0.001311
    10 Cl    0.001374 -0.000838  0.000709
 ----------------------------------------
 Mulliken charges used for AMS results%charges...
 
----------------------------------------------------------------------
Geometry Convergence after Step   1       (Hartree/Angstrom,Angstrom)
----------------------------------------------------------------------
current energy                               -2.64002864 Hartree
energy change                      -2.64002864     0.00001000    F
constrained gradient max            0.01633311     0.00010000    F
constrained gradient rms            0.00708328     0.00006667    F
gradient max                        0.01633311
gradient rms                        0.00708328
cart. step max                      0.01941834     0.00100000    F
cart. step rms                      0.00757671     0.00066667    F
 
 
--------
Geometry
--------
Formula: H4ClO4Pa
Atoms
  Index Symbol   x (angstrom)   y (angstrom)   z (angstrom)
      1     Pa     0.41508478     0.11326440     0.00958888
      2      O     1.10033295     1.37574209    -1.55057161
      3      H     1.03907380     2.23086578    -1.98356526
      4      O    -0.88349738     1.12378375     0.85331804
      5      H    -0.91858471    -2.38586210     0.68791775
      6      O    -0.14234185    -1.58042922    -1.23816647
      7      H    -0.04901741    -1.89012374    -2.14334790
      8      O    -0.72234778    -1.79832542     1.43624883
      9      H    -1.56953943    -1.50268104     1.79400355
     10     Cl     2.70517349    -0.45767714     1.14490957
 
Total System Charge             0.00000
Bonding info available!
 
 *** GO1_GOStep2 ***



 ======================
 RI Hartree-Fock Scheme
 ======================
  
 Fit Set Quality     : GOOD
 Threshold Quality   : GOOD
 Integration Quality : GOOD
 Response Quality    : DEFAULT
 Is Range Separated  :  F
 
 RIHartreeFock Dependency: number of modified vectors:           5
  
 Hartree-Fock exchange energy:   -528.255712243170     

 Energy gradients wrt nuclear displacements
 ==========================================

     Atom      Cartesian (a.u./angstrom)
                 X         Y         Z
 ----------------------------------------
     1 Pa    0.004550  0.001038  0.005352
     2 O     0.006465  0.005082 -0.007860
     3 H    -0.001948  0.000878  0.001691
     4 O    -0.005415  0.002721  0.002105
     5 H    -0.000666  0.000714 -0.002328
     6 O    -0.004417 -0.008833 -0.003535
     7 H     0.000155  0.000532 -0.000282
     8 O     0.002392 -0.003179  0.006163
     9 H    -0.001132  0.001463 -0.001305
    10 Cl    0.000017 -0.000416  0.000000
 ----------------------------------------
 Mulliken charges used for AMS results%charges...

 dE(predicted):    -0.37812E-03, dE(actual):    -0.53502E-03, Trust radius:    0.200000, all in a.u.
 
----------------------------------------------------------------------
Geometry Convergence after Step   2       (Hartree/Angstrom,Angstrom)
----------------------------------------------------------------------
current energy                               -2.64056365 Hartree
energy change                      -0.00053502     0.00001000    F
constrained gradient max            0.00879593     0.00010000    F
constrained gradient rms            0.00367029     0.00006667    F
gradient max                        0.00879593
gradient rms                        0.00367029
cart. step max                      0.03556635     0.00100000    F
cart. step rms                      0.01609036     0.00066667    F
 
 
--------
Geometry
--------
Formula: H4ClO4Pa
Atoms
  Index Symbol   x (angstrom)   y (angstrom)   z (angstrom)
      1     Pa     0.41331472     0.11724232     0.02177649
      2      O     1.08051175     1.35429757    -1.54867168
      3      H     1.03414881     2.19529943    -2.00676317
      4      O    -0.86306229     1.13189559     0.87302649
      5      H    -0.93444874    -2.39804028     0.69140201
      6      O    -0.12484944    -1.55327692    -1.24229096
      7      H    -0.02605240    -1.85765993    -2.14704528
      8      O    -0.73897961    -1.79809621     1.42553096
      9      H    -1.57918772    -1.51673799     1.80316751
     10     Cl     2.71294139    -0.44636623     1.14020301
 
Total System Charge             0.00000
Bonding info available!
 
 *** GO1_GOStep3 ***



 ======================
 RI Hartree-Fock Scheme
 ======================
  
 Fit Set Quality     : GOOD
 Threshold Quality   : GOOD
 Integration Quality : GOOD
 Response Quality    : DEFAULT
 Is Range Separated  :  F
 
 RIHartreeFock Dependency: number of modified vectors:           6
  
 Hartree-Fock exchange energy:   -528.276735101978     

 Energy gradients wrt nuclear displacements
 ==========================================

     Atom      Cartesian (a.u./angstrom)
                 X         Y         Z
 ----------------------------------------
     1 Pa   -0.004300  0.009755  0.003798
     2 O     0.003225  0.000808 -0.002394
     3 H    -0.001988 -0.001699  0.003212
     4 O     0.006225 -0.006571 -0.005485
     5 H     0.001015  0.003037  0.001243
     6 O    -0.002077 -0.003342 -0.002369
     7 H    -0.000171  0.001439  0.002528
     8 O    -0.003385 -0.004216  0.002760
     9 H     0.003158  0.000624 -0.002344
    10 Cl   -0.001702  0.000165 -0.000949
 ----------------------------------------
 Mulliken charges used for AMS results%charges...

 dE(predicted):    -0.35726E-03, dE(actual):    -0.36272E-03, Trust radius:    0.200000, all in a.u.
 
----------------------------------------------------------------------
Geometry Convergence after Step   3       (Hartree/Angstrom,Angstrom)
----------------------------------------------------------------------
current energy                               -2.64092637 Hartree
energy change                      -0.00036272     0.00001000    F
constrained gradient max            0.00975834     0.00010000    F
constrained gradient rms            0.00352027     0.00006667    F
gradient max                        0.00975834
gradient rms                        0.00352027
cart. step max                      0.02638638     0.00100000    F
cart. step rms                      0.01402161     0.00066667    F
 
 
--------
Geometry
--------
Formula: H4ClO4Pa
Atoms
  Index Symbol   x (angstrom)   y (angstrom)   z (angstrom)
      1     Pa     0.41208194     0.12001514     0.03245550
      2      O     1.06286710     1.34053991    -1.54872205
      3      H     1.03230513     2.16891305    -2.03064958
      4      O    -0.84805549     1.14346310     0.89643823
      5      H    -0.95256241    -2.40911407     0.69348425
      6      O    -0.10766419    -1.53371377    -1.24680447
      7      H    -0.00364713    -1.83485717    -2.15218979
      8      O    -0.75373164    -1.79799802     1.41656842
      9      H    -1.58899619    -1.53081103     1.81451596
     10     Cl     2.72173936    -0.43787977     1.13523891
 
Total System Charge             0.00000
Bonding info available!
 
 *** GO1_GOStep4 ***



 ======================
 RI Hartree-Fock Scheme
 ======================
  
 Fit Set Quality     : GOOD
 Threshold Quality   : GOOD
 Integration Quality : GOOD
 Response Quality    : DEFAULT
 Is Range Separated  :  F
 
 RIHartreeFock Dependency: number of modified vectors:           6
  
 Hartree-Fock exchange energy:   -528.281987582391     

 Energy gradients wrt nuclear displacements
 ==========================================

     Atom      Cartesian (a.u./angstrom)
                 X         Y         Z
 ----------------------------------------
     1 Pa   -0.004379  0.009917  0.000379
     2 O     0.001612 -0.002764  0.000896
     3 H    -0.001992 -0.001348  0.002911
     4 O     0.007212 -0.007372 -0.006254
     5 H     0.001150  0.002856  0.001394
     6 O    -0.000799  0.000475 -0.000324
     7 H    -0.000254  0.001167  0.002322
     8 O    -0.003593 -0.003955  0.001949
     9 H     0.003085  0.000672 -0.002051
    10 Cl   -0.002042  0.000353 -0.001222
 ----------------------------------------
 Mulliken charges used for AMS results%charges...

 dE(predicted):    -0.15681E-03, dE(actual):    -0.17222E-03, Trust radius:    0.200000, all in a.u.
 
----------------------------------------------------------------------
Geometry Convergence after Step   4       (Hartree/Angstrom,Angstrom)
----------------------------------------------------------------------
current energy                               -2.64109859 Hartree
energy change                      -0.00017222     0.00001000    F
constrained gradient max            0.00992213     0.00010000    F
constrained gradient rms            0.00346296     0.00006667    F
gradient max                        0.00992213
gradient rms                        0.00346296
cart. step max                      0.04915063     0.00100000    F
cart. step rms                      0.02545687     0.00066667    F
 
 
--------
Geometry
--------
Formula: H4ClO4Pa
Atoms
  Index Symbol   x (angstrom)   y (angstrom)   z (angstrom)
      1     Pa     0.40952227     0.12438275     0.05031333
      2      O     1.02917340     1.32512002    -1.55014323
      3      H     1.03156230     2.12745776    -2.07634954
      4      O    -0.81993003     1.16675886     0.94558885
      5      H    -0.99112554    -2.42806091     0.69649912
      6      O    -0.07412893    -1.50557738    -1.25478884
      7      H     0.03994973    -1.80296664    -2.16112413
      8      O    -0.78235415    -1.79644413     1.39888566
      9      H    -1.60706579    -1.55822477     1.83720002
     10     Cl     2.73873321    -0.42388820     1.12425414
 
Total System Charge             0.00000
Bonding info available!
 
 *** GO1_GOStep5 ***



 ======================
 RI Hartree-Fock Scheme
 ======================
  
 Fit Set Quality     : GOOD
 Threshold Quality   : GOOD
 Integration Quality : GOOD
 Response Quality    : DEFAULT
 Is Range Separated  :  F
 
 RIHartreeFock Dependency: number of modified vectors:           6
  
 Hartree-Fock exchange energy:   -528.280974061854     

 Energy gradients wrt nuclear displacements
 ==========================================

     Atom      Cartesian (a.u./angstrom)
                 X         Y         Z
 ----------------------------------------
     1 Pa    0.000073  0.004329 -0.005484
     2 O    -0.000010 -0.006789  0.004003
     3 H    -0.001753  0.000179  0.001400
     4 O     0.002550 -0.003265 -0.003160
     5 H     0.000152  0.001603  0.000547
     6 O     0.000719  0.005444  0.002675
     7 H    -0.000307  0.000197  0.000775
     8 O    -0.001006 -0.002659  0.001628
     9 H     0.000967  0.000588 -0.001236
    10 Cl   -0.001384  0.000372 -0.001148
 ----------------------------------------
 Mulliken charges used for AMS results%charges...

 dE(predicted):    -0.25070E-03, dE(actual):    -0.19763E-03, Trust radius:    0.200000, all in a.u.
 
----------------------------------------------------------------------
Geometry Convergence after Step   5       (Hartree/Angstrom,Angstrom)
----------------------------------------------------------------------
current energy                               -2.64129622 Hartree
energy change                      -0.00019763     0.00001000    F
constrained gradient max            0.00669677     0.00010000    F
constrained gradient rms            0.00258673     0.00006667    F
gradient max                        0.00669677
gradient rms                        0.00258673
cart. step max                      0.03274383     0.00100000    F
cart. step rms                      0.01455792     0.00066667    F
 
 
--------
Geometry
--------
Formula: H4ClO4Pa
Atoms
  Index Symbol   x (angstrom)   y (angstrom)   z (angstrom)
      1     Pa     0.40651203     0.12696914     0.05724182
      2      O     1.00812879     1.32782691    -1.55169855
      3      H     1.03487580     2.11295983    -2.10323540
      4      O    -0.80046196     1.18034691     0.97833269
      5      H    -1.01654825    -2.43871927     0.69771744
      6      O    -0.05386562    -1.49861494    -1.25810894
      7      H     0.06650312    -1.79668849    -2.16405575
      8      O    -0.80087176    -1.79338621     1.38606352
      9      H    -1.61669148    -1.57467964     1.85211962
     10     Cl     2.74675581    -0.41745691     1.11595893
 
Total System Charge             0.00000
Bonding info available!
 
 *** GO1_GOStep6 ***



 ======================
 RI Hartree-Fock Scheme
 ======================
  
 Fit Set Quality     : GOOD
 Threshold Quality   : GOOD
 Integration Quality : GOOD
 Response Quality    : DEFAULT
 Is Range Separated  :  F
 
 RIHartreeFock Dependency: number of modified vectors:           5
  
 Hartree-Fock exchange energy:   -528.276224398016     

 Energy gradients wrt nuclear displacements
 ==========================================

     Atom      Cartesian (a.u./angstrom)
                 X         Y         Z
 ----------------------------------------
     1 Pa    0.003093 -0.000831 -0.006539
     2 O     0.000070 -0.006291  0.003273
     3 H    -0.001406  0.001045  0.000182
     4 O    -0.001842  0.000906  0.000143
     5 H    -0.000903  0.000362 -0.000312
     6 O     0.000960  0.006083  0.003222
     7 H    -0.000349 -0.000439 -0.000296
     8 O     0.001381 -0.001446  0.001634
     9 H    -0.000857  0.000439 -0.000568
    10 Cl   -0.000148  0.000172 -0.000739
 ----------------------------------------
 Mulliken charges used for AMS results%charges...

 dE(predicted):    -0.11692E-03, dE(actual):    -0.12486E-03, Trust radius:    0.200000, all in a.u.
 
----------------------------------------------------------------------
Geometry Convergence after Step   6       (Hartree/Angstrom,Angstrom)
----------------------------------------------------------------------
current energy                               -2.64142108 Hartree
energy change                      -0.00012486     0.00001000    F
constrained gradient max            0.00650315     0.00010000    F
constrained gradient rms            0.00237097     0.00006667    F
gradient max                        0.00650315
gradient rms                        0.00237097
cart. step max                      0.03801052     0.00100000    F
cart. step rms                      0.01639001     0.00066667    F
 
 
--------
Geometry
--------
Formula: H4ClO4Pa
Atoms
  Index Symbol   x (angstrom)   y (angstrom)   z (angstrom)
      1     Pa     0.39970688     0.13037513     0.05927201
      2      O     0.98337340     1.34362373    -1.55349851
      3      H     1.04340444     2.10737725    -2.13166881
      4      O    -0.77462184     1.19327180     1.01634321
      5      H    -1.04386008    -2.44989329     0.70035492
      6      O    -0.03217564    -1.50104312    -1.26144107
      7      H     0.09666220    -1.80222771    -2.16565635
      8      O    -0.82267138    -1.78652545     1.36986117
      9      H    -1.62450368    -1.59244514     1.87086571
     10     Cl     2.74902220    -0.41395585     1.10590309
 
Total System Charge             0.00000
Bonding info available!
 
 *** GO1_GOStep7 ***



 ======================
 RI Hartree-Fock Scheme
 ======================
  
 Fit Set Quality     : GOOD
 Threshold Quality   : GOOD
 Integration Quality : GOOD
 Response Quality    : DEFAULT
 Is Range Separated  :  F
 
 RIHartreeFock Dependency: number of modified vectors:           5
  
 Hartree-Fock exchange energy:   -528.269756163089     

 Energy gradients wrt nuclear displacements
 ==========================================

     Atom      Cartesian (a.u./angstrom)
                 X         Y         Z
 ----------------------------------------
     1 Pa    0.004164 -0.005239 -0.004575
     2 O     0.000815 -0.002966  0.000480
     3 H    -0.000944  0.001240 -0.000849
     4 O    -0.005055  0.004444  0.003054
     5 H    -0.001889 -0.000626 -0.000780
     6 O     0.000758  0.004393  0.002330
     7 H    -0.000465 -0.000908 -0.001027
     8 O     0.003265 -0.000276  0.001434
     9 H    -0.002237  0.000123  0.000009
    10 Cl    0.001588 -0.000184 -0.000075
 ----------------------------------------
 Mulliken charges used for AMS results%charges...

 dE(predicted):    -0.13028E-03, dE(actual):    -0.15841E-03, Trust radius:    0.200000, all in a.u.
 
----------------------------------------------------------------------
Geometry Convergence after Step   7       (Hartree/Angstrom,Angstrom)
----------------------------------------------------------------------
current energy                               -2.64157949 Hartree
energy change                      -0.00015841     0.00001000    F
constrained gradient max            0.00523849     0.00010000    F
constrained gradient rms            0.00248452     0.00006667    F
gradient max                        0.00523849
gradient rms                        0.00248452
cart. step max                      0.03041847     0.00100000    F
cart. step rms                      0.01378116     0.00066667    F
 
 
--------
Geometry
--------
Formula: H4ClO4Pa
Atoms
  Index Symbol   x (angstrom)   y (angstrom)   z (angstrom)
      1     Pa     0.38977004     0.13445657     0.05595955
      2      O     0.96244879     1.36352763    -1.55423088
      3      H     1.05469278     2.10694040    -2.15336977
      4      O    -0.75042061     1.20152544     1.04676168
      5      H    -1.06023467    -2.45922220     0.70530041
      6      O    -0.01692735    -1.50766304    -1.26503065
      7      H     0.12136508    -1.81183127    -2.16679012
      8      O    -0.84051560    -1.77756978     1.35599288
      9      H    -1.62744784    -1.60648230     1.88745979
     10     Cl     2.74160584    -0.41512410     1.09828249
 
Total System Charge             0.00000
Bonding info available!
 
 *** GO1_GOStep8 ***



 ======================
 RI Hartree-Fock Scheme
 ======================
  
 Fit Set Quality     : GOOD
 Threshold Quality   : GOOD
 Integration Quality : GOOD
 Response Quality    : DEFAULT
 Is Range Separated  :  F
 
 RIHartreeFock Dependency: number of modified vectors:           5
  
 Hartree-Fock exchange energy:   -528.268362932108     

 Energy gradients wrt nuclear displacements
 ==========================================

     Atom      Cartesian (a.u./angstrom)
                 X         Y         Z
 ----------------------------------------
     1 Pa    0.002164 -0.005522 -0.001339
     2 O     0.001474  0.000595 -0.001764
     3 H    -0.000679  0.000608 -0.001025
     4 O    -0.004464  0.004527  0.003222
     5 H    -0.002053 -0.000613 -0.000470
     6 O     0.000546  0.001919  0.000784
     7 H    -0.000621 -0.000897 -0.000872
     8 O     0.003134 -0.000017  0.001002
     9 H    -0.002166 -0.000147  0.000020
    10 Cl    0.002666 -0.000452  0.000443
 ----------------------------------------
 Mulliken charges used for AMS results%charges...

 dE(predicted):    -0.92156E-04, dE(actual):    -0.13300E-03, Trust radius:    0.200000, all in a.u.
 
----------------------------------------------------------------------
Geometry Convergence after Step   8       (Hartree/Angstrom,Angstrom)
----------------------------------------------------------------------
current energy                               -2.64171249 Hartree
energy change                      -0.00013300     0.00001000    F
constrained gradient max            0.00550273     0.00010000    F
constrained gradient rms            0.00207660     0.00006667    F
gradient max                        0.00550273
gradient rms                        0.00207660
cart. step max                      0.02352800     0.00100000    F
cart. step rms                      0.01191742     0.00066667    F
 
 
--------
Geometry
--------
Formula: H4ClO4Pa
Atoms
  Index Symbol   x (angstrom)   y (angstrom)   z (angstrom)
      1     Pa     0.37656878     0.13971660     0.04931180
      2      O     0.94554376     1.38204124    -1.55410760
      3      H     1.06889840     2.10547481    -2.17076249
      4      O    -0.73006734     1.20721812     1.07028967
      5      H    -1.06395910    -2.46858932     0.71372281
      6      O    -0.00830801    -1.51279980    -1.27038419
      7      H     0.14150411    -1.81813833    -2.16956729
      8      O    -0.85398571    -1.76728513     1.34529607
      9      H    -1.62626268    -1.61830753     1.90274312
     10     Cl     2.72440427    -0.42077330     1.09379347
 
Total System Charge             0.00000
Bonding info available!
 
 *** GO1_GOStep9 ***



 ======================
 RI Hartree-Fock Scheme
 ======================
  
 Fit Set Quality     : GOOD
 Threshold Quality   : GOOD
 Integration Quality : GOOD
 Response Quality    : DEFAULT
 Is Range Separated  :  F
 
 RIHartreeFock Dependency: number of modified vectors:           5
  
 Hartree-Fock exchange energy:   -528.271481834366     

 Energy gradients wrt nuclear displacements
 ==========================================

     Atom      Cartesian (a.u./angstrom)
                 X         Y         Z
 ----------------------------------------
     1 Pa   -0.001306 -0.002510  0.001588
     2 O     0.001755  0.002718 -0.002380
     3 H    -0.000627 -0.000288 -0.000743
     4 O    -0.001335  0.001972  0.001200
     5 H    -0.001512 -0.000074 -0.000014
     6 O     0.000475 -0.000220 -0.000646
     7 H    -0.000761 -0.000587 -0.000265
     8 O     0.001710 -0.000287  0.000871
     9 H    -0.001199 -0.000139 -0.000318
    10 Cl    0.002800 -0.000586  0.000705
 ----------------------------------------
 Mulliken charges used for AMS results%charges...

 dE(predicted):    -0.71183E-04, dE(actual):    -0.95245E-04, Trust radius:    0.200000, all in a.u.
 
----------------------------------------------------------------------
Geometry Convergence after Step   9       (Hartree/Angstrom,Angstrom)
----------------------------------------------------------------------
current energy                               -2.64180773 Hartree
energy change                      -0.00009525     0.00001000    F
constrained gradient max            0.00280428     0.00010000    F
constrained gradient rms            0.00132184     0.00006667    F
gradient max                        0.00280428
gradient rms                        0.00132184
cart. step max                      0.01938865     0.00100000    F
cart. step rms                      0.00812108     0.00066667    F
 
 
--------
Geometry
--------
Formula: H4ClO4Pa
Atoms
  Index Symbol   x (angstrom)   y (angstrom)   z (angstrom)
      1     Pa     0.36497745     0.14456793     0.04297161
      2      O     0.93726015     1.39166919    -1.55378137
      3      H     1.08205761     2.10164238    -2.18078352
      4      O    -0.72081452     1.21110144     1.08194050
      5      H    -1.05649728    -2.47630760     0.72259275
      6      O    -0.00802310    -1.51291076    -1.27575659
      7      H     0.15235676    -1.81730233    -2.17316060
      8      O    -0.85971669    -1.75961576     1.34003669
      9      H    -1.62227951    -1.62628654     1.91334104
     10     Cl     2.70501562    -0.42800060     1.09293487
 
Total System Charge             0.00000
Bonding info available!
 
 *** GO1_GOStep10 ***



 ======================
 RI Hartree-Fock Scheme
 ======================
  
 Fit Set Quality     : GOOD
 Threshold Quality   : GOOD
 Integration Quality : GOOD
 Response Quality    : DEFAULT
 Is Range Separated  :  F
 
 RIHartreeFock Dependency: number of modified vectors:           5
  
 Hartree-Fock exchange energy:   -528.275874907943     

 Energy gradients wrt nuclear displacements
 ==========================================

     Atom      Cartesian (a.u./angstrom)
                 X         Y         Z
 ----------------------------------------
     1 Pa   -0.003174  0.000678  0.002190
     2 O     0.001484  0.002546 -0.001225
     3 H    -0.000650 -0.000778 -0.000524
     4 O     0.001345 -0.000515 -0.000765
     5 H    -0.000691  0.000441  0.000162
     6 O     0.000484 -0.000970 -0.001129
     7 H    -0.000786 -0.000256  0.000233
     8 O     0.000168 -0.000769  0.001001
     9 H    -0.000243  0.000156 -0.000569
    10 Cl    0.002063 -0.000536  0.000626
 ----------------------------------------
 Mulliken charges used for AMS results%charges...

 dE(predicted):    -0.37557E-04, dE(actual):    -0.35038E-04, Trust radius:    0.200000, all in a.u.
 
----------------------------------------------------------------------
Geometry Convergence after Step  10       (Hartree/Angstrom,Angstrom)
----------------------------------------------------------------------
current energy                               -2.64184277 Hartree
energy change                      -0.00003504     0.00001000    F
constrained gradient max            0.00323788     0.00010000    F
constrained gradient rms            0.00115393     0.00006667    F
gradient max                        0.00323788
gradient rms                        0.00115393
cart. step max                      0.01634076     0.00100000    F
cart. step rms                      0.00589275     0.00066667    F
 
 
--------
Geometry
--------
Formula: H4ClO4Pa
Atoms
  Index Symbol   x (angstrom)   y (angstrom)   z (angstrom)
      1     Pa     0.35670418     0.14821798     0.03822573
      2      O     0.93576420     1.39436542    -1.55386989
      3      H     1.09312368     2.09783910    -2.18508084
      4      O    -0.72106416     1.21423819     1.08474767
      5      H    -1.04560277    -2.48211365     0.73019087
      6      O    -0.01270222    -1.50995763    -1.28016410
      7      H     0.15643230    -1.81262647    -2.17648791
      8      O    -0.85994707    -1.75506251     1.33847657
      9      H    -1.61704653    -1.63171265     1.92065654
     10     Cl     2.68867486    -0.43463042     1.09364073
 
Total System Charge             0.00000
Bonding info available!
 
 *** GO1_GOStep11 ***



 ======================
 RI Hartree-Fock Scheme
 ======================
  
 Fit Set Quality     : GOOD
 Threshold Quality   : GOOD
 Integration Quality : GOOD
 Response Quality    : DEFAULT
 Is Range Separated  :  F
 
 RIHartreeFock Dependency: number of modified vectors:           5
  
 Hartree-Fock exchange energy:   -528.278746651175     

 Energy gradients wrt nuclear displacements
 ==========================================

     Atom      Cartesian (a.u./angstrom)
                 X         Y         Z
 ----------------------------------------
     1 Pa   -0.002785  0.002071  0.000923
     2 O     0.000964  0.001388  0.000419
     3 H    -0.000656 -0.000872 -0.000488
     4 O     0.002233 -0.001435 -0.001334
     5 H    -0.000046  0.000623  0.000041
     6 O     0.000440 -0.000780 -0.000842
     7 H    -0.000690 -0.000076  0.000368
     8 O    -0.000667 -0.001012  0.001068
     9 H     0.000175  0.000493 -0.000516
    10 Cl    0.001033 -0.000399  0.000359
 ----------------------------------------
 Mulliken charges used for AMS results%charges...

 dE(predicted):    -0.19235E-04, dE(actual):    -0.10449E-04, Trust radius:    0.200000, all in a.u.
 
----------------------------------------------------------------------
Geometry Convergence after Step  11       (Hartree/Angstrom,Angstrom)
----------------------------------------------------------------------
current energy                               -2.64185322 Hartree
energy change                      -0.00001045     0.00001000    F
constrained gradient max            0.00284974     0.00010000    F
constrained gradient rms            0.00104597     0.00006667    F
gradient max                        0.00284974
gradient rms                        0.00104597
cart. step max                      0.01481063     0.00100000    F
cart. step rms                      0.00597114     0.00066667    F
 
 
--------
Geometry
--------
Formula: H4ClO4Pa
Atoms
  Index Symbol   x (angstrom)   y (angstrom)   z (angstrom)
      1     Pa     0.34970288     0.15125688     0.03424061
      2      O     0.93836823     1.39388965    -1.55454007
      3      H     1.10471133     2.09476523    -2.18652335
      4      O    -0.72755926     1.21756712     1.08238288
      5      H    -1.03426954    -2.48749213     0.73801781
      6      O    -0.02039378    -1.50535448    -1.28457836
      7      H     0.15747313    -1.80589551    -2.18003165
      8      O    -0.85737004    -1.75213250     1.33876758
      9      H    -1.61019071    -1.63724741     1.92805922
     10     Cl     2.67386423    -0.44079951     1.09454070
 
Total System Charge             0.00000
Bonding info available!
 
 *** GO1_GOStep12 ***



 ======================
 RI Hartree-Fock Scheme
 ======================
  
 Fit Set Quality     : GOOD
 Threshold Quality   : GOOD
 Integration Quality : GOOD
 Response Quality    : DEFAULT
 Is Range Separated  :  F
 
 RIHartreeFock Dependency: number of modified vectors:           5
  
 Hartree-Fock exchange energy:   -528.280024401804     

 Energy gradients wrt nuclear displacements
 ==========================================

     Atom      Cartesian (a.u./angstrom)
                 X         Y         Z
 ----------------------------------------
     1 Pa   -0.001021  0.001863 -0.001049
     2 O     0.000464  0.000116  0.001839
     3 H    -0.000619 -0.000725 -0.000593
     4 O     0.001780 -0.001101 -0.000785
     5 H     0.000325  0.000568 -0.000149
     6 O     0.000307 -0.000244 -0.000248
     7 H    -0.000510 -0.000012  0.000252
     8 O    -0.000899 -0.000913  0.001087
     9 H     0.000236  0.000674 -0.000348
    10 Cl   -0.000063 -0.000227 -0.000007
 ----------------------------------------
 Mulliken charges used for AMS results%charges...

 dE(predicted):    -0.14224E-04, dE(actual):    -0.36877E-05, Trust radius:    0.200000, all in a.u.
 
----------------------------------------------------------------------
Geometry Convergence after Step  12       (Hartree/Angstrom,Angstrom)
----------------------------------------------------------------------
current energy                               -2.64185691 Hartree
energy change                      -0.00000369     0.00001000    T
constrained gradient max            0.00191296     0.00010000    F
constrained gradient rms            0.00080829     0.00006667    F
gradient max                        0.00191296
gradient rms                        0.00080829
cart. step max                      0.01139723     0.00100000    F
cart. step rms                      0.00570340     0.00066667    F
 
 
--------
Geometry
--------
Formula: H4ClO4Pa
Atoms
  Index Symbol   x (angstrom)   y (angstrom)   z (angstrom)
      1     Pa     0.34407957     0.15350615     0.03137606
      2      O     0.94332085     1.39214017    -1.55567443
      3      H     1.11610856     2.09312257    -2.18606139
      4      O    -0.73742144     1.22079753     1.07666731
      5      H    -1.02624388    -2.49218249     0.74517448
      6      O    -0.02888170    -1.50056315    -1.28856743
      7      H     0.15702406    -1.79911575    -2.18322052
      8      O    -0.85387781    -1.75067415     1.33973678
      9      H    -1.60235980    -1.64329386     1.93608988
     10     Cl     2.66258806    -0.44517966     1.09481464
 
Total System Charge             0.00000
Bonding info available!
 
 *** GO1_GOStep13 ***



 ======================
 RI Hartree-Fock Scheme
 ======================
  
 Fit Set Quality     : GOOD
 Threshold Quality   : GOOD
 Integration Quality : GOOD
 Response Quality    : DEFAULT
 Is Range Separated  :  F
 
 RIHartreeFock Dependency: number of modified vectors:           5
  
 Hartree-Fock exchange energy:   -528.279854190503     

 Energy gradients wrt nuclear displacements
 ==========================================

     Atom      Cartesian (a.u./angstrom)
                 X         Y         Z
 ----------------------------------------
     1 Pa    0.000941  0.000606 -0.002433
     2 O     0.000221 -0.000617  0.002427
     3 H    -0.000551 -0.000487 -0.000741
     4 O     0.000656 -0.000115  0.000228
     5 H     0.000316  0.000372 -0.000234
     6 O     0.000119  0.000251  0.000273
     7 H    -0.000309 -0.000026  0.000030
     8 O    -0.000526 -0.000500  0.000986
     9 H     0.000018  0.000593 -0.000181
    10 Cl   -0.000886 -0.000078 -0.000354
 ----------------------------------------
 Mulliken charges used for AMS results%charges...

 dE(predicted):    -0.10661E-04, dE(actual):    -0.18124E-05, Trust radius:    0.200000, all in a.u.
 
----------------------------------------------------------------------
Geometry Convergence after Step  13       (Hartree/Angstrom,Angstrom)
----------------------------------------------------------------------
current energy                               -2.64185872 Hartree
energy change                      -0.00000181     0.00001000    T
constrained gradient max            0.00250174     0.00010000    F
constrained gradient rms            0.00077564     0.00006667    F
gradient max                        0.00250174
gradient rms                        0.00077564
cart. step max                      0.01208641     0.00100000    F
cart. step rms                      0.00582427     0.00066667    F
 
 
--------
Geometry
--------
Formula: H4ClO4Pa
Atoms
  Index Symbol   x (angstrom)   y (angstrom)   z (angstrom)
      1     Pa     0.33905532     0.15522890     0.02913741
      2      O     0.94990686     1.39025148    -1.55716921
      3      H     1.12812899     2.09326708    -2.18395318
      4      O    -0.74950784     1.22374074     1.06810099
      5      H    -1.02185200    -2.49647459     0.75160957
      6      O    -0.03795459    -1.49627984    -1.29218576
      7      H     0.15555417    -1.79312549    -2.18594365
      8      O    -0.85019505    -1.75025801     1.34064296
      9      H    -1.59292355    -1.65011120     1.94566716
     10     Cl     2.65412416    -0.44768171     1.09442909
 
Total System Charge             0.00000
Bonding info available!
 
 *** GO1_GOStep14 ***



 ======================
 RI Hartree-Fock Scheme
 ======================
  
 Fit Set Quality     : GOOD
 Threshold Quality   : GOOD
 Integration Quality : GOOD
 Response Quality    : DEFAULT
 Is Range Separated  :  F
 
 RIHartreeFock Dependency: number of modified vectors:           5
  
 Hartree-Fock exchange energy:   -528.278878936301     

 Energy gradients wrt nuclear displacements
 ==========================================

     Atom      Cartesian (a.u./angstrom)
                 X         Y         Z
 ----------------------------------------
     1 Pa    0.002325 -0.000953 -0.002631
     2 O     0.000303 -0.000645  0.002108
     3 H    -0.000474 -0.000282 -0.000831
     4 O    -0.000483  0.000876  0.001087
     5 H     0.000030  0.000085 -0.000213
     6 O    -0.000103  0.000513  0.000539
     7 H    -0.000125 -0.000065 -0.000156
     8 O     0.000200  0.000120  0.000773
     9 H    -0.000315  0.000330 -0.000044
    10 Cl   -0.001357  0.000022 -0.000633
 ----------------------------------------
 Mulliken charges used for AMS results%charges...

 dE(predicted):    -0.96828E-05, dE(actual):    -0.19339E-05, Trust radius:    0.200000, all in a.u.
 
----------------------------------------------------------------------
Geometry Convergence after Step  14       (Hartree/Angstrom,Angstrom)
----------------------------------------------------------------------
current energy                               -2.64186065 Hartree
energy change                      -0.00000193     0.00001000    T
constrained gradient max            0.00260800     0.00010000    F
constrained gradient rms            0.00090876     0.00006667    F
gradient max                        0.00260800
gradient rms                        0.00090876
cart. step max                      0.01125410     0.00100000    F
cart. step rms                      0.00520924     0.00066667    F
 
 
--------
Geometry
--------
Formula: H4ClO4Pa
Atoms
  Index Symbol   x (angstrom)   y (angstrom)   z (angstrom)
      1     Pa     0.33503022     0.15635622     0.02760557
      2      O     0.95634576     1.38885301    -1.55866304
      3      H     1.13906370     2.09489092    -2.18075753
      4      O    -0.76076194     1.22581907     1.05869276
      5      H    -1.02174993    -2.49972157     0.75593947
      6      O    -0.04587391    -1.49348286    -1.29478488
      7      H     0.15341151    -1.78919410    -2.18770945
      8      O    -0.84749980    -1.75068636     1.34069503
      9      H    -1.58306947    -1.65663197     1.95554205
     10     Cl     2.64944033    -0.44764500     1.09377540
 
Total System Charge             0.00000
Bonding info available!
 
 *** GO1_GOStep15 ***



 ======================
 RI Hartree-Fock Scheme
 ======================
  
 Fit Set Quality     : GOOD
 Threshold Quality   : GOOD
 Integration Quality : GOOD
 Response Quality    : DEFAULT
 Is Range Separated  :  F
 
 RIHartreeFock Dependency: number of modified vectors:           5
  
 Hartree-Fock exchange energy:   -528.277918501321     

 Energy gradients wrt nuclear displacements
 ==========================================

     Atom      Cartesian (a.u./angstrom)
                 X         Y         Z
 ----------------------------------------
     1 Pa    0.002435 -0.001930 -0.001546
     2 O     0.000643 -0.000087  0.001139
     3 H    -0.000420 -0.000206 -0.000802
     4 O    -0.000989  0.001259  0.001257
     5 H    -0.000336 -0.000115 -0.000062
     6 O    -0.000302  0.000474  0.000494
     7 H    -0.000012 -0.000089 -0.000210
     8 O     0.000859  0.000613  0.000482
     9 H    -0.000536  0.000041  0.000005
    10 Cl   -0.001341  0.000039 -0.000756
 ----------------------------------------
 Mulliken charges used for AMS results%charges...
 
----------------------------------------------------------------------
Geometry Convergence after Step  15       (Hartree/Angstrom,Angstrom)
----------------------------------------------------------------------
current energy                               -2.64186136 Hartree
energy change                      -0.00000070     0.00001000    T
constrained gradient max            0.00237485     0.00010000    F
constrained gradient rms            0.00087891     0.00006667    F
gradient max                        0.00237485
gradient rms                        0.00087891
cart. step max                      0.00876151     0.00100000    F
cart. step rms                      0.00387754     0.00066667    F
 
 
--------
Geometry
--------
Formula: H4ClO4Pa
Atoms
  Index Symbol   x (angstrom)   y (angstrom)   z (angstrom)
      1     Pa     0.33206732     0.15709403     0.02661659
      2      O     0.96042884     1.38828408    -1.55982829
      3      H     1.14729732     2.09653859    -2.17801515
      4      O    -0.76790461     1.22707220     1.05167307
      5      H    -1.02494545    -2.50165521     0.75758923
      6      O    -0.05085761    -1.49238382    -1.29623461
      7      H     0.15167265    -1.78753421    -2.18856575
      8      O    -0.84690391    -1.75124301     1.33927886
      9      H    -1.57441183    -1.66209340     1.96430356
     10     Cl     2.64789376    -0.44552190     1.09351788
 
Total System Charge             0.00000
Bonding info available!
 
 *** GO1_GOStep16 ***



 ======================
 RI Hartree-Fock Scheme
 ======================
  
 Fit Set Quality     : GOOD
 Threshold Quality   : GOOD
 Integration Quality : GOOD
 Response Quality    : DEFAULT
 Is Range Separated  :  F
 
 RIHartreeFock Dependency: number of modified vectors:           5
  
 Hartree-Fock exchange energy:   -528.277636302659     

 Energy gradients wrt nuclear displacements
 ==========================================

     Atom      Cartesian (a.u./angstrom)
                 X         Y         Z
 ----------------------------------------
     1 Pa    0.001352 -0.001863  0.000050
     2 O     0.001011  0.000617  0.000147
     3 H    -0.000401 -0.000284 -0.000663
     4 O    -0.000673  0.000880  0.000719
     5 H    -0.000578 -0.000113  0.000157
     6 O    -0.000410  0.000228  0.000231
     7 H     0.000008 -0.000074 -0.000114
     8 O     0.001126  0.000756  0.000212
     9 H    -0.000514 -0.000124 -0.000047
    10 Cl   -0.000922 -0.000024 -0.000693
 ----------------------------------------
 Mulliken charges used for AMS results%charges...

 dE(predicted):    -0.61399E-05, dE(actual):     0.39541E-05, Trust radius:    0.020000, all in a.u.
 
----------------------------------------------------------------------
Geometry Convergence after Step  16       (Hartree/Angstrom,Angstrom)
----------------------------------------------------------------------
current energy                               -2.64185740 Hartree
energy change                       0.00000395     0.00001000    T
constrained gradient max            0.00184612     0.00010000    F
constrained gradient rms            0.00065771     0.00006667    F
gradient max                        0.00184612
gradient rms                        0.00065771
cart. step max                      0.00302175     0.00100000    F
cart. step rms                      0.00122078     0.00066667    F
 
 
--------
Geometry
--------
Formula: H4ClO4Pa
Atoms
  Index Symbol   x (angstrom)   y (angstrom)   z (angstrom)
      1     Pa     0.33226571     0.15700811     0.02678020
      2      O     0.96039461     1.38819122    -1.56010760
      3      H     1.14768870     2.09730622    -2.17704699
      4      O    -0.76731117     1.22697947     1.05073723
      5      H    -1.02796720    -2.50134720     0.75570399
      6      O    -0.05064275    -1.49327784    -1.29558501
      7      H     0.15046523    -1.78876536    -2.18803142
      8      O    -0.84815210    -1.75171099     1.33765484
      9      H    -1.57269723    -1.66296639     1.96599089
     10     Cl     2.65029267    -0.44285989     1.09423924
 
Total System Charge             0.00000
Bonding info available!
 
 *** GO1_GOStep17 ***



 ======================
 RI Hartree-Fock Scheme
 ======================
  
 Fit Set Quality     : GOOD
 Threshold Quality   : GOOD
 Integration Quality : GOOD
 Response Quality    : DEFAULT
 Is Range Separated  :  F
 
 RIHartreeFock Dependency: number of modified vectors:           5
  
 Hartree-Fock exchange energy:   -528.277962805914     

 Energy gradients wrt nuclear displacements
 ==========================================

     Atom      Cartesian (a.u./angstrom)
                 X         Y         Z
 ----------------------------------------
     1 Pa    0.000159 -0.001040  0.000797
     2 O     0.001121  0.000866 -0.000126
     3 H    -0.000419 -0.000394 -0.000548
     4 O    -0.000014  0.000240  0.000070
     5 H    -0.000490  0.000006  0.000205
     6 O    -0.000390  0.000033  0.000024
     7 H    -0.000056 -0.000052  0.000019
     8 O     0.000830  0.000454  0.000137
     9 H    -0.000327  0.000001 -0.000079
    10 Cl   -0.000415 -0.000114 -0.000499
 ----------------------------------------
 Mulliken charges used for AMS results%charges...

 dE(predicted):    -0.36655E-05, dE(actual):     0.18181E-05, Trust radius:    0.020000, all in a.u.
 
----------------------------------------------------------------------
Geometry Convergence after Step  17       (Hartree/Angstrom,Angstrom)
----------------------------------------------------------------------
current energy                               -2.64185559 Hartree
energy change                       0.00000182     0.00001000    T
constrained gradient max            0.00105037     0.00010000    F
constrained gradient rms            0.00044822     0.00006667    F
gradient max                        0.00105037
gradient rms                        0.00044822
cart. step max                      0.00248740     0.00100000    F
cart. step rms                      0.00120849     0.00066667    F
 
 
--------
Geometry
--------
Formula: H4ClO4Pa
Atoms
  Index Symbol   x (angstrom)   y (angstrom)   z (angstrom)
      1     Pa     0.33258999     0.15702119     0.02673120
      2      O     0.95935762     1.38779335    -1.56041465
      3      H     1.14720776     2.09728759    -2.17667130
      4      O    -0.76506656     1.22724472     1.05122975
      5      H    -1.03017521    -2.50100706     0.75368274
      6      O    -0.04970424    -1.49402064    -1.29514285
      7      H     0.14957468    -1.78987929    -2.18779045
      8      O    -0.85007883    -1.75165423     1.33565325
      9      H    -1.57167983    -1.66385577     1.96724536
     10     Cl     2.65231110    -0.44037250     1.09581232
 
Total System Charge             0.00000
Bonding info available!
 
 *** GO1_GOStep18 ***



 ======================
 RI Hartree-Fock Scheme
 ======================
  
 Fit Set Quality     : GOOD
 Threshold Quality   : GOOD
 Integration Quality : GOOD
 Response Quality    : DEFAULT
 Is Range Separated  :  F
 
 RIHartreeFock Dependency: number of modified vectors:           5
  
 Hartree-Fock exchange energy:   -528.278490907512     

 Energy gradients wrt nuclear displacements
 ==========================================

     Atom      Cartesian (a.u./angstrom)
                 X         Y         Z
 ----------------------------------------
     1 Pa   -0.000772 -0.000079  0.000873
     2 O     0.001053  0.000753  0.000034
     3 H    -0.000433 -0.000469 -0.000466
     4 O     0.000554 -0.000314 -0.000426
     5 H    -0.000305  0.000169  0.000213
     6 O    -0.000358 -0.000070 -0.000096
     7 H    -0.000115 -0.000033  0.000118
     8 O     0.000383  0.000074  0.000134
     9 H    -0.000086  0.000178 -0.000118
    10 Cl    0.000079 -0.000208 -0.000265
 ----------------------------------------
 Mulliken charges used for AMS results%charges...

 dE(predicted):    -0.33257E-05, dE(actual):     0.10478E-04, Trust radius:    0.020000, all in a.u.
 
----------------------------------------------------------------------
Geometry Convergence after Step  18       (Hartree/Angstrom,Angstrom)
----------------------------------------------------------------------
current energy                               -2.64184511 Hartree
energy change                       0.00001048     0.00001000    F
constrained gradient max            0.00098154     0.00010000    F
constrained gradient rms            0.00039140     0.00006667    F
gradient max                        0.00098154
gradient rms                        0.00039140
cart. step max                      0.00185266     0.00100000    F
cart. step rms                      0.00094090     0.00066667    F
 
 
--------
Geometry
--------
Formula: H4ClO4Pa
Atoms
  Index Symbol   x (angstrom)   y (angstrom)   z (angstrom)
      1     Pa     0.33250471     0.15717997     0.02627470
      2      O     0.95849544     1.38723764    -1.56093031
      3      H     1.14735530     2.09700523    -2.17657646
      4      O    -0.76335294     1.22807650     1.05172827
      5      H    -1.03125420    -2.50110223     0.75279749
      6      O    -0.04912340    -1.49420473    -1.29537237
      7      H     0.14916159    -1.79015226    -2.18817494
      8      O    -0.85174334    -1.75112649     1.33400182
      9      H    -1.57038702    -1.66540337     1.96909802
     10     Cl     2.65268034    -0.43895289     1.09748915
 
Total System Charge             0.00000
Bonding info available!
 
 *** GO1_GOStep19 ***



 ======================
 RI Hartree-Fock Scheme
 ======================
  
 Fit Set Quality     : GOOD
 Threshold Quality   : GOOD
 Integration Quality : GOOD
 Response Quality    : DEFAULT
 Is Range Separated  :  F
 
 RIHartreeFock Dependency: number of modified vectors:           5
  
 Hartree-Fock exchange energy:   -528.278689487373     

 Energy gradients wrt nuclear displacements
 ==========================================

     Atom      Cartesian (a.u./angstrom)
                 X         Y         Z
 ----------------------------------------
     1 Pa   -0.001011  0.000389  0.000445
     2 O     0.000910  0.000481  0.000344
     3 H    -0.000426 -0.000466 -0.000454
     4 O     0.000662 -0.000433 -0.000486
     5 H    -0.000201  0.000221  0.000170
     6 O    -0.000353 -0.000084 -0.000104
     7 H    -0.000132 -0.000031  0.000121
     8 O     0.000179 -0.000085  0.000161
     9 H     0.000003  0.000275 -0.000097
    10 Cl    0.000370 -0.000266 -0.000101
 ----------------------------------------
 Mulliken charges used for AMS results%charges...

 dE(predicted):    -0.24086E-05, dE(actual):     0.22511E-04, Trust radius:    0.020000, all in a.u.
 
----------------------------------------------------------------------
Geometry Convergence after Step  19       (Hartree/Angstrom,Angstrom)
----------------------------------------------------------------------
current energy                               -2.64182260 Hartree
energy change                       0.00002251     0.00001000    F
constrained gradient max            0.00106962     0.00010000    F
constrained gradient rms            0.00038049     0.00006667    F
gradient max                        0.00106962
gradient rms                        0.00038049
cart. step max                      0.00200394     0.00100000    F
cart. step rms                      0.00094871     0.00066667    F
 
 
--------
Geometry
--------
Formula: H4ClO4Pa
Atoms
  Index Symbol   x (angstrom)   y (angstrom)   z (angstrom)
      1     Pa     0.33248389     0.15731617     0.02556081
      2      O     0.95782857     1.38650462    -1.56173823
      3      H     1.14740965     2.09704316    -2.17635687
      4      O    -0.76167273     1.22934293     1.05206765
      5      H    -1.03166425    -2.50130398     0.75235511
      6      O    -0.04859086    -1.49429328    -1.29582492
      7      H     0.14873724    -1.79028647    -2.18880622
      8      O    -0.85329825    -1.75034197     1.33257039
      9      H    -1.56913903    -1.66728909     1.97110196
     10     Cl     2.65224223    -0.43813473     1.09940569
 
Total System Charge             0.00000
Bonding info available!
 
 *** GO1_GOStep20 ***



 ======================
 RI Hartree-Fock Scheme
 ======================
  
 Fit Set Quality     : GOOD
 Threshold Quality   : GOOD
 Integration Quality : GOOD
 Response Quality    : DEFAULT
 Is Range Separated  :  F
 
 RIHartreeFock Dependency: number of modified vectors:           5
  
 Hartree-Fock exchange energy:   -528.278586255162     

 Energy gradients wrt nuclear displacements
 ==========================================

     Atom      Cartesian (a.u./angstrom)
                 X         Y         Z
 ----------------------------------------
     1 Pa   -0.000759  0.000499 -0.000297
     2 O     0.000731  0.000129  0.000719
     3 H    -0.000405 -0.000398 -0.000493
     4 O     0.000441 -0.000236 -0.000237
     5 H    -0.000147  0.000178  0.000069
     6 O    -0.000369 -0.000052 -0.000032
     7 H    -0.000126 -0.000044  0.000050
     8 O     0.000136 -0.000110  0.000220
     9 H    -0.000025  0.000332 -0.000014
    10 Cl    0.000522 -0.000299  0.000016
 ----------------------------------------
 Mulliken charges used for AMS results%charges...

 dE(predicted):    -0.25259E-05, dE(actual):     0.45987E-04, Trust radius:    0.020000, all in a.u.
 
----------------------------------------------------------------------
Geometry Convergence after Step  20       (Hartree/Angstrom,Angstrom)
----------------------------------------------------------------------
current energy                               -2.64177661 Hartree
energy change                       0.00004599     0.00001000    F
constrained gradient max            0.00081661     0.00010000    F
constrained gradient rms            0.00033108     0.00006667    F
gradient max                        0.00081661
gradient rms                        0.00033108
cart. step max                      0.00240834     0.00100000    F
cart. step rms                      0.00102828     0.00066667    F
 
 
--------
Geometry
--------
Formula: H4ClO4Pa
Atoms
  Index Symbol   x (angstrom)   y (angstrom)   z (angstrom)
      1     Pa     0.33246574     0.15745624     0.02475726
      2      O     0.95734315     1.38582963    -1.56284227
      3      H     1.14737528     2.09754409    -2.17605606
      4      O    -0.75985346     1.23107069     1.05224895
      5      H    -1.03185596    -2.50158242     0.75228230
      6      O    -0.04796449    -1.49439047    -1.29628732
      7      H     0.14849570    -1.79051563    -2.18937989
      8      O    -0.85491599    -1.74937002     1.33123092
      9      H    -1.56796300    -1.66969743     1.97322587
     10     Cl     2.65120951    -0.43778732     1.10115562
 
Total System Charge             0.00000
Bonding info available!
 
 *** GO1_GOStep21 ***



 ======================
 RI Hartree-Fock Scheme
 ======================
  
 Fit Set Quality     : GOOD
 Threshold Quality   : GOOD
 Integration Quality : GOOD
 Response Quality    : DEFAULT
 Is Range Separated  :  F
 
 RIHartreeFock Dependency: number of modified vectors:           5
  
 Hartree-Fock exchange energy:   -528.278241522334     

 Energy gradients wrt nuclear displacements
 ==========================================

     Atom      Cartesian (a.u./angstrom)
                 X         Y         Z
 ----------------------------------------
     1 Pa   -0.000268  0.000351 -0.000989
     2 O     0.000589 -0.000138  0.000982
     3 H    -0.000379 -0.000313 -0.000546
     4 O     0.000080  0.000103  0.000135
     5 H    -0.000189  0.000065 -0.000028
     6 O    -0.000408 -0.000013  0.000092
     7 H    -0.000098 -0.000067 -0.000087
     8 O     0.000292 -0.000005  0.000289
     9 H    -0.000161  0.000318  0.000078
    10 Cl    0.000542 -0.000302  0.000073
 ----------------------------------------
 Mulliken charges used for AMS results%charges...

 dE(predicted):    -0.26193E-05, dE(actual):     0.10579E-03, Trust radius:    0.020000, all in a.u.
 
----------------------------------------------------------------------
Geometry Convergence after Step  21       (Hartree/Angstrom,Angstrom)
----------------------------------------------------------------------
current energy                               -2.64167082 Hartree
energy change                       0.00010579     0.00001000    F
constrained gradient max            0.00106343     0.00010000    F
constrained gradient rms            0.00034991     0.00006667    F
gradient max                        0.00106343
gradient rms                        0.00034991
cart. step max                      0.00296110     0.00100000    F
cart. step rms                      0.00120103     0.00066667    F
 
 
--------
Geometry
--------
Formula: H4ClO4Pa
Atoms
  Index Symbol   x (angstrom)   y (angstrom)   z (angstrom)
      1     Pa     0.33262007     0.15758425     0.02393395
      2      O     0.95707514     1.38511982    -1.56435479
      3      H     1.14681678     2.09885312    -2.17540666
      4      O    -0.75751509     1.23342153     1.05218554
      5      H    -1.03179077    -2.50172189     0.75216201
      6      O    -0.04712156    -1.49465500    -1.29646250
      7      H     0.14824765    -1.79129375    -2.18949518
      8      O    -0.85675077    -1.74824383     1.32983788
      9      H    -1.56701456    -1.67265853     1.97520682
     10     Cl     2.64976958    -0.43784837     1.10272831
 
Total System Charge             0.00000
Bonding info available!
 
 *** GO1_GOStep22 ***



 ======================
 RI Hartree-Fock Scheme
 ======================
  
 Fit Set Quality     : GOOD
 Threshold Quality   : GOOD
 Integration Quality : GOOD
 Response Quality    : DEFAULT
 Is Range Separated  :  F
 
 RIHartreeFock Dependency: number of modified vectors:           5
  
 Hartree-Fock exchange energy:   -528.278322483330     

 Energy gradients wrt nuclear displacements
 ==========================================

     Atom      Cartesian (a.u./angstrom)
                 X         Y         Z
 ----------------------------------------
     1 Pa    0.000409  0.000021 -0.001489
     2 O     0.000494 -0.000319  0.001099
     3 H    -0.000359 -0.000232 -0.000605
     4 O    -0.000337  0.000517  0.000530
     5 H    -0.000190  0.000231  0.000121
     6 O    -0.000316 -0.000031 -0.000200
     7 H    -0.000212  0.000018  0.000263
     8 O     0.000225 -0.000160  0.000195
     9 H    -0.000121  0.000231  0.000023
    10 Cl    0.000407 -0.000276  0.000062
 ----------------------------------------
 Mulliken charges used for AMS results%charges...

 dE(predicted):    -0.30738E-05, dE(actual):    -0.78238E-05, Trust radius:    0.040000, all in a.u.
 
----------------------------------------------------------------------
Geometry Convergence after Step  22       (Hartree/Angstrom,Angstrom)
----------------------------------------------------------------------
current energy                               -2.64167864 Hartree
energy change                      -0.00000782     0.00001000    T
constrained gradient max            0.00146410     0.00010000    F
constrained gradient rms            0.00043200     0.00006667    F
gradient max                        0.00146410
gradient rms                        0.00043200
cart. step max                      0.00513918     0.00100000    F
cart. step rms                      0.00236142     0.00066667    F
 
 
--------
Geometry
--------
Formula: H4ClO4Pa
Atoms
  Index Symbol   x (angstrom)   y (angstrom)   z (angstrom)
      1     Pa     0.33212166     0.15756384     0.02188669
      2      O     0.95689458     1.38440885    -1.56719658
      3      H     1.14657881     2.10250612    -2.17319971
      4      O    -0.75367010     1.23732875     1.05122887
      5      H    -1.03163253    -2.50224791     0.75308852
      6      O    -0.04564307    -1.49575376    -1.29745177
      7      H     0.14870391    -1.79312797    -2.19062200
      8      O    -0.86034635    -1.74572620     1.32791745
      9      H    -1.56489025    -1.67779772     1.98013225
     10     Cl     2.64621981    -0.43859664     1.10455166
 
Total System Charge             0.00000
Bonding info available!
 
 *** GO1_GOStep23 ***



 ======================
 RI Hartree-Fock Scheme
 ======================
  
 Fit Set Quality     : GOOD
 Threshold Quality   : GOOD
 Integration Quality : GOOD
 Response Quality    : DEFAULT
 Is Range Separated  :  F
 
 RIHartreeFock Dependency: number of modified vectors:           5
  
 Hartree-Fock exchange energy:   -528.278549169817     

 Energy gradients wrt nuclear displacements
 ==========================================

     Atom      Cartesian (a.u./angstrom)
                 X         Y         Z
 ----------------------------------------
     1 Pa    0.001093 -0.000647 -0.001778
     2 O     0.000451 -0.000311  0.001032
     3 H    -0.000333 -0.000168 -0.000614
     4 O    -0.000721  0.000897  0.000899
     5 H    -0.000113  0.000408  0.000195
     6 O    -0.000266  0.000084 -0.000210
     7 H    -0.000250 -0.000025  0.000254
     8 O    -0.000272 -0.000094  0.000577
     9 H     0.000298  0.000066 -0.000335
    10 Cl    0.000112 -0.000210 -0.000019
 ----------------------------------------
 Mulliken charges used for AMS results%charges...

 dE(predicted):    -0.52561E-05, dE(actual):    -0.18739E-03, Trust radius:    0.080000, all in a.u.
 
----------------------------------------------------------------------
Geometry Convergence after Step  23       (Hartree/Angstrom,Angstrom)
----------------------------------------------------------------------
current energy                               -2.64186603 Hartree
energy change                      -0.00018739     0.00001000    F
constrained gradient max            0.00175235     0.00010000    F
constrained gradient rms            0.00056555     0.00006667    F
gradient max                        0.00175235
gradient rms                        0.00056555
cart. step max                      0.00932388     0.00100000    F
cart. step rms                      0.00387523     0.00066667    F
 
 
--------
Geometry
--------
Formula: H4ClO4Pa
Atoms
  Index Symbol   x (angstrom)   y (angstrom)   z (angstrom)
      1     Pa     0.33038214     0.15805628     0.01918685
      2      O     0.95575730     1.38325632    -1.57135610
      3      H     1.14837431     2.10650057    -2.17023518
      4      O    -0.74782253     1.24337813     1.05010179
      5      H    -1.03411175    -2.50398292     0.75393928
      6      O    -0.04351625    -1.49718480    -1.29865987
      7      H     0.14982019    -1.79512218    -2.19215338
      8      O    -0.86709809    -1.74213747     1.32328530
      9      H    -1.55999478    -1.68693721     1.98945613
     10     Cl     2.64254592    -0.43726937     1.10677057
 
Total System Charge             0.00000
Bonding info available!
 
 *** GO1_GOStep24 ***



 ======================
 RI Hartree-Fock Scheme
 ======================
  
 Fit Set Quality     : GOOD
 Threshold Quality   : GOOD
 Integration Quality : GOOD
 Response Quality    : DEFAULT
 Is Range Separated  :  F
 
 RIHartreeFock Dependency: number of modified vectors:           5
  
 Hartree-Fock exchange energy:   -528.278449116940     

 Energy gradients wrt nuclear displacements
 ==========================================

     Atom      Cartesian (a.u./angstrom)
                 X         Y         Z
 ----------------------------------------
     1 Pa    0.000974 -0.000606 -0.001654
     2 O     0.000410 -0.000250  0.000868
     3 H    -0.000303 -0.000190 -0.000528
     4 O    -0.000627  0.000807  0.000817
     5 H    -0.000305  0.000086  0.000018
     6 O    -0.000311  0.000202  0.000117
     7 H    -0.000221 -0.000194 -0.000151
     8 O     0.000390  0.000437  0.000453
     9 H    -0.000165 -0.000094  0.000018
    10 Cl    0.000159 -0.000198  0.000042
 ----------------------------------------
 Mulliken charges used for AMS results%charges...

 dE(predicted):    -0.78357E-05, dE(actual):    -0.62518E-04, Trust radius:    0.160000, all in a.u.
 
----------------------------------------------------------------------
Geometry Convergence after Step  24       (Hartree/Angstrom,Angstrom)
----------------------------------------------------------------------
current energy                               -2.64192855 Hartree
energy change                      -0.00006252     0.00001000    F
constrained gradient max            0.00162727     0.00010000    F
constrained gradient rms            0.00051065     0.00006667    F
gradient max                        0.00162727
gradient rms                        0.00051065
cart. step max                      0.01707559     0.00100000    F
cart. step rms                      0.00754902     0.00066667    F
 
 
--------
Geometry
--------
Formula: H4ClO4Pa
Atoms
  Index Symbol   x (angstrom)   y (angstrom)   z (angstrom)
      1     Pa     0.32663423     0.15882313     0.01393665
      2      O     0.95321663     1.38060513    -1.58011243
      3      H     1.15185537     2.11594652    -2.16211380
      4      O    -0.73609139     1.25572743     1.04722650
      5      H    -1.03754720    -2.50726253     0.75595588
      6      O    -0.03928563    -1.50103612    -1.29992332
      7      H     0.15221618    -1.79988661    -2.19373215
      8      O    -0.88104451    -1.73506761     1.31452255
      9      H    -1.55092733    -1.70401280     2.00570061
     10     Cl     2.63531013    -0.43527918     1.10887489
 
Total System Charge             0.00000
Bonding info available!
 
 *** GO1_GOStep25 ***



 ======================
 RI Hartree-Fock Scheme
 ======================
  
 Fit Set Quality     : GOOD
 Threshold Quality   : GOOD
 Integration Quality : GOOD
 Response Quality    : DEFAULT
 Is Range Separated  :  F
 
 RIHartreeFock Dependency: number of modified vectors:           5
  
 Hartree-Fock exchange energy:   -528.278744155486     

 Energy gradients wrt nuclear displacements
 ==========================================

     Atom      Cartesian (a.u./angstrom)
                 X         Y         Z
 ----------------------------------------
     1 Pa    0.000628 -0.000489 -0.000969
     2 O     0.000382 -0.000102  0.000462
     3 H    -0.000190 -0.000122 -0.000418
     4 O    -0.000267  0.000489  0.000460
     5 H    -0.000652 -0.000335 -0.000091
     6 O    -0.000285  0.000243  0.000329
     7 H    -0.000259 -0.000346 -0.000465
     8 O     0.001266  0.001264  0.000278
     9 H    -0.000737 -0.000463  0.000362
    10 Cl    0.000113 -0.000139  0.000053
 ----------------------------------------
 Mulliken charges used for AMS results%charges...

 dE(predicted):    -0.12849E-04, dE(actual):    -0.44364E-04, Trust radius:    0.320000, all in a.u.
 
----------------------------------------------------------------------
Geometry Convergence after Step  25       (Hartree/Angstrom,Angstrom)
----------------------------------------------------------------------
current energy                               -2.64197291 Hartree
energy change                      -0.00004436     0.00001000    F
constrained gradient max            0.00128430     0.00010000    F
constrained gradient rms            0.00050781     0.00006667    F
gradient max                        0.00128430
gradient rms                        0.00050781
cart. step max                      0.02625476     0.00100000    F
cart. step rms                      0.01138262     0.00066667    F
 
 
--------
Geometry
--------
Formula: H4ClO4Pa
Atoms
  Index Symbol   x (angstrom)   y (angstrom)   z (angstrom)
      1     Pa     0.31740756     0.16119443     0.00598797
      2      O     0.94756487     1.37640528    -1.59252459
      3      H     1.16427938     2.12573038    -2.14972365
      4      O    -0.72226443     1.27394960     1.04318455
      5      H    -1.03964664    -2.51239214     0.76017558
      6      O    -0.03653345    -1.50564415    -1.30188738
      7      H     0.15529881    -1.80432176    -2.19561719
      8      O    -0.90210640    -1.72448561     1.30101705
      9      H    -1.53248266    -1.73026756     2.02874079
     10     Cl     2.62281945    -0.43161109     1.11098224
 
Total System Charge             0.00000
Bonding info available!
 
 *** GO1_GOStep26 ***



 ======================
 RI Hartree-Fock Scheme
 ======================
  
 Fit Set Quality     : GOOD
 Threshold Quality   : GOOD
 Integration Quality : GOOD
 Response Quality    : DEFAULT
 Is Range Separated  :  F
 
 RIHartreeFock Dependency: number of modified vectors:           5
  
 Hartree-Fock exchange energy:   -528.280356558338     

 Energy gradients wrt nuclear displacements
 ==========================================

     Atom      Cartesian (a.u./angstrom)
                 X         Y         Z
 ----------------------------------------
     1 Pa   -0.000571  0.000418 -0.000293
     2 O     0.000113 -0.000194  0.000263
     3 H     0.000042 -0.000112 -0.000139
     4 O     0.000522 -0.000264 -0.000312
     5 H    -0.001237 -0.000215  0.000622
     6 O    -0.000156  0.000022  0.000035
     7 H    -0.000408 -0.000309 -0.000269
     8 O     0.002028  0.002114 -0.000019
     9 H    -0.000827 -0.001306 -0.000144
    10 Cl    0.000495 -0.000154  0.000256
 ----------------------------------------
 Mulliken charges used for AMS results%charges...

 dE(predicted):    -0.10135E-04, dE(actual):    -0.17320E-04, Trust radius:    0.640000, all in a.u.
 
----------------------------------------------------------------------
Geometry Convergence after Step  26       (Hartree/Angstrom,Angstrom)
----------------------------------------------------------------------
current energy                               -2.64199023 Hartree
energy change                      -0.00001732     0.00001000    F
constrained gradient max            0.00205198     0.00010000    F
constrained gradient rms            0.00069487     0.00006667    F
gradient max                        0.00205198
gradient rms                        0.00069487
cart. step max                      0.00742262     0.00100000    F
cart. step rms                      0.00260379     0.00066667    F
 
 
--------
Geometry
--------
Formula: H4ClO4Pa
Atoms
  Index Symbol   x (angstrom)   y (angstrom)   z (angstrom)
      1     Pa     0.31622515     0.16075092     0.00399681
      2      O     0.94770613     1.37503803    -1.59590423
      3      H     1.16546932     2.13199364    -2.14230102
      4      O    -0.72181789     1.27646225     1.03951022
      5      H    -1.03599292    -2.51328393     0.76036616
      6      O    -0.03666886    -1.50854904    -1.30115039
      7      H     0.15503748    -1.80699109    -2.19489857
      8      O    -0.90463653    -1.72351568     1.30021553
      9      H    -1.53077993    -1.72963920     2.03165414
     10     Cl     2.61979451    -0.43370854     1.10884672
 
Total System Charge             0.00000
Bonding info available!
 
 *** GO1_GOStep27 ***



 ======================
 RI Hartree-Fock Scheme
 ======================
  
 Fit Set Quality     : GOOD
 Threshold Quality   : GOOD
 Integration Quality : GOOD
 Response Quality    : DEFAULT
 Is Range Separated  :  F
 
 RIHartreeFock Dependency: number of modified vectors:           5
  
 Hartree-Fock exchange energy:   -528.280366926124     

 Energy gradients wrt nuclear displacements
 ==========================================

     Atom      Cartesian (a.u./angstrom)
                 X         Y         Z
 ----------------------------------------
     1 Pa   -0.000254  0.000290  0.000249
     2 O     0.000174  0.000014 -0.000153
     3 H     0.000092 -0.000089 -0.000016
     4 O     0.000515 -0.000282 -0.000425
     5 H    -0.000596 -0.000309 -0.000139
     6 O    -0.000117 -0.000079 -0.000120
     7 H    -0.000458 -0.000236 -0.000098
     8 O     0.001295  0.001295  0.000221
     9 H    -0.000766 -0.000508  0.000442
    10 Cl    0.000116 -0.000096  0.000038
 ----------------------------------------
 Mulliken charges used for AMS results%charges...

 dE(predicted):    -0.57004E-05, dE(actual):    -0.18270E-04, Trust radius:    0.640000, all in a.u.
 
----------------------------------------------------------------------
Geometry Convergence after Step  27       (Hartree/Angstrom,Angstrom)
----------------------------------------------------------------------
current energy                               -2.64200850 Hartree
energy change                      -0.00001827     0.00001000    F
constrained gradient max            0.00132140     0.00010000    F
constrained gradient rms            0.00043643     0.00006667    F
gradient max                        0.00132140
gradient rms                        0.00043643
cart. step max                      0.01199328     0.00100000    F
cart. step rms                      0.00521550     0.00066667    F
 
 
--------
Geometry
--------
Formula: H4ClO4Pa
Atoms
  Index Symbol   x (angstrom)   y (angstrom)   z (angstrom)
      1     Pa     0.31007047     0.16235485     0.00294107
      2      O     0.93964576     1.37509642    -1.59890158
      3      H     1.16768131     2.13012318    -2.14360080
      4      O    -0.71316110     1.28272435     1.04732374
      5      H    -1.03478104    -2.51646976     0.76295590
      6      O    -0.03158057    -1.50942853    -1.30137597
      7      H     0.16644106    -1.80540782    -2.19438632
      8      O    -0.91662982    -1.71913230     1.29387497
      9      H    -1.52733270    -1.73372537     2.03746163
     10     Cl     2.61398311    -0.43757766     1.10404274
 
Total System Charge             0.00000
Bonding info available!
 
 *** GO1_GOStep28 ***



 ======================
 RI Hartree-Fock Scheme
 ======================
  
 Fit Set Quality     : GOOD
 Threshold Quality   : GOOD
 Integration Quality : GOOD
 Response Quality    : DEFAULT
 Is Range Separated  :  F
 
 RIHartreeFock Dependency: number of modified vectors:           5
  
 Hartree-Fock exchange energy:   -528.281773205122     

 Energy gradients wrt nuclear displacements
 ==========================================

     Atom      Cartesian (a.u./angstrom)
                 X         Y         Z
 ----------------------------------------
     1 Pa   -0.000837  0.000691  0.000417
     2 O     0.000058  0.000003 -0.000104
     3 H     0.000157 -0.000252  0.000088
     4 O     0.000851 -0.000492 -0.000647
     5 H    -0.000209  0.000309 -0.000100
     6 O     0.000098 -0.000238 -0.000520
     7 H    -0.000541 -0.000083  0.000267
     8 O     0.000398  0.000272  0.000627
     9 H    -0.000168 -0.000062 -0.000068
    10 Cl    0.000194 -0.000148  0.000040
 ----------------------------------------
 Mulliken charges used for AMS results%charges...

[...]
    30          3885.5794             190.5952

 Zero-point energy (Hartree):     0.0514

 ------------
 Normal Modes
 ------------

 Number of removed rigid normal modes: 6
 
 Mode:     7      Frequency (cm-1):       29.8623     Intensity (km/mol):       25.3241
 Index  Atom      ---- Displacements (x/y/z) ----
     1    Pa       0.006900  -0.017691   0.004448
     2     O      -0.129110   0.060203  -0.006822
     3     H      -0.233578   0.146589   0.067961
     4     O       0.059966  -0.038667   0.082466
     5     H      -0.305483   0.031393   0.181341
     6     O       0.155891  -0.030867   0.009569
     7     H       0.242553  -0.058898   0.043007
     8     O      -0.233913   0.142225  -0.063714
     9     H      -0.665348   0.363086  -0.101422
    10    Cl       0.049451   0.042198  -0.044721
 
 Mode:     8      Frequency (cm-1):       41.6986     Intensity (km/mol):        4.6649
 Index  Atom      ---- Displacements (x/y/z) ----
     1    Pa      -0.002977  -0.008559  -0.023854
     2     O       0.045228   0.118829   0.098663
     3     H       0.060560   0.140361   0.140275
     4     O      -0.070356  -0.093114   0.016828
     5     H       0.180121  -0.053400   0.666515
     6     O       0.044073   0.053909  -0.070733
     7     H      -0.001064  -0.092254  -0.028723
     8     O       0.078636   0.104561   0.207890
     9     H      -0.061912   0.548327   0.223572
    10    Cl      -0.030085  -0.043347   0.013168
 
 Mode:     9      Frequency (cm-1):       75.5013     Intensity (km/mol):        4.3589
 Index  Atom      ---- Displacements (x/y/z) ----
     1    Pa       0.010091  -0.021308   0.023390
     2     O       0.218694  -0.041299   0.130971
     3     H       0.336142  -0.142303   0.042351
     4     O      -0.252146  -0.070344  -0.157181
     5     H      -0.368100  -0.021440   0.012192
     6     O      -0.241657   0.085233  -0.074040
     7     H      -0.351384   0.068816  -0.096479
     8     O      -0.111078   0.045229  -0.022982
     9     H      -0.536571   0.074078  -0.075019
    10    Cl       0.136486   0.132771  -0.094801
 
 Mode:    10      Frequency (cm-1):       95.5903     Intensity (km/mol):        1.4753
 Index  Atom      ---- Displacements (x/y/z) ----
     1    Pa      -0.042129   0.021972   0.014174
     2     O       0.233756  -0.075749   0.077133
     3     H       0.480906  -0.194378   0.031459
     4     O      -0.040693   0.056456  -0.022471
     5     H       0.193234  -0.014998   0.035988
     6     O       0.270915  -0.098602   0.110921
     7     H       0.622412  -0.186793   0.237760
     8     O       0.015348  -0.040639   0.006662
     9     H      -0.041013  -0.046501  -0.000778
    10    Cl       0.022909  -0.059892  -0.181203
 
 Mode:    11      Frequency (cm-1):      103.2753     Intensity (km/mol):        6.1113
 Index  Atom      ---- Displacements (x/y/z) ----
     1    Pa       0.039028   0.034841   0.028545
     2     O      -0.250682   0.023539  -0.119873
     3     H      -0.624573  -0.018901  -0.385345
     4     O      -0.410697  -0.054268  -0.288130
     5     H       0.072307   0.040974  -0.008683
     6     O       0.068592  -0.024806   0.111787
     7     H      -0.038043  -0.022620   0.083379
     8     O       0.018558   0.036315  -0.026625
     9     H      -0.185701   0.025698  -0.053636
    10    Cl       0.027165  -0.222126  -0.030424
 
 Mode:    12      Frequency (cm-1):      143.7902     Intensity (km/mol):       27.4689
 Index  Atom      ---- Displacements (x/y/z) ----
     1    Pa       0.007592   0.027269  -0.008352
     2     O       0.036875  -0.120014  -0.111952
     3     H       0.372903  -0.544556  -0.572347
     4     O      -0.081848  -0.266291   0.239709
     5     H       0.043644  -0.018250   0.084182
     6     O      -0.037664  -0.012606   0.045701
     7     H       0.006354  -0.021218   0.061452
     8     O       0.012163   0.029900  -0.057419
     9     H      -0.128981   0.170824  -0.064877
    10    Cl      -0.026397   0.000529   0.016272
 
 Mode:    13      Frequency (cm-1):      155.5431     Intensity (km/mol):       10.3977
 Index  Atom      ---- Displacements (x/y/z) ----
     1    Pa       0.012004   0.006118  -0.023379
     2     O       0.032190   0.178917   0.115093
     3     H      -0.006564   0.317910   0.303477
     4     O      -0.025862  -0.086902   0.037322
     5     H      -0.066045   0.136582  -0.320271
     6     O      -0.106506  -0.199248   0.214925
     7     H      -0.212140  -0.521393   0.304993
     8     O      -0.034865   0.028880  -0.028563
     9     H       0.252895  -0.223903  -0.011785
    10    Cl      -0.016622   0.003803  -0.008461
 
 Mode:    14      Frequency (cm-1):      231.6533     Intensity (km/mol):       87.3736
 Index  Atom      ---- Displacements (x/y/z) ----
     1    Pa      -0.009541  -0.007981   0.007230
     2     O       0.010065  -0.003688   0.000991
     3     H      -0.054874   0.132163   0.170821
     4     O       0.029451   0.046382  -0.000530
     5     H       0.069198   0.001785   0.031965
     6     O      -0.057651  -0.047621   0.032610
     7     H       0.055261   0.016192   0.039367
     8     O       0.251999   0.107563  -0.145122
     9     H      -0.838867   0.232130  -0.274643
    10    Cl      -0.021761  -0.005235   0.004421
 
 Mode:    15      Frequency (cm-1):      251.2102     Intensity (km/mol):       10.8229
 Index  Atom      ---- Displacements (x/y/z) ----
     1    Pa       0.012524   0.015431  -0.008428
     2     O       0.002338   0.007776  -0.024382
     3     H      -0.018245   0.097742   0.100094
     4     O       0.025135   0.019816   0.000740
     5     H       0.111055  -0.328851   0.405902
     6     O      -0.040679  -0.002551   0.058193
     7     H      -0.096105  -0.083488   0.072918
     8     O      -0.052414  -0.232600   0.062393
     9     H      -0.777371   0.001939  -0.012041
    10    Cl      -0.030231   0.002001  -0.004994
 
 Mode:    16      Frequency (cm-1):      271.7734     Intensity (km/mol):      116.3951
 Index  Atom      ---- Displacements (x/y/z) ----
     1    Pa      -0.003141  -0.004702  -0.002575
     2     O      -0.069404   0.089571   0.095090
     3     H       0.385399  -0.557561  -0.632924
     4     O       0.040177   0.056851  -0.034993
     5     H       0.053055  -0.018841   0.023659
     6     O       0.007746  -0.003183  -0.003939
     7     H      -0.157731  -0.253980   0.045141
     8     O       0.010151  -0.012342  -0.017634
     9     H      -0.119686   0.009797  -0.032097
    10    Cl       0.021290  -0.005160   0.016578
 
 Mode:    17      Frequency (cm-1):      292.1640     Intensity (km/mol):       19.9167
 Index  Atom      ---- Displacements (x/y/z) ----
     1    Pa       0.036855  -0.011809   0.019488
     2     O      -0.024217   0.028202   0.017498
     3     H       0.015454  -0.171725  -0.260127
     4     O      -0.011760  -0.009016  -0.018254
     5     H      -0.704157   0.054446  -0.359586
     6     O       0.045735  -0.003682  -0.050496
     7     H      -0.047587   0.056401  -0.096379
     8     O       0.053525   0.031890   0.099742
     9     H      -0.170639  -0.351949   0.039711
    10    Cl      -0.246307   0.068241  -0.131440
 
 Mode:    18      Frequency (cm-1):      310.6610     Intensity (km/mol):       61.1972
 Index  Atom      ---- Displacements (x/y/z) ----
     1    Pa      -0.008672   0.006621  -0.011068
     2     O      -0.008087   0.007113  -0.009232
     3     H       0.052367   0.001495   0.014817
     4     O      -0.000735  -0.019706   0.012903
     5     H      -0.670193   0.000479  -0.299286
     6     O      -0.010441   0.012228  -0.027713
     7     H       0.458757  -0.113781   0.144492
     8     O       0.045293  -0.005692   0.094143
     9     H      -0.277768  -0.342247   0.025628
    10    Cl       0.057977  -0.027887   0.044357
 
 Mode:    19      Frequency (cm-1):      336.0689     Intensity (km/mol):      107.6735
 Index  Atom      ---- Displacements (x/y/z) ----
     1    Pa       0.006448  -0.003482   0.004728
     2     O       0.013659   0.000592   0.015057
     3     H      -0.350185  -0.019648  -0.210944
     4     O       0.004851   0.007054  -0.007999
     5     H       0.223984  -0.005599   0.095590
     6     O      -0.084340   0.038965  -0.033460
     7     H       0.691411  -0.382565   0.330876
     8     O      -0.017154  -0.007513  -0.028513
     9     H       0.127646   0.102362  -0.001184
    10    Cl      -0.024610   0.013923  -0.012295
 
 Mode:    20      Frequency (cm-1):      372.0122     Intensity (km/mol):      311.4994
 Index  Atom      ---- Displacements (x/y/z) ----
     1    Pa      -0.007475   0.001439  -0.002196
     2     O       0.075085  -0.036084   0.017260
     3     H      -0.640856   0.040218  -0.253297
     4     O       0.010622  -0.002293   0.026706
     5     H      -0.098435   0.014712  -0.087375
     6     O       0.062837   0.051757  -0.006247
     7     H      -0.506366  -0.466305   0.033909
     8     O       0.017507   0.002095   0.002709
     9     H      -0.088895  -0.086534  -0.017532
    10    Cl       0.011894  -0.002238   0.005366
 
 Mode:    21      Frequency (cm-1):      388.3099     Intensity (km/mol):      131.9880
 Index  Atom      ---- Displacements (x/y/z) ----
     1    Pa       0.002848  -0.002670   0.005333
     2     O      -0.058673  -0.034036  -0.057078
     3     H       0.501076   0.083650   0.422324
     4     O      -0.014113   0.000515  -0.006321
     5     H       0.056426   0.034663  -0.046023
     6     O       0.022333   0.093213  -0.019616
     7     H      -0.165924  -0.679973   0.217331
     8     O       0.005410   0.011028  -0.016236
     9     H       0.024680  -0.028017  -0.016236
    10    Cl      -0.010210   0.002290  -0.006480
 
 Mode:    22      Frequency (cm-1):      488.5571     Intensity (km/mol):       34.6157
 Index  Atom      ---- Displacements (x/y/z) ----
     1    Pa       0.001120   0.001950  -0.000624
     2     O      -0.006746  -0.012353   0.010649
     3     H      -0.011062  -0.007325   0.015281
     4     O       0.002424  -0.021948   0.005750
     5     H       0.670244   0.321614  -0.264341
     6     O      -0.002703  -0.031294  -0.060353
     7     H       0.019814   0.010190  -0.069820
     8     O      -0.032460   0.046348   0.066959
     9     H      -0.359197  -0.478876  -0.013084
    10    Cl       0.001447   0.000370   0.003169
 
 Mode:    23      Frequency (cm-1):      540.7302     Intensity (km/mol):      161.2396
 Index  Atom      ---- Displacements (x/y/z) ----
     1    Pa      -0.010516  -0.039312  -0.006250
     2     O       0.100614   0.185260  -0.165400
     3     H       0.094249   0.075207  -0.333545
     4     O       0.024736  -0.026279  -0.028597
     5     H       0.267561   0.186788  -0.218646
     6     O       0.023574   0.323700   0.291907
     7     H       0.117027   0.511227   0.246915
     8     O      -0.004754   0.035534   0.019389
     9     H      -0.140004  -0.309567  -0.022722
    10    Cl      -0.006231   0.009336  -0.002904
 
 Mode:    24      Frequency (cm-1):      601.4551     Intensity (km/mol):      198.8172
 Index  Atom      ---- Displacements (x/y/z) ----
     1    Pa       0.016455   0.003625  -0.046771
     2     O      -0.195880  -0.319495   0.405112
     3     H      -0.215258  -0.297848   0.435749
     4     O      -0.020415   0.005980   0.033722
     5     H       0.044797   0.070871  -0.098166
     6     O       0.014400   0.218525   0.220454
     7     H       0.143064   0.431874   0.178978
     8     O       0.013497   0.024028  -0.002533
     9     H      -0.037653  -0.105524  -0.019955
    10    Cl      -0.020667   0.005642  -0.005702
 
 Mode:    25      Frequency (cm-1):      862.7176     Intensity (km/mol):      282.5315
 Index  Atom      ---- Displacements (x/y/z) ----
     1    Pa      -0.032002   0.044088   0.034444
     2     O      -0.027096  -0.061398   0.061242
     3     H      -0.057023  -0.031127   0.100909
     4     O       0.506386  -0.613336  -0.547537
     5     H      -0.081732  -0.059366   0.094987
     6     O       0.005147   0.022846   0.016266
     7     H      -0.054145  -0.016308   0.018317
     8     O       0.017299   0.006157  -0.020468
     9     H       0.002212   0.126299  -0.015735
    10    Cl      -0.012567   0.003512  -0.008931
 
 Mode:    26      Frequency (cm-1):     1582.4134     Intensity (km/mol):      117.1036
 Index  Atom      ---- Displacements (x/y/z) ----
     1    Pa       0.000033  -0.000042  -0.000156
     2     O       0.000061   0.000044   0.000073
     3     H       0.000601   0.000083   0.000118
     4     O       0.000524  -0.000412  -0.001002
     5     H       0.073088   0.260824  -0.650214
     6     O       0.001020   0.002674  -0.000207
     7     H       0.000369   0.004301  -0.001194
     8     O      -0.001312  -0.062222   0.041129
     9     H      -0.090814   0.698294   0.048931
    10    Cl       0.000130  -0.000084   0.000095
 
 Mode:    27      Frequency (cm-1):     3768.5317     Intensity (km/mol):       64.1240
 Index  Atom      ---- Displacements (x/y/z) ----
     1    Pa      -0.000015  -0.000026   0.000038
     2     O       0.000026   0.000011  -0.000080
     3     H       0.000464   0.000932  -0.000727
     4     O      -0.000038   0.000122   0.000051
     5     H      -0.148778   0.695581   0.306553
     6     O      -0.000172  -0.000110   0.000369
     7     H       0.002524  -0.002629  -0.009378
     8     O       0.004107  -0.044329   0.019772
     9     H       0.084984   0.014993  -0.624607
    10    Cl       0.000057   0.000010   0.000005
 
 Mode:    28      Frequency (cm-1):     3852.9454     Intensity (km/mol):      155.9874
 Index  Atom      ---- Displacements (x/y/z) ----
     1    Pa      -0.000011  -0.000009  -0.000013
     2     O      -0.000591  -0.001716   0.001119
     3     H       0.010901   0.030880  -0.020045
     4     O       0.000013   0.000151   0.000102
     5     H      -0.000138   0.001295   0.000902
     6     O       0.015250  -0.021385  -0.057092
     7     H      -0.242729   0.336532   0.906756
     8     O      -0.000161  -0.000163   0.000894
     9     H       0.001848   0.000775  -0.013677
    10    Cl       0.000066  -0.000016   0.000043
 
 Mode:    29      Frequency (cm-1):     3871.3755     Intensity (km/mol):      139.9993
 Index  Atom      ---- Displacements (x/y/z) ----
     1    Pa      -0.000003   0.000007   0.000009
     2     O       0.000201   0.000556  -0.000380
     3     H      -0.003239  -0.009092   0.006095
     4     O       0.000037  -0.000078  -0.000072
     5     H      -0.119956   0.574661   0.218517
     6     O       0.000140  -0.000482  -0.000692
     7     H      -0.002153   0.004538   0.009029
     8     O       0.013695  -0.032670  -0.062068
     9     H      -0.097028  -0.052824   0.768163
    10    Cl      -0.000009  -0.000008  -0.000017
 
 Mode:    30      Frequency (cm-1):     3885.5794     Intensity (km/mol):      190.5952
 Index  Atom      ---- Displacements (x/y/z) ----
     1    Pa       0.000005  -0.000007  -0.000009
     2     O      -0.018142  -0.050247   0.033679
     3     H       0.284820   0.796099  -0.528715
     4     O       0.000194  -0.000134  -0.000241
     5     H      -0.001437   0.005513   0.002220
     6     O      -0.000519   0.001049   0.002287
     7     H       0.009308  -0.012930  -0.034319
     8     O       0.000184  -0.000278  -0.000767
     9     H      -0.001395  -0.000649   0.009860
    10    Cl      -0.000064   0.000025  -0.000048

PES point character: Geometry corresponds to a local minimum on the PES.




 ============================
 Statistical Thermal Analysis  ***  ideal gas assumed  ***
 ============================
  
 Pressure:                  1.000000 atm.
 Temperature:             298.150000 K



 Moments of Inertia [amu*bohr^2] and principal axis
 ==================================================

        1166.4804       1308.0825       1592.0323
 ------------------------------------------------
          -0.6745          0.7030         -0.2255
           0.4243          0.6191          0.6609
          -0.6041         -0.3501          0.7158


 The rotational contribution to the molecular entropy includes
 a term, dependent on the symmetry number sigma. The results 
 reported below were computed using sigma = 1, determined from
 the point group symmetry of the input geometry (NOSYM). 
 If this is not the correct symmetry, try symmetrizing the molecule before
 running the calculation (note: linear molecules should be aligned along one
 of the Cartesian axes).
 Contributions from frequencies below 20 1/cm are not included in vibrational sums.
 Their contributions, if any, are reported separately.


     Temp                                                        Transl      Rotat     Vibrat     Total
     ----                                                        ------      -----     ------     -----

     298.15   Entropy (cal/mol-K):                               43.313     29.276     40.480    113.069
              Nuclear Internal Energy (kcal/mol):                 0.889      0.889     38.047     39.825
              Constant Volume Heat Capacity (cal/mol-K):          2.981      2.981     30.956     36.918
          (c) Constant Volume Heat Capacity (cal/mol-K):          2.981      2.981     26.923     32.885

       Summary of energy terms
                                                   hartree              eV         kcal/mol           kJ/mol
                                      --------------------     -----------       ----------      -----------
      Energy from Engine:               -2.642362735080796        -71.9023         -1658.11         -6937.52
      Nuclear Internal Energy:           0.063465071147575          1.7270            39.82           166.63
  (c) Nuclear Internal Energy:           0.061425858449628          1.6715            38.55           161.27
      Internal Energy U:                -2.578897663933221        -70.1754         -1618.28         -6770.89
      pV/n = RT:                         0.000944186013486          0.0257             0.59             2.48
      Enthalpy H:                       -2.577953477919735        -70.1497         -1617.69         -6768.42
      -T*S:                             -0.053722671551479         -1.4619           -33.71          -141.05
  (c) -T*S:                             -0.051586411526704         -1.4037           -32.37          -135.44
      Gibbs free energy:                -2.631676149471214        -71.6116         -1651.40         -6909.46
 
 
 
  (c) The properties marked with this symbol have been corrected using 'low vibrational frequency free rotor
      interpolation corrections'. For those terms all positive frequencies are used (also ones below 20 1/cm),
      but the contribution to the partition function of small vibrational frequencies is modified as described
      in the following paper:
      S. Grimme, 'Supramolecular Binding Thermodynamics by Dispersion-Corrected Density Functional Theory'
      (Chem. Eur. J. 2012, 18, 9955-9964)
      Configuration: Dampener Frequency          :   100.000 1/cm
                     Dampener Alpha              :     4.000
                     Averaging Moment of Inertia : 1.000E-44 kg m2

--------------
Atomic charges
--------------
  Index   Atom    Charge
      1     Pa    2.2286
      2      O   -0.6245
      3      H    0.0328
      4      O   -0.7022
      5      H    0.2471
      6      O   -0.6578
      7      H    0.1021
      8      O   -0.4045
      9      H    0.2228
     10     Cl   -0.4444


Dipole moment vector    (Debye):    -2.90618572   -2.88735024   -1.58730364
              magnitude (Debye):     4.39343142


Final PES point is a local minimum. Geometry optimization successful!


AMS application finished. Exiting.
NORMAL TERMINATION
     Total cpu time:   85574.13
  Total system time:    1536.76
 Total elapsed time:   87111.47
