 Entering Gaussian System, Link 0=/home/pcmt/gaussian/g16.C.01/g16/g16
 AtFile(1): /home/shaaban/basis.gaussian/Pa-def-TZVP
 AtFile(1): /home/shaaban/basis.gaussian/Pa-ECP60MWB
 Initial command:
 /home/pcmt/gaussian/g16.C.01/g16/l1.exe "/state/partition2/shaaban/973037.phlam-s-sakura/Gau-156260.inp" -scrdir="/state/partition2/shaaban/973037.phlam-s-sakura/"
 Entering Link 1 = /home/pcmt/gaussian/g16.C.01/g16/l1.exe PID=    156261.
  
 Copyright (c) 1988-2019, Gaussian, Inc.  All Rights Reserved.
  
 This is part of the Gaussian(R) 16 program.  It is based on
 the Gaussian(R) 09 system (copyright 2009, Gaussian, Inc.),
 the Gaussian(R) 03 system (copyright 2003, Gaussian, Inc.),
 the Gaussian(R) 98 system (copyright 1998, Gaussian, Inc.),
 the Gaussian(R) 94 system (copyright 1995, Gaussian, Inc.),
 the Gaussian 92(TM) system (copyright 1992, Gaussian, Inc.),
 the Gaussian 90(TM) system (copyright 1990, Gaussian, Inc.),
 the Gaussian 88(TM) system (copyright 1988, Gaussian, Inc.),
 the Gaussian 86(TM) system (copyright 1986, Carnegie Mellon
 University), and the Gaussian 82(TM) system (copyright 1983,
 Carnegie Mellon University). Gaussian is a federally registered
 trademark of Gaussian, Inc.
  
 This software contains proprietary and confidential information,
 including trade secrets, belonging to Gaussian, Inc.
  
 This software is provided under written license and may be
 used, copied, transmitted, or stored only in accord with that
 written license.
  
 The following legend is applicable only to US Government
 contracts under FAR:
  
                    RESTRICTED RIGHTS LEGEND
  
 Use, reproduction and disclosure by the US Government is
 subject to restrictions as set forth in subparagraphs (a)
 and (c) of the Commercial Computer Software - Restricted
 Rights clause in FAR 52.227-19.
  
 Gaussian, Inc.
 340 Quinnipiac St., Bldg. 40, Wallingford CT 06492
  
  
 ---------------------------------------------------------------
 Warning -- This program may not be used in any manner that
 competes with the business of Gaussian, Inc. or will provide
 assistance to any competitor of Gaussian, Inc.  The licensee
 of this program is prohibited from giving any competitor of
 Gaussian, Inc. access to this program.  By using this program,
 the user acknowledges that Gaussian, Inc. is engaged in the
 business of creating and licensing software in the field of
 computational chemistry and represents and warrants to the
 licensee that it is not a competitor of Gaussian, Inc. and that
 it will not use this program in any manner prohibited above.
 ---------------------------------------------------------------
  

 Cite this work as:
 Gaussian 16, Revision C.01,
 M. J. Frisch, G. W. Trucks, H. B. Schlegel, G. E. Scuseria, 
 M. A. Robb, J. R. Cheeseman, G. Scalmani, V. Barone, 
 G. A. Petersson, H. Nakatsuji, X. Li, M. Caricato, A. V. Marenich, 
 J. Bloino, B. G. Janesko, R. Gomperts, B. Mennucci, H. P. Hratchian, 
 J. V. Ortiz, A. F. Izmaylov, J. L. Sonnenberg, D. Williams-Young, 
 F. Ding, F. Lipparini, F. Egidi, J. Goings, B. Peng, A. Petrone, 
 T. Henderson, D. Ranasinghe, V. G. Zakrzewski, J. Gao, N. Rega, 
 G. Zheng, W. Liang, M. Hada, M. Ehara, K. Toyota, R. Fukuda, 
 J. Hasegawa, M. Ishida, T. Nakajima, Y. Honda, O. Kitao, H. Nakai, 
 T. Vreven, K. Throssell, J. A. Montgomery, Jr., J. E. Peralta, 
 F. Ogliaro, M. J. Bearpark, J. J. Heyd, E. N. Brothers, K. N. Kudin, 
 V. N. Staroverov, T. A. Keith, R. Kobayashi, J. Normand, 
 K. Raghavachari, A. P. Rendell, J. C. Burant, S. S. Iyengar, 
 J. Tomasi, M. Cossi, J. M. Millam, M. Klene, C. Adamo, R. Cammi, 
 J. W. Ochterski, R. L. Martin, K. Morokuma, O. Farkas, 
 J. B. Foresman, and D. J. Fox, Gaussian, Inc., Wallingford CT, 2019.
 
 ******************************************
 Gaussian 16:  ES64L-G16RevC.01  3-Jul-2019
                 4-Jul-2023 
 ******************************************
 %mem=16Gb
 %NProc=8
 Will use up to    8 processors via shared memory.
 %chk=pao_oh2_f_h2o-bp86-cosmors-deftzvp-klamt.chk
 ----------------------------------------------------------------------
 #p BP86/GEN Pseudo=Read GFInput GFPrint IOP(6/7=3) Symm=(Loose) Int=(U
 ltraFine) Guess=(Harris) SCRF=(COSMORS) Scf=(NoVarAcc,MaxCycle=100,con
 ver=8)
 ----------------------------------------------------------------------
 1/38=1,172=1/1;
 2/12=2,17=4,18=3,40=1/2;
 3/5=7,11=2,16=1,17=8,24=110,25=1,30=1,70=12101,74=404,75=-5/1,2,3;
 4/11=8/1;
 5/5=2,6=8,7=100,38=1/2;
 6/7=3,8=2,9=2,10=2,28=1/1;
 99/5=1,9=1/99;
 Leave Link    1 at Tue Jul  4 13:37:02 2023, MaxMem=  2147483648 cpu:               0.7 elap:               0.1
 (Enter /home/pcmt/gaussian/g16.C.01/g16/l101.exe)
 -------------------------------------------------------------------
 pao_oh2_f_h2o-bp86-cosmors-deftzvp-klamt.com SGP in PCM calculation
 -------------------------------------------------------------------
 Symbolic Z-matrix:
 Charge =  0 Multiplicity = 1
 Pa                   -0.19697   0.06054   0.82873 
 O                     1.11259   1.46961  -0.14218 
 O                    -1.79432   0.80735  -0.34577 
 F                    -0.72991   1.35145   2.50441 
 H                    -1.93978   1.62813  -0.83442 
 O                     0.0593   -1.6472   -1.0086 
 H                    -0.36449  -1.61425  -1.87613 
 H                     0.76748  -2.30186  -1.06225 
 H                     2.06442   1.55221  -0.01219 
 O                     1.1404   -0.88479   1.73322 
 
 ITRead=  0  0  0  0  0  0  0  0  0  0
 MicOpt= -1 -1 -1 -1 -1 -1 -1 -1 -1 -1
 NAtoms=     10 NQM=       10 NQMF=       0 NMMI=      0 NMMIF=      0
                NMic=       0 NMicF=      0.
                    Isotopes and Nuclear Properties:
 (Nuclear quadrupole moments (NQMom) in fm**2, nuclear magnetic moments (NMagM)
  in nuclear magnetons)

  Atom         1           2           3           4           5           6           7           8           9          10
 IAtWgt=         231          16          16          19           1          16           1           1           1          16
 AtmWgt= 231.0359000  15.9949146  15.9949146  18.9984032   1.0078250  15.9949146   1.0078250   1.0078250   1.0078250  15.9949146
 NucSpn=           3           0           0           1           1           0           1           1           1           0
 AtZEff=  -0.0000000  -0.0000000  -0.0000000  -0.0000000  -0.0000000  -0.0000000  -0.0000000  -0.0000000  -0.0000000  -0.0000000
 NQMom= -172.0000000   0.0000000   0.0000000   0.0000000   0.0000000   0.0000000   0.0000000   0.0000000   0.0000000   0.0000000
 NMagM=    2.0100000   0.0000000   0.0000000   2.6288670   2.7928460   0.0000000   2.7928460   2.7928460   2.7928460   0.0000000
 AtZNuc=  91.0000000   8.0000000   8.0000000   9.0000000   1.0000000   8.0000000   1.0000000   1.0000000   1.0000000   8.0000000
 Leave Link  101 at Tue Jul  4 13:37:02 2023, MaxMem=  2147483648 cpu:               0.8 elap:               0.1
 (Enter /home/pcmt/gaussian/g16.C.01/g16/l202.exe)
                          Input orientation:                          
 ---------------------------------------------------------------------
 Center     Atomic      Atomic             Coordinates (Angstroms)
 Number     Number       Type             X           Y           Z
 ---------------------------------------------------------------------
      1         91           0       -0.196969    0.060540    0.828726
      2          8           0        1.112588    1.469613   -0.142180
      3          8           0       -1.794321    0.807350   -0.345772
      4          9           0       -0.729913    1.351451    2.504414
      5          1           0       -1.939782    1.628126   -0.834416
      6          8           0        0.059300   -1.647196   -1.008597
      7          1           0       -0.364488   -1.614249   -1.876134
      8          1           0        0.767483   -2.301857   -1.062253
      9          1           0        2.064418    1.552212   -0.012188
     10          8           0        1.140396   -0.884792    1.733221
 ---------------------------------------------------------------------
                    Distance matrix (angstroms):
                    1          2          3          4          5
     1  Pa   0.000000
     2  O    2.154782   0.000000
     3  O    2.118656   2.988338   0.000000
     4  F    2.181378   3.226955   3.090723   0.000000
     5  H    2.874154   3.133892   0.966232   3.562038   0.000000
     6  O    2.521466   3.402145   3.146433   4.685721   3.841145
     7  H    3.185788   3.833869   3.201651   5.302651   3.752295
     8  H    3.175986   3.897386   4.091864   5.320711   4.777652
     9  H    2.836564   0.964209   3.944104   3.765883   4.088451
    10  O    1.870912   3.010170   3.974685   3.015556   4.732337
                    6          7          8          9         10
     6  O    0.000000
     7  H    0.966076   0.000000
     8  H    0.965911   1.554531   0.000000
     9  H    3.905066   4.404583   4.199824   0.000000
    10  O    3.044272   3.977967   3.156233   3.136759   0.000000
 Stoichiometry    FH4O4Pa
 Framework group  C1[X(FH4O4Pa)]
 Deg. of freedom    24
 Full point group                 C1      NOp   1
 Largest Abelian subgroup         C1      NOp   1
 Largest concise Abelian subgroup C1      NOp   1
                         Standard orientation:                         
 ---------------------------------------------------------------------
 Center     Atomic      Atomic             Coordinates (Angstroms)
 Number     Number       Type             X           Y           Z
 ---------------------------------------------------------------------
      1         91           0       -0.066824   -0.052343   -0.113122
      2          8           0       -0.057764    0.175859    2.029522
      3          8           0        0.057860    2.055143   -0.291057
      4          9           0       -2.235653   -0.015985   -0.343921
      5          1           0       -0.139850    2.790481    0.303748
      6          8           0        2.449317    0.010573   -0.264342
      7          1           0        3.001705    0.800105   -0.195003
      8          1           0        3.030408   -0.753738   -0.158777
      9          1           0       -0.054830   -0.533810    2.682256
     10          8           0        0.096140   -1.916072   -0.129473
 ---------------------------------------------------------------------
 Rotational constants (GHZ):           2.3218389           1.7357881           1.4568802
 Leave Link  202 at Tue Jul  4 13:37:02 2023, MaxMem=  2147483648 cpu:               0.1 elap:               0.0
 (Enter /home/pcmt/gaussian/g16.C.01/g16/l301.exe)
 General basis read from cards:  (5D, 7F)
 Centers:       1
 S 3 1.00
     Exponent=  1.2047376000D+04 Coefficients=  3.4500000000D-04
     Exponent=  1.8116841000D+03 Coefficients=  2.7420000000D-03
     Exponent=  3.4770104000D+02 Coefficients=  1.0053000000D-02
 S 1 1.00
     Exponent=  9.8678010000D+01 Coefficients=  1.0000000000D+00
 S 3 1.00
     Exponent=  5.7507376000D+01 Coefficients=  5.1528000000D-02
     Exponent=  3.3502601000D+01 Coefficients= -2.3692400000D-01
     Exponent=  1.9554451000D+01 Coefficients=  7.1904800000D-01
 S 1 1.00
     Exponent=  9.7164210000D+00 Coefficients=  1.0000000000D+00
 S 1 1.00
     Exponent=  2.6920960000D+00 Coefficients=  1.0000000000D+00
 S 1 1.00
     Exponent=  1.4538470000D+00 Coefficients=  1.0000000000D+00
 S 1 1.00
     Exponent=  5.7435200000D-01 Coefficients=  1.0000000000D+00
 S 1 1.00
     Exponent=  2.6346800000D-01 Coefficients=  1.0000000000D+00
 S 1 1.00
     Exponent=  5.6557000000D-02 Coefficients=  1.0000000000D+00
 S 1 1.00
     Exponent=  2.3169000000D-02 Coefficients=  1.0000000000D+00
 P 5 1.00
     Exponent=  2.9033676000D+03 Coefficients=  3.5000000000D-05
     Exponent=  6.4486356000D+02 Coefficients=  2.0500000000D-04
     Exponent=  2.2025896000D+02 Coefficients=  1.2510000000D-03
     Exponent=  8.0276401000D+01 Coefficients=  2.4570000000D-03
     Exponent=  2.4080211000D+01 Coefficients=  1.1190000000D-02
 P 1 1.00
     Exponent=  1.4077580000D+01 Coefficients=  1.0000000000D+00
 P 1 1.00
     Exponent=  8.2658460000D+00 Coefficients=  1.0000000000D+00
 P 1 1.00
     Exponent=  3.5948000000D+00 Coefficients=  1.0000000000D+00
 P 1 1.00
     Exponent=  1.7531110000D+00 Coefficients=  1.0000000000D+00
 P 1 1.00
     Exponent=  6.5776700000D-01 Coefficients=  1.0000000000D+00
 P 1 1.00
     Exponent=  2.8463900000D-01 Coefficients=  1.0000000000D+00
 P 1 1.00
     Exponent=  1.0054300000D-01 Coefficients=  1.0000000000D+00
 P 1 1.00
     Exponent=  3.0190000000D-02 Coefficients=  1.0000000000D+00
 D 6 1.00
     Exponent=  4.4814991000D+02 Coefficients=  2.6000000000D-05
     Exponent=  1.5446145000D+02 Coefficients=  2.2800000000D-04
     Exponent=  6.0925377000D+01 Coefficients=  9.0400000000D-04
     Exponent=  1.7032091000D+01 Coefficients=  2.5647000000D-02
     Exponent=  1.0018877000D+01 Coefficients= -1.0575100000D-01
     Exponent=  3.4091930000D+00 Coefficients=  4.4743200000D-01
 D 1 1.00
     Exponent=  1.6702130000D+00 Coefficients=  1.0000000000D+00
 D 1 1.00
     Exponent=  7.4109500000D-01 Coefficients=  1.0000000000D+00
 D 1 1.00
     Exponent=  2.6139300000D-01 Coefficients=  1.0000000000D+00
 D 1 1.00
     Exponent=  8.2811000000D-02 Coefficients=  1.0000000000D+00
 F 5 1.00
     Exponent=  8.7991327000D+01 Coefficients=  2.2600000000D-04
     Exponent=  2.8340195000D+01 Coefficients=  2.3230000000D-03
     Exponent=  1.2440994000D+01 Coefficients=  4.5850000000D-03
     Exponent=  3.9572960000D+00 Coefficients=  1.5696100000D-01
     Exponent=  1.8759440000D+00 Coefficients=  3.4497700000D-01
 F 1 1.00
     Exponent=  8.2758900000D-01 Coefficients=  1.0000000000D+00
 F 1 1.00
     Exponent=  3.3274800000D-01 Coefficients=  1.0000000000D+00
 F 1 1.00
     Exponent=  1.1468500000D-01 Coefficients=  1.0000000000D+00
 G 1 1.00
     Exponent=  3.5000000000D-01 Coefficients=  1.0000000000D+00
 ****
 Centers:       2      3      6     10
 Def2TZVP
 ****
 Centers:       5      7      8      9
 Def2TZVP
 ****
 Centers:       4
 Def2TZVP
 ****
 ======================================================================================================
                                       Pseudopotential Parameters
 ======================================================================================================
  Center     Atomic      Valence      Angular      Power
  Number     Number     Electrons     Momentum     of R      Exponent        Coefficient   SO-Coeffient
 ======================================================================================================
    1         91           31
                                      H and up 
                                                     2        1.0000000        0.00000000    0.00000000
                                      S - H
                                                     2       15.2691737      475.47573283    0.00000000
                                      P - H
                                                     2        9.9577370      207.66485962    0.00000000
                                      D - H
                                                     2        8.9431413      156.67411988    0.00000000
                                      F - H
                                                     2        7.0104666       67.98223685    0.00000000
                                      G - H
                                                     2       12.2010560      -57.63059989    0.00000000
    2          8
                                   No pseudopotential on this center.
    3          8
                                   No pseudopotential on this center.
    4          9
                                   No pseudopotential on this center.
    5          1
                                   No pseudopotential on this center.
    6          8
                                   No pseudopotential on this center.
    7          1
                                   No pseudopotential on this center.
    8          1
                                   No pseudopotential on this center.
    9          1
                                   No pseudopotential on this center.
   10          8
                                   No pseudopotential on this center.
 ======================================================================================================
 Ernie: Thresh=  0.10000D-02 Tol=  0.10000D-05 Strict=F.
 AO basis set in the form of general basis input (Overlap normalization):
      1 0
 S   3 1.00       0.000000000000
      0.1204737600D+05  0.2857094961D-01
      0.1811684100D+04  0.2270769386D+00
      0.3477010400D+03  0.8325326273D+00
 S   3 1.00       0.000000000000
      0.5750737600D+02  0.9569327984D-01
      0.3350260100D+02 -0.4399944619D+00
      0.1955445100D+02  0.1335352847D+01
 S   1 1.00       0.000000000000
      0.9867801000D+02  0.1000000000D+01
 S   1 1.00       0.000000000000
      0.9716421000D+01  0.1000000000D+01
 S   1 1.00       0.000000000000
      0.2692096000D+01  0.1000000000D+01
 S   1 1.00       0.000000000000
      0.1453847000D+01  0.1000000000D+01
 S   1 1.00       0.000000000000
      0.5743520000D+00  0.1000000000D+01
 S   1 1.00       0.000000000000
      0.2634680000D+00  0.1000000000D+01
 S   1 1.00       0.000000000000
      0.5655700000D-01  0.1000000000D+01
 S   1 1.00       0.000000000000
      0.2316900000D-01  0.1000000000D+01
 P   5 1.00       0.000000000000
      0.2903367600D+04  0.2594222647D-02
      0.6448635600D+03  0.1519473264D-01
      0.2202589600D+03  0.9272492945D-01
      0.8027640100D+02  0.1821144298D+00
      0.2408021100D+02  0.8294100404D+00
 P   1 1.00       0.000000000000
      0.1407758000D+02  0.1000000000D+01
 P   1 1.00       0.000000000000
      0.8265846000D+01  0.1000000000D+01
 P   1 1.00       0.000000000000
      0.3594800000D+01  0.1000000000D+01
 P   1 1.00       0.000000000000
      0.1753111000D+01  0.1000000000D+01
 P   1 1.00       0.000000000000
      0.6577670000D+00  0.1000000000D+01
 P   1 1.00       0.000000000000
      0.2846390000D+00  0.1000000000D+01
 P   1 1.00       0.000000000000
      0.1005430000D+00  0.1000000000D+01
 P   1 1.00       0.000000000000
      0.3019000000D-01  0.1000000000D+01
 D   6 1.00       0.000000000000
      0.4481499100D+03  0.6556927566D-04
      0.1544614500D+03  0.5749921096D-03
      0.6092537700D+02  0.2279793277D-02
      0.1703209100D+02  0.6467904664D-01
      0.1001887700D+02 -0.2666929411D+00
      0.3409193000D+01  0.1128376621D+01
 D   1 1.00       0.000000000000
      0.1670213000D+01  0.1000000000D+01
 D   1 1.00       0.000000000000
      0.7410950000D+00  0.1000000000D+01
 D   1 1.00       0.000000000000
      0.2613930000D+00  0.1000000000D+01
 D   1 1.00       0.000000000000
      0.8281100000D-01  0.1000000000D+01
 F   5 1.00       0.000000000000
      0.8799132700D+02  0.4766318191D-03
      0.2834019500D+02  0.4899184583D-02
      0.1244099400D+02  0.9669720755D-02
      0.3957296000D+01  0.3310292343D+00
      0.1875944000D+01  0.7275531640D+00
 F   1 1.00       0.000000000000
      0.8275890000D+00  0.1000000000D+01
 F   1 1.00       0.000000000000
      0.3327480000D+00  0.1000000000D+01
 F   1 1.00       0.000000000000
      0.1146850000D+00  0.1000000000D+01
 G   1 1.00       0.000000000000
      0.3500000000D+00  0.1000000000D+01
 ****
      2 0
 S   6 1.00       0.000000000000
      0.2703238263D+05  0.5722733521D-03
      0.4052387139D+04  0.4435323349D-02
      0.9223272271D+03  0.2302010771D-01
      0.2612407099D+03  0.9282249067D-01
      0.8535464135D+02  0.2937850001D+00
      0.3103503524D+02  0.6740160450D+00
 S   2 1.00       0.000000000000
      0.1226086073D+02  0.6383993703D+00
      0.4998707601D+01  0.3953458713D+00
 S   1 1.00       0.000000000000
      0.1170310816D+01  0.1000000000D+01
 S   1 1.00       0.000000000000
      0.4647474099D+00  0.1000000000D+01
 S   1 1.00       0.000000000000
      0.1850453636D+00  0.1000000000D+01
 P   4 1.00       0.000000000000
      0.6327495480D+02  0.1201833222D-01
      0.1462704938D+02  0.8300542179D-01
      0.4450122346D+01  0.3199174393D+00
      0.1527579965D+01  0.7071554292D+00
 P   1 1.00       0.000000000000
      0.5293511794D+00  0.1000000000D+01
 P   1 1.00       0.000000000000
      0.1747842127D+00  0.1000000000D+01
 D   1 1.00       0.000000000000
      0.2314000000D+01  0.1000000000D+01
 D   1 1.00       0.000000000000
      0.6450000000D+00  0.1000000000D+01
 F   1 1.00       0.000000000000
      0.1428000000D+01  0.1000000000D+01
 ****
      3 0
 S   6 1.00       0.000000000000
      0.2703238263D+05  0.5722733521D-03
      0.4052387139D+04  0.4435323349D-02
      0.9223272271D+03  0.2302010771D-01
      0.2612407099D+03  0.9282249067D-01
      0.8535464135D+02  0.2937850001D+00
      0.3103503524D+02  0.6740160450D+00
 S   2 1.00       0.000000000000
      0.1226086073D+02  0.6383993703D+00
      0.4998707601D+01  0.3953458713D+00
 S   1 1.00       0.000000000000
      0.1170310816D+01  0.1000000000D+01
 S   1 1.00       0.000000000000
      0.4647474099D+00  0.1000000000D+01
 S   1 1.00       0.000000000000
      0.1850453636D+00  0.1000000000D+01
 P   4 1.00       0.000000000000
      0.6327495480D+02  0.1201833222D-01
      0.1462704938D+02  0.8300542179D-01
      0.4450122346D+01  0.3199174393D+00
      0.1527579965D+01  0.7071554292D+00
 P   1 1.00       0.000000000000
      0.5293511794D+00  0.1000000000D+01
 P   1 1.00       0.000000000000
      0.1747842127D+00  0.1000000000D+01
 D   1 1.00       0.000000000000
      0.2314000000D+01  0.1000000000D+01
 D   1 1.00       0.000000000000
      0.6450000000D+00  0.1000000000D+01
 F   1 1.00       0.000000000000
      0.1428000000D+01  0.1000000000D+01
 ****
      4 0
 S   6 1.00       0.000000000000
      0.3547910044D+05  0.5618499111D-03
      0.5318472898D+04  0.4355197381D-02
      0.1210481098D+04  0.2261824715D-01
      0.3428551814D+03  0.9140305514D-01
      0.1120194318D+03  0.2911687069D+00
      0.4071474025D+02  0.6777270856D+00
 S   2 1.00       0.000000000000
      0.1603967811D+02  0.6329641788D+00
      0.6503818674D+01  0.4013647573D+00
 S   1 1.00       0.000000000000
      0.1544047751D+01  0.1000000000D+01
 S   1 1.00       0.000000000000
      0.6122345286D+00  0.1000000000D+01
 S   1 1.00       0.000000000000
      0.2402797970D+00  0.1000000000D+01
 P   4 1.00       0.000000000000
      0.8023390048D+02  0.1232134514D-01
      0.1859401074D+02  0.8571339535D-01
      0.5686790265D+01  0.3263310550D+00
      0.1951100629D+01  0.6997111464D+00
 P   1 1.00       0.000000000000
      0.6697021130D+00  0.1000000000D+01
 P   1 1.00       0.000000000000
      0.2165130041D+00  0.1000000000D+01
 D   1 1.00       0.000000000000
      0.3107000000D+01  0.1000000000D+01
 D   1 1.00       0.000000000000
      0.8550000000D+00  0.1000000000D+01
 F   1 1.00       0.000000000000
      0.1917000000D+01  0.1000000000D+01
 ****
      5 0
 S   3 1.00       0.000000000000
      0.3406134100D+02  0.2543930721D-01
      0.5123574600D+01  0.1900859489D+00
      0.1164662600D+01  0.8524411301D+00
 S   1 1.00       0.000000000000
      0.3272304100D+00  0.1000000000D+01
 S   1 1.00       0.000000000000
      0.1030724100D+00  0.1000000000D+01
 P   1 1.00       0.000000000000
      0.8000000000D+00  0.1000000000D+01
 ****
      6 0
 S   6 1.00       0.000000000000
      0.2703238263D+05  0.5722733521D-03
      0.4052387139D+04  0.4435323349D-02
      0.9223272271D+03  0.2302010771D-01
      0.2612407099D+03  0.9282249067D-01
      0.8535464135D+02  0.2937850001D+00
      0.3103503524D+02  0.6740160450D+00
 S   2 1.00       0.000000000000
      0.1226086073D+02  0.6383993703D+00
      0.4998707601D+01  0.3953458713D+00
 S   1 1.00       0.000000000000
      0.1170310816D+01  0.1000000000D+01
 S   1 1.00       0.000000000000
      0.4647474099D+00  0.1000000000D+01
 S   1 1.00       0.000000000000
      0.1850453636D+00  0.1000000000D+01
 P   4 1.00       0.000000000000
      0.6327495480D+02  0.1201833222D-01
      0.1462704938D+02  0.8300542179D-01
      0.4450122346D+01  0.3199174393D+00
      0.1527579965D+01  0.7071554292D+00
 P   1 1.00       0.000000000000
      0.5293511794D+00  0.1000000000D+01
 P   1 1.00       0.000000000000
      0.1747842127D+00  0.1000000000D+01
 D   1 1.00       0.000000000000
      0.2314000000D+01  0.1000000000D+01
 D   1 1.00       0.000000000000
      0.6450000000D+00  0.1000000000D+01
 F   1 1.00       0.000000000000
      0.1428000000D+01  0.1000000000D+01
 ****
      7 0
 S   3 1.00       0.000000000000
      0.3406134100D+02  0.2543930721D-01
      0.5123574600D+01  0.1900859489D+00
      0.1164662600D+01  0.8524411301D+00
 S   1 1.00       0.000000000000
      0.3272304100D+00  0.1000000000D+01
 S   1 1.00       0.000000000000
      0.1030724100D+00  0.1000000000D+01
 P   1 1.00       0.000000000000
      0.8000000000D+00  0.1000000000D+01
 ****
      8 0
 S   3 1.00       0.000000000000
      0.3406134100D+02  0.2543930721D-01
      0.5123574600D+01  0.1900859489D+00
      0.1164662600D+01  0.8524411301D+00
 S   1 1.00       0.000000000000
      0.3272304100D+00  0.1000000000D+01
 S   1 1.00       0.000000000000
      0.1030724100D+00  0.1000000000D+01
 P   1 1.00       0.000000000000
      0.8000000000D+00  0.1000000000D+01
 ****
      9 0
 S   3 1.00       0.000000000000
      0.3406134100D+02  0.2543930721D-01
      0.5123574600D+01  0.1900859489D+00
      0.1164662600D+01  0.8524411301D+00
 S   1 1.00       0.000000000000
      0.3272304100D+00  0.1000000000D+01
 S   1 1.00       0.000000000000
      0.1030724100D+00  0.1000000000D+01
 P   1 1.00       0.000000000000
      0.8000000000D+00  0.1000000000D+01
 ****
     10 0
 S   6 1.00       0.000000000000
      0.2703238263D+05  0.5722733521D-03
      0.4052387139D+04  0.4435323349D-02
      0.9223272271D+03  0.2302010771D-01
      0.2612407099D+03  0.9282249067D-01
      0.8535464135D+02  0.2937850001D+00
      0.3103503524D+02  0.6740160450D+00
 S   2 1.00       0.000000000000
      0.1226086073D+02  0.6383993703D+00
      0.4998707601D+01  0.3953458713D+00
 S   1 1.00       0.000000000000
      0.1170310816D+01  0.1000000000D+01
 S   1 1.00       0.000000000000
      0.4647474099D+00  0.1000000000D+01
 S   1 1.00       0.000000000000
      0.1850453636D+00  0.1000000000D+01
 P   4 1.00       0.000000000000
      0.6327495480D+02  0.1201833222D-01
      0.1462704938D+02  0.8300542179D-01
      0.4450122346D+01  0.3199174393D+00
      0.1527579965D+01  0.7071554292D+00
 P   1 1.00       0.000000000000
      0.5293511794D+00  0.1000000000D+01
 P   1 1.00       0.000000000000
      0.1747842127D+00  0.1000000000D+01
 D   1 1.00       0.000000000000
      0.2314000000D+01  0.1000000000D+01
 D   1 1.00       0.000000000000
      0.6450000000D+00  0.1000000000D+01
 F   1 1.00       0.000000000000
      0.1428000000D+01  0.1000000000D+01
 ****

 AO basis set (Overlap normalization):
 Atom Pa1      Shell     1 S   3     bf    1 -     1         -0.126278906364         -0.098913527996         -0.213770501853
      0.1204737600D+05  0.2857094961D-01
      0.1811684100D+04  0.2270769386D+00
      0.3477010400D+03  0.8325326273D+00
 Atom Pa1      Shell     2 S   3     bf    2 -     2         -0.126278906364         -0.098913527996         -0.213770501853
      0.5750737600D+02  0.9569327984D-01
      0.3350260100D+02 -0.4399944619D+00
      0.1955445100D+02  0.1335352847D+01
 Atom Pa1      Shell     3 S   1     bf    3 -     3         -0.126278906364         -0.098913527996         -0.213770501853
      0.9867801000D+02  0.1000000000D+01
 Atom Pa1      Shell     4 S   1     bf    4 -     4         -0.126278906364         -0.098913527996         -0.213770501853
      0.9716421000D+01  0.1000000000D+01
 Atom Pa1      Shell     5 S   1     bf    5 -     5         -0.126278906364         -0.098913527996         -0.213770501853
      0.2692096000D+01  0.1000000000D+01
 Atom Pa1      Shell     6 S   1     bf    6 -     6         -0.126278906364         -0.098913527996         -0.213770501853
      0.1453847000D+01  0.1000000000D+01
 Atom Pa1      Shell     7 S   1     bf    7 -     7         -0.126278906364         -0.098913527996         -0.213770501853
      0.5743520000D+00  0.1000000000D+01
 Atom Pa1      Shell     8 S   1     bf    8 -     8         -0.126278906364         -0.098913527996         -0.213770501853
      0.2634680000D+00  0.1000000000D+01
 Atom Pa1      Shell     9 S   1     bf    9 -     9         -0.126278906364         -0.098913527996         -0.213770501853
      0.5655700000D-01  0.1000000000D+01
 Atom Pa1      Shell    10 S   1     bf   10 -    10         -0.126278906364         -0.098913527996         -0.213770501853
      0.2316900000D-01  0.1000000000D+01
 Atom Pa1      Shell    11 P   5     bf   11 -    13         -0.126278906364         -0.098913527996         -0.213770501853
      0.2903367600D+04  0.2594222647D-02
      0.6448635600D+03  0.1519473264D-01
      0.2202589600D+03  0.9272492945D-01
      0.8027640100D+02  0.1821144298D+00
      0.2408021100D+02  0.8294100404D+00
 Atom Pa1      Shell    12 P   1     bf   14 -    16         -0.126278906364         -0.098913527996         -0.213770501853
      0.1407758000D+02  0.1000000000D+01
 Atom Pa1      Shell    13 P   1     bf   17 -    19         -0.126278906364         -0.098913527996         -0.213770501853
      0.8265846000D+01  0.1000000000D+01
 Atom Pa1      Shell    14 P   1     bf   20 -    22         -0.126278906364         -0.098913527996         -0.213770501853
      0.3594800000D+01  0.1000000000D+01
 Atom Pa1      Shell    15 P   1     bf   23 -    25         -0.126278906364         -0.098913527996         -0.213770501853
      0.1753111000D+01  0.1000000000D+01
 Atom Pa1      Shell    16 P   1     bf   26 -    28         -0.126278906364         -0.098913527996         -0.213770501853
      0.6577670000D+00  0.1000000000D+01
 Atom Pa1      Shell    17 P   1     bf   29 -    31         -0.126278906364         -0.098913527996         -0.213770501853
      0.2846390000D+00  0.1000000000D+01
 Atom Pa1      Shell    18 P   1     bf   32 -    34         -0.126278906364         -0.098913527996         -0.213770501853
      0.1005430000D+00  0.1000000000D+01
 Atom Pa1      Shell    19 P   1     bf   35 -    37         -0.126278906364         -0.098913527996         -0.213770501853
      0.3019000000D-01  0.1000000000D+01
 Atom Pa1      Shell    20 D   6     bf   38 -    42         -0.126278906364         -0.098913527996         -0.213770501853
      0.4481499100D+03  0.6556927566D-04
      0.1544614500D+03  0.5749921096D-03
      0.6092537700D+02  0.2279793277D-02
      0.1703209100D+02  0.6467904664D-01
      0.1001887700D+02 -0.2666929411D+00
      0.3409193000D+01  0.1128376621D+01
 Atom Pa1      Shell    21 D   1     bf   43 -    47         -0.126278906364         -0.098913527996         -0.213770501853
      0.1670213000D+01  0.1000000000D+01
 Atom Pa1      Shell    22 D   1     bf   48 -    52         -0.126278906364         -0.098913527996         -0.213770501853
      0.7410950000D+00  0.1000000000D+01
 Atom Pa1      Shell    23 D   1     bf   53 -    57         -0.126278906364         -0.098913527996         -0.213770501853
      0.2613930000D+00  0.1000000000D+01
 Atom Pa1      Shell    24 D   1     bf   58 -    62         -0.126278906364         -0.098913527996         -0.213770501853
      0.8281100000D-01  0.1000000000D+01
 Atom Pa1      Shell    25 F   5     bf   63 -    69         -0.126278906364         -0.098913527996         -0.213770501853
      0.8799132700D+02  0.4766318191D-03
      0.2834019500D+02  0.4899184583D-02
      0.1244099400D+02  0.9669720755D-02
      0.3957296000D+01  0.3310292343D+00
      0.1875944000D+01  0.7275531640D+00
 Atom Pa1      Shell    26 F   1     bf   70 -    76         -0.126278906364         -0.098913527996         -0.213770501853
      0.8275890000D+00  0.1000000000D+01
 Atom Pa1      Shell    27 F   1     bf   77 -    83         -0.126278906364         -0.098913527996         -0.213770501853
      0.3327480000D+00  0.1000000000D+01
 Atom Pa1      Shell    28 F   1     bf   84 -    90         -0.126278906364         -0.098913527996         -0.213770501853
      0.1146850000D+00  0.1000000000D+01
 Atom Pa1      Shell    29 G   1     bf   91 -    99         -0.126278906364         -0.098913527996         -0.213770501853
      0.3500000000D+00  0.1000000000D+01
 Atom O2       Shell    30 S   6     bf  100 -   100         -0.109159036390          0.332325863622          3.835241478149
      0.2703238263D+05  0.5722733521D-03
      0.4052387139D+04  0.4435323349D-02
      0.9223272271D+03  0.2302010771D-01
      0.2612407099D+03  0.9282249067D-01
      0.8535464135D+02  0.2937850001D+00
      0.3103503524D+02  0.6740160450D+00
 Atom O2       Shell    31 S   2     bf  101 -   101         -0.109159036390          0.332325863622          3.835241478149
      0.1226086073D+02  0.6383993703D+00
      0.4998707601D+01  0.3953458713D+00
 Atom O2       Shell    32 S   1     bf  102 -   102         -0.109159036390          0.332325863622          3.835241478149
      0.1170310816D+01  0.1000000000D+01
 Atom O2       Shell    33 S   1     bf  103 -   103         -0.109159036390          0.332325863622          3.835241478149
      0.4647474099D+00  0.1000000000D+01
 Atom O2       Shell    34 S   1     bf  104 -   104         -0.109159036390          0.332325863622          3.835241478149
      0.1850453636D+00  0.1000000000D+01
 Atom O2       Shell    35 P   4     bf  105 -   107         -0.109159036390          0.332325863622          3.835241478149
      0.6327495480D+02  0.1201833222D-01
      0.1462704938D+02  0.8300542179D-01
      0.4450122346D+01  0.3199174393D+00
      0.1527579965D+01  0.7071554292D+00
 Atom O2       Shell    36 P   1     bf  108 -   110         -0.109159036390          0.332325863622          3.835241478149
      0.5293511794D+00  0.1000000000D+01
 Atom O2       Shell    37 P   1     bf  111 -   113         -0.109159036390          0.332325863622          3.835241478149
      0.1747842127D+00  0.1000000000D+01
 Atom O2       Shell    38 D   1     bf  114 -   118         -0.109159036390          0.332325863622          3.835241478149
      0.2314000000D+01  0.1000000000D+01
 Atom O2       Shell    39 D   1     bf  119 -   123         -0.109159036390          0.332325863622          3.835241478149
      0.6450000000D+00  0.1000000000D+01
 Atom O2       Shell    40 F   1     bf  124 -   130         -0.109159036390          0.332325863622          3.835241478149
      0.1428000000D+01  0.1000000000D+01
 Atom O3       Shell    41 S   6     bf  131 -   131          0.109340300419          3.883656725215         -0.550017313158
      0.2703238263D+05  0.5722733521D-03
      0.4052387139D+04  0.4435323349D-02
      0.9223272271D+03  0.2302010771D-01
      0.2612407099D+03  0.9282249067D-01
      0.8535464135D+02  0.2937850001D+00
      0.3103503524D+02  0.6740160450D+00
 Atom O3       Shell    42 S   2     bf  132 -   132          0.109340300419          3.883656725215         -0.550017313158
      0.1226086073D+02  0.6383993703D+00
      0.4998707601D+01  0.3953458713D+00
 Atom O3       Shell    43 S   1     bf  133 -   133          0.109340300419          3.883656725215         -0.550017313158
      0.1170310816D+01  0.1000000000D+01
 Atom O3       Shell    44 S   1     bf  134 -   134          0.109340300419          3.883656725215         -0.550017313158
      0.4647474099D+00  0.1000000000D+01
 Atom O3       Shell    45 S   1     bf  135 -   135          0.109340300419          3.883656725215         -0.550017313158
      0.1850453636D+00  0.1000000000D+01
 Atom O3       Shell    46 P   4     bf  136 -   138          0.109340300419          3.883656725215         -0.550017313158
      0.6327495480D+02  0.1201833222D-01
      0.1462704938D+02  0.8300542179D-01
      0.4450122346D+01  0.3199174393D+00
      0.1527579965D+01  0.7071554292D+00
 Atom O3       Shell    47 P   1     bf  139 -   141          0.109340300419          3.883656725215         -0.550017313158
      0.5293511794D+00  0.1000000000D+01
 Atom O3       Shell    48 P   1     bf  142 -   144          0.109340300419          3.883656725215         -0.550017313158
      0.1747842127D+00  0.1000000000D+01
 Atom O3       Shell    49 D   1     bf  145 -   149          0.109340300419          3.883656725215         -0.550017313158
      0.2314000000D+01  0.1000000000D+01
 Atom O3       Shell    50 D   1     bf  150 -   154          0.109340300419          3.883656725215         -0.550017313158
      0.6450000000D+00  0.1000000000D+01
 Atom O3       Shell    51 F   1     bf  155 -   161          0.109340300419          3.883656725215         -0.550017313158
      0.1428000000D+01  0.1000000000D+01
 Atom F4       Shell    52 S   6     bf  162 -   162         -4.224772453905         -0.030207529381         -0.649915868800
      0.3547910044D+05  0.5618499111D-03
      0.5318472898D+04  0.4355197381D-02
      0.1210481098D+04  0.2261824715D-01
      0.3428551814D+03  0.9140305514D-01
      0.1120194318D+03  0.2911687069D+00
      0.4071474025D+02  0.6777270856D+00
 Atom F4       Shell    53 S   2     bf  163 -   163         -4.224772453905         -0.030207529381         -0.649915868800
      0.1603967811D+02  0.6329641788D+00
      0.6503818674D+01  0.4013647573D+00
 Atom F4       Shell    54 S   1     bf  164 -   164         -4.224772453905         -0.030207529381         -0.649915868800
      0.1544047751D+01  0.1000000000D+01
 Atom F4       Shell    55 S   1     bf  165 -   165         -4.224772453905         -0.030207529381         -0.649915868800
      0.6122345286D+00  0.1000000000D+01
 Atom F4       Shell    56 S   1     bf  166 -   166         -4.224772453905         -0.030207529381         -0.649915868800
      0.2402797970D+00  0.1000000000D+01
 Atom F4       Shell    57 P   4     bf  167 -   169         -4.224772453905         -0.030207529381         -0.649915868800
      0.8023390048D+02  0.1232134514D-01
      0.1859401074D+02  0.8571339535D-01
      0.5686790265D+01  0.3263310550D+00
      0.1951100629D+01  0.6997111464D+00
 Atom F4       Shell    58 P   1     bf  170 -   172         -4.224772453905         -0.030207529381         -0.649915868800
      0.6697021130D+00  0.1000000000D+01
 Atom F4       Shell    59 P   1     bf  173 -   175         -4.224772453905         -0.030207529381         -0.649915868800
      0.2165130041D+00  0.1000000000D+01
 Atom F4       Shell    60 D   1     bf  176 -   180         -4.224772453905         -0.030207529381         -0.649915868800
      0.3107000000D+01  0.1000000000D+01
 Atom F4       Shell    61 D   1     bf  181 -   185         -4.224772453905         -0.030207529381         -0.649915868800
      0.8550000000D+00  0.1000000000D+01
 Atom F4       Shell    62 F   1     bf  186 -   192         -4.224772453905         -0.030207529381         -0.649915868800
      0.1917000000D+01  0.1000000000D+01
 Atom H5       Shell    63 S   3     bf  193 -   193         -0.264277838685          5.273244234604          0.574000353221
      0.3406134100D+02  0.2543930721D-01
      0.5123574600D+01  0.1900859489D+00
      0.1164662600D+01  0.8524411301D+00
 Atom H5       Shell    64 S   1     bf  194 -   194         -0.264277838685          5.273244234604          0.574000353221
      0.3272304100D+00  0.1000000000D+01
 Atom H5       Shell    65 S   1     bf  195 -   195         -0.264277838685          5.273244234604          0.574000353221
      0.1030724100D+00  0.1000000000D+01
 Atom H5       Shell    66 P   1     bf  196 -   198         -0.264277838685          5.273244234604          0.574000353221
      0.8000000000D+00  0.1000000000D+01
 Atom O6       Shell    67 S   6     bf  199 -   199          4.628538013946          0.019979753352         -0.499533782571
      0.2703238263D+05  0.5722733521D-03
      0.4052387139D+04  0.4435323349D-02
      0.9223272271D+03  0.2302010771D-01
      0.2612407099D+03  0.9282249067D-01
      0.8535464135D+02  0.2937850001D+00
      0.3103503524D+02  0.6740160450D+00
 Atom O6       Shell    68 S   2     bf  200 -   200          4.628538013946          0.019979753352         -0.499533782571
      0.1226086073D+02  0.6383993703D+00
      0.4998707601D+01  0.3953458713D+00
 Atom O6       Shell    69 S   1     bf  201 -   201          4.628538013946          0.019979753352         -0.499533782571
      0.1170310816D+01  0.1000000000D+01
 Atom O6       Shell    70 S   1     bf  202 -   202          4.628538013946          0.019979753352         -0.499533782571
      0.4647474099D+00  0.1000000000D+01
 Atom O6       Shell    71 S   1     bf  203 -   203          4.628538013946          0.019979753352         -0.499533782571
      0.1850453636D+00  0.1000000000D+01
 Atom O6       Shell    72 P   4     bf  204 -   206          4.628538013946          0.019979753352         -0.499533782571
      0.6327495480D+02  0.1201833222D-01
      0.1462704938D+02  0.8300542179D-01
      0.4450122346D+01  0.3199174393D+00
      0.1527579965D+01  0.7071554292D+00
 Atom O6       Shell    73 P   1     bf  207 -   209          4.628538013946          0.019979753352         -0.499533782571
      0.5293511794D+00  0.1000000000D+01
 Atom O6       Shell    74 P   1     bf  210 -   212          4.628538013946          0.019979753352         -0.499533782571
      0.1747842127D+00  0.1000000000D+01
 Atom O6       Shell    75 D   1     bf  213 -   217          4.628538013946          0.019979753352         -0.499533782571
      0.2314000000D+01  0.1000000000D+01
 Atom O6       Shell    76 D   1     bf  218 -   222          4.628538013946          0.019979753352         -0.499533782571
      0.6450000000D+00  0.1000000000D+01
 Atom O6       Shell    77 F   1     bf  223 -   229          4.628538013946          0.019979753352         -0.499533782571
      0.1428000000D+01  0.1000000000D+01
 Atom H7       Shell    78 S   3     bf  230 -   230          5.672401206412          1.511979695125         -0.368502181151
      0.3406134100D+02  0.2543930721D-01
      0.5123574600D+01  0.1900859489D+00
      0.1164662600D+01  0.8524411301D+00
 Atom H7       Shell    79 S   1     bf  231 -   231          5.672401206412          1.511979695125         -0.368502181151
      0.3272304100D+00  0.1000000000D+01
 Atom H7       Shell    80 S   1     bf  232 -   232          5.672401206412          1.511979695125         -0.368502181151
      0.1030724100D+00  0.1000000000D+01
 Atom H7       Shell    81 P   1     bf  233 -   235          5.672401206412          1.511979695125         -0.368502181151
      0.8000000000D+00  0.1000000000D+01
 Atom H8       Shell    82 S   3     bf  236 -   236          5.726642006824         -1.424359111467         -0.300044368000
      0.3406134100D+02  0.2543930721D-01
      0.5123574600D+01  0.1900859489D+00
      0.1164662600D+01  0.8524411301D+00
 Atom H8       Shell    83 S   1     bf  237 -   237          5.726642006824         -1.424359111467         -0.300044368000
      0.3272304100D+00  0.1000000000D+01
 Atom H8       Shell    84 S   1     bf  238 -   238          5.726642006824         -1.424359111467         -0.300044368000
      0.1030724100D+00  0.1000000000D+01
 Atom H8       Shell    85 P   1     bf  239 -   241          5.726642006824         -1.424359111467         -0.300044368000
      0.8000000000D+00  0.1000000000D+01
 Atom H9       Shell    86 S   3     bf  242 -   242         -0.103612767630         -1.008754707609          5.068728386542
      0.3406134100D+02  0.2543930721D-01
      0.5123574600D+01  0.1900859489D+00
      0.1164662600D+01  0.8524411301D+00
 Atom H9       Shell    87 S   1     bf  243 -   243         -0.103612767630         -1.008754707609          5.068728386542
      0.3272304100D+00  0.1000000000D+01
 Atom H9       Shell    88 S   1     bf  244 -   244         -0.103612767630         -1.008754707609          5.068728386542
      0.1030724100D+00  0.1000000000D+01
 Atom H9       Shell    89 P   1     bf  245 -   247         -0.103612767630         -1.008754707609          5.068728386542
      0.8000000000D+00  0.1000000000D+01
 Atom O10      Shell    90 S   6     bf  248 -   248          0.181678216687         -3.620851254509         -0.244668345271
      0.2703238263D+05  0.5722733521D-03
      0.4052387139D+04  0.4435323349D-02
      0.9223272271D+03  0.2302010771D-01
      0.2612407099D+03  0.9282249067D-01
      0.8535464135D+02  0.2937850001D+00
      0.3103503524D+02  0.6740160450D+00
 Atom O10      Shell    91 S   2     bf  249 -   249          0.181678216687         -3.620851254509         -0.244668345271
      0.1226086073D+02  0.6383993703D+00
      0.4998707601D+01  0.3953458713D+00
 Atom O10      Shell    92 S   1     bf  250 -   250          0.181678216687         -3.620851254509         -0.244668345271
      0.1170310816D+01  0.1000000000D+01
 Atom O10      Shell    93 S   1     bf  251 -   251          0.181678216687         -3.620851254509         -0.244668345271
      0.4647474099D+00  0.1000000000D+01
 Atom O10      Shell    94 S   1     bf  252 -   252          0.181678216687         -3.620851254509         -0.244668345271
      0.1850453636D+00  0.1000000000D+01
 Atom O10      Shell    95 P   4     bf  253 -   255          0.181678216687         -3.620851254509         -0.244668345271
      0.6327495480D+02  0.1201833222D-01
      0.1462704938D+02  0.8300542179D-01
      0.4450122346D+01  0.3199174393D+00
      0.1527579965D+01  0.7071554292D+00
 Atom O10      Shell    96 P   1     bf  256 -   258          0.181678216687         -3.620851254509         -0.244668345271
      0.5293511794D+00  0.1000000000D+01
 Atom O10      Shell    97 P   1     bf  259 -   261          0.181678216687         -3.620851254509         -0.244668345271
      0.1747842127D+00  0.1000000000D+01
 Atom O10      Shell    98 D   1     bf  262 -   266          0.181678216687         -3.620851254509         -0.244668345271
      0.2314000000D+01  0.1000000000D+01
 Atom O10      Shell    99 D   1     bf  267 -   271          0.181678216687         -3.620851254509         -0.244668345271
      0.6450000000D+00  0.1000000000D+01
 Atom O10      Shell   100 F   1     bf  272 -   278          0.181678216687         -3.620851254509         -0.244668345271
      0.1428000000D+01  0.1000000000D+01
 Effective core potential in the form of general ECP input:
      1 0
 Pa1-ECP   5 60
 H component
  1
  2        1.0000000        0.00000000    0.00000000
 S-H projection
  1
  2       15.2691737      475.47573283    0.00000000
 P-H projection
  1
  2        9.9577370      207.66485962    0.00000000
 D-H projection
  1
  2        8.9431413      156.67411988    0.00000000
 F-H projection
  1
  2        7.0104666       67.98223685    0.00000000
 G-H projection
  1
  2       12.2010560      -57.63059989    0.00000000
 
 There are   326 symmetry adapted cartesian basis functions of A   symmetry.
 There are   278 symmetry adapted basis functions of A   symmetry.
   278 basis functions,   495 primitive gaussians,   326 cartesian basis functions
    38 alpha electrons       38 beta electrons
       nuclear repulsion energy       479.0836316725 Hartrees.
 IExCor=  404 DFT=T Ex=B Corr=P86 ExCW=0 ScaHFX=  0.000000
 ScaDFX=  1.000000  1.000000  1.000000  1.000000 ScalE2=  1.000000  1.000000
 IRadAn=      5 IRanWt=     -1 IRanGd=            0 ICorTp=0 IEmpDi=  4
 NAtoms=   10 NActive=   10 NUniq=   10 SFac= 1.00D+00 NAtFMM=   60 NAOKFM=F Big=F
 Integral buffers will be    131072 words long.
 Raffenetti 2 integral format.
 Two-electron integral symmetry is turned on.
 Warning! Using old PCM defaults because the COSMOthermo output has been requested.
 These settings can be overridden by following keywords.
 ------------------------------------------------------------------------------
 Polarizable Continuum Model (PCM)
 =================================
 Model                : C-PCM.
 Atomic radii         : Klamt.
 XCosmo               : -1.000 (infinite dielectric limit)
 Polarization charges : Electronic and nuclear charges.
 Charge compensation  : Type 3 (Electronic density weighted correction).
 Solution method      : On-the-fly selection.
 Cavity type          : VdW (van der Waals Surface) (Alpha=1.000).
 Cavity algorithm     : GePol (No added spheres)
                        Default sphere list used, NSphG=   10.
                        Tesserae with average area of 0.200 Ang**2.
                        Smoothing algorithm: None.
                        Polarization charges: point-like.
                        Self-potential: constant (ISelfS= 1).
                        Self-field    : global E.n sum rule (ISelfD= 3).
 Solvent              : Water, Eps=  78.355300 Eps(inf)=   1.777849
 ------------------------------------------------------------------------------
 Spheres list:
 ISph  on   Nord     Re0    Alpha      Xe            Ye            Ze
    1  Pa      1    2.0000  1.170     -0.066824     -0.052343     -0.113122
    2   O      2    1.7200  1.000     -0.057764      0.175859      2.029522
    3   O      3    1.7200  1.000      0.057860      2.055143     -0.291057
    4   F      4    1.7200  1.000     -2.235653     -0.015985     -0.343921
    5   H      5    1.3000  1.000     -0.139850      2.790481      0.303748
    6   O      6    1.7200  1.000      2.449317      0.010573     -0.264342
    7   H      7    1.3000  1.000      3.001705      0.800105     -0.195003
    8   H      8    1.3000  1.000      3.030408     -0.753738     -0.158777
    9   H      9    1.3000  1.000     -0.054830     -0.533810      2.682256
   10   O     10    1.7200  1.000      0.096140     -1.916072     -0.129473
 ------------------------------------------------------------------------------
 GePol: Number of generator spheres                  =      10
 GePol: Total number of spheres                      =      10
 GePol: Number of exposed spheres                    =      10 (100.00%)
 GePol: Number of tesserae                           =     960
 GePol: Average area of tesserae                     =       0.16 Ang**2
 GePol: Minimum area of tessera                      =   0.12D-02 Ang**2
 GePol: Maximum area of tessera                      =    0.35817 Ang**2
 GePol: Number of small tesserae                     =       9
 GePol: Fraction of small tesserae (<1% of avg)      =       0.94%
 GePol: Total count of vertices                      =    3187
 GePol: Maximum number of vertices in a tessera      =       6
 GePol: Cavity surface area                          =    151.080 Ang**2
 GePol: Cavity volume                                =    122.494 Ang**3
 DisRep: Neglecting contributions from atom    1 of solute.
 Leave Link  301 at Tue Jul  4 13:37:02 2023, MaxMem=  2147483648 cpu:               1.0 elap:               0.1
 (Enter /home/pcmt/gaussian/g16.C.01/g16/l302.exe)
 NPDir=0 NMtPBC=     1 NCelOv=     1 NCel=       1 NClECP=     1 NCelD=      1
         NCelK=      1 NCelE2=     1 NClLst=     1 CellRange=     0.0.
 One-electron integrals computed using PRISM.
 One-electron integral symmetry used in STVInt
   1 Symmetry operations used in ECPInt.
 ECPInt:  NShTT=    5050 NPrTT=   14698 LenC2=    4859 LenP2D=   10977.
 LDataN:  DoStor=T MaxTD1= 9 Len=  602
 NBasis=   278 RedAO= T EigKep=  6.76D-04  NBF=   278
 NBsUse=   278 1.00D-06 EigRej= -1.00D+00 NBFU=   278
 Precomputing XC quadrature grid using
 IXCGrd= 4 IRadAn=           5 IRanWt=          -1 IRanGd=           0 AccXCQ= 0.00D+00.
 Defaulting to unpruned grid for atomic number  91.
 Generated NRdTot=       0 NPtTot=           0 NUsed=           0 NTot=          32
 NSgBfM=   322   322   322   322   322 MxSgAt=    10 MxSgA2=    10.
 Leave Link  302 at Tue Jul  4 13:37:03 2023, MaxMem=  2147483648 cpu:               6.0 elap:               0.8
 (Enter /home/pcmt/gaussian/g16.C.01/g16/l303.exe)
 DipDrv:  MaxL=1.
 Leave Link  303 at Tue Jul  4 13:37:03 2023, MaxMem=  2147483648 cpu:               0.4 elap:               0.1
 (Enter /home/pcmt/gaussian/g16.C.01/g16/l401.exe)
 ExpMin= 2.32D-02 ExpMax= 3.55D+04 ExpMxC= 1.20D+04 IAcc=3 IRadAn=         5 AccDes= 0.00D+00
 Harris functional with IExCor=  404 and IRadAn=       5 diagonalized for initial guess.
 HarFok:  IExCor=  404 AccDes= 0.00D+00 IRadAn=         5 IDoV= 1 UseB2=F ITyADJ=14
 ICtDFT=  3500011 ScaDFX=  1.000000  1.000000  1.000000  1.000000
 Defaulting to unpruned grid for atomic number  91.
 FoFCou: FMM=F IPFlag=           0 FMFlag=      100000 FMFlg1=           0
         NFxFlg=           0 DoJE=T BraDBF=F KetDBF=T FulRan=T
         wScrn=  0.000000 ICntrl=       500 IOpCl=  0 I1Cent=   200000004 NGrid=           0
         NMat0=    1 NMatS0=      1 NMatT0=    0 NMatD0=    1 NMtDS0=    0 NMtDT0=    0
 Petite list used in FoFCou.
 Harris En= -846.706400309793    
 JPrj=0 DoOrth=F DoCkMO=F.
 Leave Link  401 at Tue Jul  4 13:37:05 2023, MaxMem=  2147483648 cpu:              14.7 elap:               1.9
 (Enter /home/pcmt/gaussian/g16.C.01/g16/l502.exe)
 Keep J ints in memory in canonical form, NReq=769486757.
 FoFCou: FMM=F IPFlag=           0 FMFlag=           0 FMFlg1=           0
         NFxFlg=           0 DoJE=F BraDBF=F KetDBF=F FulRan=T
         wScrn=  0.000000 ICntrl=       600 IOpCl=  0 I1Cent=           0 NGrid=           0
         NMat0=    1 NMatS0=  38781 NMatT0=    0 NMatD0=    1 NMtDS0=    0 NMtDT0=    0
 Symmetry not used in FoFCou.
 Two-electron integral symmetry not used.
 Closed shell SCF:
 Using DIIS extrapolation, IDIIS=  1040.
 NGot=  2147483648 LenX=  1395263077 LenY=  1395156360
 Requested convergence on RMS density matrix=1.00D-08 within 100 cycles.
 Requested convergence on MAX density matrix=1.00D-06.
 Requested convergence on             energy=1.00D-06.
 No special actions if energy rises.

 Cycle   1  Pass 1  IDiag  1:
 Defaulting to unpruned grid for atomic number  91.
 Defaulting to unpruned grid for atomic number  91.
 Defaulting to unpruned grid for atomic number  91.
 Defaulting to unpruned grid for atomic number  91.
 Defaulting to unpruned grid for atomic number  91.
 Defaulting to unpruned grid for atomic number  91.
 Defaulting to unpruned grid for atomic number  91.
 Defaulting to unpruned grid for atomic number  91.
 Inv3:  Mode=1 IEnd=     2764800.
 Iteration    1 A*A^-1 deviation from unit magnitude is 4.00D-15 for    960.
 Iteration    1 A*A^-1 deviation from orthogonality  is 1.55D-15 for    352    276.
 Iteration    1 A^-1*A deviation from unit magnitude is 4.00D-15 for    960.
 Iteration    1 A^-1*A deviation from orthogonality  is 1.65D-15 for    845    749.
 E= -844.249663064962    
 DIIS: error= 3.94D-02 at cycle   1 NSaved=   1.
 NSaved= 1 IEnMin= 1 EnMin= -844.249663064962     IErMin= 1 ErrMin= 3.94D-02
 ErrMax= 3.94D-02  0.00D+00 EMaxC= 1.00D-01 BMatC= 1.52D+00 BMatP= 1.52D+00
 IDIUse=3 WtCom= 6.06D-01 WtEn= 3.94D-01
 Coeff-Com:  0.100D+01
 Coeff-En:   0.100D+01
 Coeff:      0.100D+01
 Gap=     0.056 Goal=   None    Shift=    0.000
 GapD=    0.056 DampG=0.500 DampE=0.250 DampFc=0.1250 IDamp=-1.
 Damping current iteration by 1.25D-01
 RMSDP=1.39D-02 MaxDP=1.25D+00              OVMax= 9.95D-01

 Cycle   2  Pass 1  IDiag  1:
 E= -844.298881178836     Delta-E=       -0.049218113874 Rises=F Damp=T
 DIIS: error= 1.97D-02 at cycle   2 NSaved=   2.
 NSaved= 2 IEnMin= 2 EnMin= -844.298881178836     IErMin= 2 ErrMin= 1.97D-02
 ErrMax= 1.97D-02  0.00D+00 EMaxC= 1.00D-01 BMatC= 1.91D-01 BMatP= 1.52D+00
 IDIUse=3 WtCom= 8.03D-01 WtEn= 1.97D-01
 Coeff-Com: -0.593D-01 0.106D+01
 Coeff-En:   0.478D+00 0.522D+00
 Coeff:      0.463D-01 0.954D+00
 Gap=    -0.038 Goal=   None    Shift=    0.000
 RMSDP=4.59D-03 MaxDP=1.34D-01 DE=-4.92D-02 OVMax= 9.31D-01

 Cycle   3  Pass 1  IDiag  1:
 E= -844.490436893210     Delta-E=       -0.191555714374 Rises=F Damp=F
 DIIS: error= 5.18D-02 at cycle   3 NSaved=   3.
 NSaved= 3 IEnMin= 3 EnMin= -844.490436893210     IErMin= 2 ErrMin= 1.97D-02
 ErrMax= 5.18D-02  0.00D+00 EMaxC= 1.00D-01 BMatC= 9.46D-01 BMatP= 1.91D-01
 IDIUse=2 WtCom= 0.00D+00 WtEn= 1.00D+00
 EnCoef did     2 forward-backward iterations
 Coeff-En:   0.192D+00 0.331D+00 0.477D+00
 Coeff:      0.192D+00 0.331D+00 0.477D+00
 Gap=     0.252 Goal=   None    Shift=    0.000
 RMSDP=8.76D-03 MaxDP=4.86D-01 DE=-1.92D-01 OVMax= 8.54D-01

 Cycle   4  Pass 1  IDiag  1:
 E= -821.480512448637     Delta-E=       23.009924444573 Rises=F Damp=F
 DIIS: error= 2.81D-01 at cycle   4 NSaved=   4.
 NSaved= 4 IEnMin= 3 EnMin= -844.490436893210     IErMin= 2 ErrMin= 1.97D-02
 ErrMax= 2.81D-01  0.00D+00 EMaxC= 1.00D-01 BMatC= 4.78D+01 BMatP= 1.91D-01
 IDIUse=2 WtCom= 0.00D+00 WtEn= 1.00D+00
 EnCoef did   100 forward-backward iterations
 Coeff-En:   0.432D+00 0.127D-01 0.473D+00 0.828D-01
 Coeff:      0.432D+00 0.127D-01 0.473D+00 0.828D-01
 Gap=     0.016 Goal=   None    Shift=    0.000
 RMSDP=4.79D-03 MaxDP=2.98D-01 DE= 2.30D+01 OVMax= 8.55D-01

 Cycle   5  Pass 1  IDiag  1:
 E= -844.004670604663     Delta-E=      -22.524158156025 Rises=F Damp=F
 DIIS: error= 7.46D-02 at cycle   5 NSaved=   5.
 NSaved= 5 IEnMin= 3 EnMin= -844.490436893210     IErMin= 2 ErrMin= 1.97D-02
 ErrMax= 7.46D-02  0.00D+00 EMaxC= 1.00D-01 BMatC= 2.33D+00 BMatP= 1.91D-01
 IDIUse=2 WtCom= 0.00D+00 WtEn= 1.00D+00
 EnCoef did     2 forward-backward iterations
 Coeff-En:   0.380D+00 0.000D+00 0.225D+00 0.000D+00 0.395D+00
 Coeff:      0.380D+00 0.000D+00 0.225D+00 0.000D+00 0.395D+00
 Gap=     0.178 Goal=   None    Shift=    0.000
 RMSDP=2.80D-03 MaxDP=1.68D-01 DE=-2.25D+01 OVMax= 2.90D-01

 Cycle   6  Pass 1  IDiag  1:
 E= -845.217143039172     Delta-E=       -1.212472434510 Rises=F Damp=F
 DIIS: error= 1.36D-02 at cycle   6 NSaved=   6.
 NSaved= 6 IEnMin= 6 EnMin= -845.217143039172     IErMin= 6 ErrMin= 1.36D-02
 ErrMax= 1.36D-02  0.00D+00 EMaxC= 1.00D-01 BMatC= 1.02D-01 BMatP= 1.91D-01
 IDIUse=3 WtCom= 8.64D-01 WtEn= 1.36D-01
 Coeff-Com: -0.439D-01 0.424D+00 0.175D+00-0.159D-01 0.119D+00 0.342D+00
 Coeff-En:   0.000D+00 0.000D+00 0.000D+00 0.000D+00 0.815D-01 0.919D+00
 Coeff:     -0.379D-01 0.366D+00 0.151D+00-0.137D-01 0.114D+00 0.420D+00
 Gap=     0.201 Goal=   None    Shift=    0.000
 RMSDP=9.19D-04 MaxDP=4.90D-02 DE=-1.21D+00 OVMax= 9.99D-02

 Cycle   7  Pass 1  IDiag  1:
 E= -845.205039610130     Delta-E=        0.012103429042 Rises=F Damp=F
 DIIS: error= 1.26D-02 at cycle   7 NSaved=   7.
 NSaved= 7 IEnMin= 6 EnMin= -845.217143039172     IErMin= 7 ErrMin= 1.26D-02
 ErrMax= 1.26D-02  0.00D+00 EMaxC= 1.00D-01 BMatC= 1.16D-01 BMatP= 1.02D-01
 IDIUse=2 WtCom= 0.00D+00 WtEn= 1.00D+00
 EnCoef did     3 forward-backward iterations
 Coeff-En:   0.000D+00 0.000D+00 0.000D+00 0.000D+00 0.956D-01 0.424D+00
 Coeff-En:   0.481D+00
 Coeff:      0.000D+00 0.000D+00 0.000D+00 0.000D+00 0.956D-01 0.424D+00
 Coeff:      0.481D+00
 Gap=     0.127 Goal=   None    Shift=    0.000
 RMSDP=1.78D-03 MaxDP=1.33D-01 DE= 1.21D-02 OVMax= 1.73D-01

 Cycle   8  Pass 1  IDiag  1:
 E= -845.104968994828     Delta-E=        0.100070615302 Rises=F Damp=F
 DIIS: error= 2.51D-02 at cycle   8 NSaved=   8.
 NSaved= 8 IEnMin= 6 EnMin= -845.217143039172     IErMin= 7 ErrMin= 1.26D-02
 ErrMax= 2.51D-02  0.00D+00 EMaxC= 1.00D-01 BMatC= 2.85D-01 BMatP= 1.02D-01
 IDIUse=2 WtCom= 0.00D+00 WtEn= 1.00D+00
 EnCoef did     2 forward-backward iterations
 Coeff-En:   0.000D+00 0.000D+00 0.000D+00 0.000D+00 0.000D+00 0.375D+00
 Coeff-En:   0.323D+00 0.302D+00
 Coeff:      0.000D+00 0.000D+00 0.000D+00 0.000D+00 0.000D+00 0.375D+00
 Coeff:      0.323D+00 0.302D+00
 Gap=     0.135 Goal=   None    Shift=    0.000
 RMSDP=7.95D-04 MaxDP=4.01D-02 DE= 1.00D-01 OVMax= 1.10D-01

 Cycle   9  Pass 1  IDiag  1:
 E= -845.288160850637     Delta-E=       -0.183191855808 Rises=F Damp=F
 DIIS: error= 2.92D-03 at cycle   9 NSaved=   9.
 NSaved= 9 IEnMin= 9 EnMin= -845.288160850637     IErMin= 9 ErrMin= 2.92D-03
 ErrMax= 2.92D-03  0.00D+00 EMaxC= 1.00D-01 BMatC= 6.97D-03 BMatP= 1.02D-01
 IDIUse=3 WtCom= 9.71D-01 WtEn= 2.92D-02
 Coeff-Com: -0.195D-02 0.558D-02-0.702D-02 0.505D-03-0.441D-01 0.224D+00
 Coeff-Com:  0.160D+00 0.242D+00 0.421D+00
 Coeff-En:   0.000D+00 0.000D+00 0.000D+00 0.000D+00 0.000D+00 0.000D+00
 Coeff-En:   0.000D+00 0.000D+00 0.100D+01
 Coeff:     -0.189D-02 0.542D-02-0.681D-02 0.490D-03-0.429D-01 0.218D+00
 Coeff:      0.155D+00 0.235D+00 0.438D+00
 Gap=     0.138 Goal=   None    Shift=    0.000
 RMSDP=2.45D-04 MaxDP=1.63D-02 DE=-1.83D-01 OVMax= 1.74D-02

 Cycle  10  Pass 1  IDiag  1:
 E= -845.293414771842     Delta-E=       -0.005253921205 Rises=F Damp=F
 DIIS: error= 1.01D-03 at cycle  10 NSaved=  10.
 NSaved=10 IEnMin=10 EnMin= -845.293414771842     IErMin=10 ErrMin= 1.01D-03
 ErrMax= 1.01D-03  0.00D+00 EMaxC= 1.00D-01 BMatC= 7.79D-04 BMatP= 6.97D-03
 IDIUse=3 WtCom= 9.90D-01 WtEn= 1.01D-02
 Coeff-Com:  0.169D-01-0.219D-01 0.586D-02 0.861D-03-0.177D-01 0.222D-01
 Coeff-Com: -0.337D-01 0.338D-01 0.256D+00 0.738D+00
 Coeff-En:   0.000D+00 0.000D+00 0.000D+00 0.000D+00 0.000D+00 0.000D+00
 Coeff-En:   0.000D+00 0.000D+00 0.000D+00 0.100D+01
 Coeff:      0.167D-01-0.217D-01 0.580D-02 0.852D-03-0.176D-01 0.220D-01
 Coeff:     -0.333D-01 0.335D-01 0.253D+00 0.741D+00
 Gap=     0.135 Goal=   None    Shift=    0.000
 RMSDP=2.24D-04 MaxDP=1.30D-02 DE=-5.25D-03 OVMax= 2.29D-02

 Cycle  11  Pass 1  IDiag  1:
 E= -845.293886627967     Delta-E=       -0.000471856125 Rises=F Damp=F
 DIIS: error= 1.78D-03 at cycle  11 NSaved=  11.
 NSaved=11 IEnMin=11 EnMin= -845.293886627967     IErMin=10 ErrMin= 1.01D-03
 ErrMax= 1.78D-03  0.00D+00 EMaxC= 1.00D-01 BMatC= 2.58D-03 BMatP= 7.79D-04
 IDIUse=3 WtCom= 9.90D-01 WtEn= 1.01D-02
 Coeff-Com:  0.272D-01-0.256D-01 0.134D-01 0.634D-03-0.116D-01-0.426D-01
 Coeff-Com: -0.910D-01-0.293D-01 0.133D+00 0.631D+00 0.396D+00
 Coeff-En:   0.000D+00 0.000D+00 0.000D+00 0.000D+00 0.000D+00 0.000D+00
 Coeff-En:   0.000D+00 0.000D+00 0.000D+00 0.397D-01 0.960D+00
 Coeff:      0.269D-01-0.253D-01 0.133D-01 0.627D-03-0.115D-01-0.422D-01
 Coeff:     -0.901D-01-0.290D-01 0.131D+00 0.625D+00 0.401D+00
 Gap=     0.136 Goal=   None    Shift=    0.000
 RMSDP=1.60D-04 MaxDP=9.29D-03 DE=-4.72D-04 OVMax= 1.83D-02

 Cycle  12  Pass 1  IDiag  1:
 E= -845.294322323448     Delta-E=       -0.000435695481 Rises=F Damp=F
 DIIS: error= 2.36D-03 at cycle  12 NSaved=  12.
 NSaved=12 IEnMin=12 EnMin= -845.294322323448     IErMin=10 ErrMin= 1.01D-03
 ErrMax= 2.36D-03  0.00D+00 EMaxC= 1.00D-01 BMatC= 3.48D-03 BMatP= 7.79D-04
 IDIUse=3 WtCom= 9.90D-01 WtEn= 1.01D-02
 Coeff-Com:  0.269D-01-0.202D-01 0.153D-01 0.551D-03-0.125D-01-0.368D-01
 Coeff-Com: -0.828D-01-0.250D-01 0.124D+00 0.559D+00 0.239D+00 0.213D+00
 Coeff-En:   0.000D+00 0.000D+00 0.000D+00 0.000D+00 0.000D+00 0.000D+00
 Coeff-En:   0.000D+00 0.000D+00 0.000D+00 0.000D+00 0.000D+00 0.100D+01
 Coeff:      0.266D-01-0.200D-01 0.152D-01 0.545D-03-0.123D-01-0.364D-01
 Coeff:     -0.820D-01-0.247D-01 0.123D+00 0.553D+00 0.236D+00 0.221D+00
 Gap=     0.135 Goal=   None    Shift=    0.000
 RMSDP=3.86D-05 MaxDP=4.40D-03 DE=-4.36D-04 OVMax= 2.59D-03

 Cycle  13  Pass 1  IDiag  1:
 E= -845.294790760517     Delta-E=       -0.000468437069 Rises=F Damp=F
 DIIS: error= 1.83D-03 at cycle  13 NSaved=  13.
 NSaved=13 IEnMin=13 EnMin= -845.294790760517     IErMin=10 ErrMin= 1.01D-03
 ErrMax= 1.83D-03  0.00D+00 EMaxC= 1.00D-01 BMatC= 2.24D-03 BMatP= 7.79D-04
 IDIUse=3 WtCom= 9.90D-01 WtEn= 1.01D-02
 Coeff-Com:  0.420D-02-0.275D-03 0.196D-02 0.268D-04-0.249D-02-0.283D-02
 Coeff-Com:  0.108D-01-0.118D-01-0.162D-01 0.108D+00-0.103D+01-0.219D+01
 Coeff-Com:  0.412D+01
 Coeff-En:   0.000D+00 0.000D+00 0.000D+00 0.000D+00 0.000D+00 0.000D+00
 Coeff-En:   0.000D+00 0.000D+00 0.000D+00 0.000D+00 0.000D+00 0.000D+00
 Coeff-En:   0.100D+01
 Coeff:      0.416D-02-0.272D-03 0.194D-02 0.265D-04-0.246D-02-0.280D-02
 Coeff:      0.107D-01-0.117D-01-0.160D-01 0.107D+00-0.102D+01-0.217D+01
 Coeff:      0.409D+01
 Gap=     0.135 Goal=   None    Shift=    0.000
 RMSDP=1.57D-04 MaxDP=1.12D-02 DE=-4.68D-04 OVMax= 1.66D-02

 Cycle  14  Pass 1  IDiag  1:
 E= -845.295884083068     Delta-E=       -0.001093322551 Rises=F Damp=F
 DIIS: error= 7.47D-04 at cycle  14 NSaved=  14.
 NSaved=14 IEnMin=14 EnMin= -845.295884083068     IErMin=14 ErrMin= 7.47D-04
 ErrMax= 7.47D-04  0.00D+00 EMaxC= 1.00D-01 BMatC= 1.78D-04 BMatP= 7.79D-04
 IDIUse=3 WtCom= 9.93D-01 WtEn= 7.47D-03
 Coeff-Com:  0.205D-03 0.673D-03-0.452D-03-0.300D-04 0.895D-03-0.716D-03
 Coeff-Com:  0.113D-01-0.103D-01-0.144D-01 0.100D+00-0.701D+00-0.178D+01
 Coeff-Com:  0.305D+01 0.344D+00
 Coeff-En:   0.000D+00 0.000D+00 0.000D+00 0.000D+00 0.000D+00 0.000D+00
 Coeff-En:   0.000D+00 0.000D+00 0.000D+00 0.000D+00 0.000D+00 0.000D+00
 Coeff-En:   0.000D+00 0.100D+01
 Coeff:      0.204D-03 0.668D-03-0.448D-03-0.297D-04 0.888D-03-0.711D-03
 Coeff:      0.113D-01-0.102D-01-0.143D-01 0.996D-01-0.696D+00-0.177D+01
 Coeff:      0.303D+01 0.349D+00
 Gap=     0.133 Goal=   None    Shift=    0.000
 RMSDP=3.96D-05 MaxDP=1.84D-03 DE=-1.09D-03 OVMax= 4.74D-03

 Cycle  15  Pass 1  IDiag  1:
 E= -845.296022580079     Delta-E=       -0.000138497012 Rises=F Damp=F
 DIIS: error= 1.22D-04 at cycle  15 NSaved=  15.
 NSaved=15 IEnMin=15 EnMin= -845.296022580079     IErMin=15 ErrMin= 1.22D-04
 ErrMax= 1.22D-04  0.00D+00 EMaxC= 1.00D-01 BMatC= 7.44D-06 BMatP= 1.78D-04
 IDIUse=3 WtCom= 9.99D-01 WtEn= 1.22D-03
 Coeff-Com: -0.701D-04 0.358D-03-0.448D-03-0.128D-04 0.568D-03 0.710D-03
 Coeff-Com:  0.269D-02-0.299D-02 0.179D-02 0.547D-01-0.270D+00-0.770D+00
 Coeff-Com:  0.125D+01 0.197D+00 0.533D+00
 Coeff-En:   0.000D+00 0.000D+00 0.000D+00 0.000D+00 0.000D+00 0.000D+00
 Coeff-En:   0.000D+00 0.000D+00 0.000D+00 0.000D+00 0.000D+00 0.000D+00
 Coeff-En:   0.000D+00 0.000D+00 0.100D+01
 Coeff:     -0.701D-04 0.358D-03-0.447D-03-0.128D-04 0.568D-03 0.710D-03
 Coeff:      0.269D-02-0.299D-02 0.179D-02 0.546D-01-0.270D+00-0.769D+00
 Coeff:      0.125D+01 0.197D+00 0.534D+00
 Gap=     0.134 Goal=   None    Shift=    0.000
 RMSDP=1.77D-05 MaxDP=9.13D-04 DE=-1.38D-04 OVMax= 1.93D-03

 Cycle  16  Pass 1  IDiag  1:
 E= -845.296026588493     Delta-E=       -0.000004008414 Rises=F Damp=F
 DIIS: error= 7.18D-05 at cycle  16 NSaved=  16.
 NSaved=16 IEnMin=16 EnMin= -845.296026588493     IErMin=16 ErrMin= 7.18D-05
 ErrMax= 7.18D-05  0.00D+00 EMaxC= 1.00D-01 BMatC= 4.16D-06 BMatP= 7.44D-06
 IDIUse=1 WtCom= 1.00D+00 WtEn= 0.00D+00
 Coeff-Com:  0.156D-03 0.109D-03-0.184D-03-0.144D-05 0.981D-04-0.333D-03
 Coeff-Com: -0.252D-03-0.612D-03-0.361D-03 0.647D-03-0.791D-01-0.174D+00
 Coeff-Com:  0.326D+00 0.685D-01 0.317D+00 0.543D+00
 Coeff:      0.156D-03 0.109D-03-0.184D-03-0.144D-05 0.981D-04-0.333D-03
 Coeff:     -0.252D-03-0.612D-03-0.361D-03 0.647D-03-0.791D-01-0.174D+00
 Coeff:      0.326D+00 0.685D-01 0.317D+00 0.543D+00
 Gap=     0.133 Goal=   None    Shift=    0.000
 RMSDP=1.46D-05 MaxDP=8.11D-04 DE=-4.01D-06 OVMax= 1.73D-03

 Cycle  17  Pass 1  IDiag  1:
 E= -845.296029428126     Delta-E=       -0.000002839633 Rises=F Damp=F
 DIIS: error= 2.72D-05 at cycle  17 NSaved=  17.
 NSaved=17 IEnMin=17 EnMin= -845.296029428126     IErMin=17 ErrMin= 2.72D-05
 ErrMax= 2.72D-05  0.00D+00 EMaxC= 1.00D-01 BMatC= 4.52D-07 BMatP= 4.16D-06
 IDIUse=1 WtCom= 1.00D+00 WtEn= 0.00D+00
 Coeff-Com:  0.668D-04 0.319D-04-0.926D-04 0.138D-05 0.552D-04-0.671D-04
 Coeff-Com: -0.377D-03-0.255D-03 0.192D-02 0.805D-02-0.385D-01-0.110D+00
 Coeff-Com:  0.184D+00 0.384D-01 0.174D+00 0.325D+00 0.418D+00
 Coeff:      0.668D-04 0.319D-04-0.926D-04 0.138D-05 0.552D-04-0.671D-04
 Coeff:     -0.377D-03-0.255D-03 0.192D-02 0.805D-02-0.385D-01-0.110D+00
 Coeff:      0.184D+00 0.384D-01 0.174D+00 0.325D+00 0.418D+00
 Gap=     0.133 Goal=   None    Shift=    0.000
 RMSDP=7.02D-06 MaxDP=3.99D-04 DE=-2.84D-06 OVMax= 8.43D-04

 Cycle  18  Pass 1  IDiag  1:
 E= -845.296030232866     Delta-E=       -0.000000804739 Rises=F Damp=F
 DIIS: error= 1.08D-05 at cycle  18 NSaved=  18.
 NSaved=18 IEnMin=18 EnMin= -845.296030232866     IErMin=18 ErrMin= 1.08D-05
 ErrMax= 1.08D-05  0.00D+00 EMaxC= 1.00D-01 BMatC= 9.11D-08 BMatP= 4.52D-07
 IDIUse=1 WtCom= 1.00D+00 WtEn= 0.00D+00
 Coeff-Com:  0.157D-04 0.197D-05-0.608D-05 0.575D-07-0.183D-05-0.824D-04
 Coeff-Com: -0.564D-04-0.329D-04 0.283D-03 0.307D-03-0.401D-02-0.613D-02
 Coeff-Com:  0.153D-01 0.483D-02 0.218D-01 0.462D-01 0.238D+00 0.684D+00
 Coeff:      0.157D-04 0.197D-05-0.608D-05 0.575D-07-0.183D-05-0.824D-04
 Coeff:     -0.564D-04-0.329D-04 0.283D-03 0.307D-03-0.401D-02-0.613D-02
 Coeff:      0.153D-01 0.483D-02 0.218D-01 0.462D-01 0.238D+00 0.684D+00
 Gap=     0.133 Goal=   None    Shift=    0.000
 RMSDP=1.82D-06 MaxDP=1.00D-04 DE=-8.05D-07 OVMax= 2.12D-04

 Cycle  19  Pass 1  IDiag  1:
 E= -845.296030337597     Delta-E=       -0.000000104731 Rises=F Damp=F
 DIIS: error= 7.52D-07 at cycle  19 NSaved=  19.
 NSaved=19 IEnMin=19 EnMin= -845.296030337597     IErMin=19 ErrMin= 7.52D-07
 ErrMax= 7.52D-07  0.00D+00 EMaxC= 1.00D-01 BMatC= 2.89D-10 BMatP= 9.11D-08
 IDIUse=1 WtCom= 1.00D+00 WtEn= 0.00D+00
 Coeff-Com:  0.418D-05 0.337D-06 0.590D-06-0.502D-07-0.147D-05-0.351D-04
 Coeff-Com: -0.153D-04-0.877D-05 0.650D-04-0.987D-04-0.610D-03 0.673D-03
 Coeff-Com:  0.120D-02 0.880D-03 0.403D-02 0.119D-01 0.914D-01 0.322D+00
 Coeff-Com:  0.569D+00
 Coeff:      0.418D-05 0.337D-06 0.590D-06-0.502D-07-0.147D-05-0.351D-04
 Coeff:     -0.153D-04-0.877D-05 0.650D-04-0.987D-04-0.610D-03 0.673D-03
 Coeff:      0.120D-02 0.880D-03 0.403D-02 0.119D-01 0.914D-01 0.322D+00
 Coeff:      0.569D+00
 Gap=     0.133 Goal=   None    Shift=    0.000
 RMSDP=2.85D-08 MaxDP=1.09D-06 DE=-1.05D-07 OVMax= 2.48D-06

 Cycle  20  Pass 1  IDiag  1:
 E= -845.296030336775     Delta-E=        0.000000000822 Rises=F Damp=F
 DIIS: error= 5.28D-07 at cycle  20 NSaved=  20.
 NSaved=20 IEnMin=19 EnMin= -845.296030337597     IErMin=20 ErrMin= 5.28D-07
 ErrMax= 5.28D-07  0.00D+00 EMaxC= 1.00D-01 BMatC= 2.15D-10 BMatP= 2.89D-10
 IDIUse=1 WtCom= 1.00D+00 WtEn= 0.00D+00
 Coeff-Com:  0.118D-06-0.218D-06 0.657D-06-0.271D-08-0.296D-06-0.195D-05
 Coeff-Com: -0.366D-05 0.104D-06 0.513D-05 0.323D-05 0.794D-04 0.326D-03
 Coeff-Com: -0.370D-03-0.130D-03-0.708D-03 0.832D-03 0.651D-02 0.647D-01
 Coeff-Com:  0.216D+00 0.712D+00
 Coeff:      0.118D-06-0.218D-06 0.657D-06-0.271D-08-0.296D-06-0.195D-05
 Coeff:     -0.366D-05 0.104D-06 0.513D-05 0.323D-05 0.794D-04 0.326D-03
 Coeff:     -0.370D-03-0.130D-03-0.708D-03 0.832D-03 0.651D-02 0.647D-01
 Coeff:      0.216D+00 0.712D+00
 Gap=     0.133 Goal=   None    Shift=    0.000
 RMSDP=1.01D-07 MaxDP=5.66D-06 DE= 8.22D-10 OVMax= 1.20D-05

 Cycle  21  Pass 1  IDiag  1:
 E= -845.296030337854     Delta-E=       -0.000000001079 Rises=F Damp=F
 DIIS: error= 1.40D-08 at cycle  21 NSaved=  20.
 NSaved=20 IEnMin=20 EnMin= -845.296030337854     IErMin=20 ErrMin= 1.40D-08
 ErrMax= 1.40D-08  0.00D+00 EMaxC= 1.00D-01 BMatC= 2.92D-13 BMatP= 2.15D-10
 IDIUse=1 WtCom= 1.00D+00 WtEn= 0.00D+00
 Coeff-Com: -0.417D-07 0.359D-07 0.144D-06-0.409D-07 0.435D-06-0.927D-06
 Coeff-Com:  0.396D-06-0.292D-05-0.523D-05 0.148D-04 0.543D-04-0.756D-04
 Coeff-Com: -0.524D-04-0.263D-03-0.113D-05-0.414D-03 0.120D-01 0.482D-01
 Coeff-Com:  0.226D+00 0.714D+00
 Coeff:     -0.417D-07 0.359D-07 0.144D-06-0.409D-07 0.435D-06-0.927D-06
 Coeff:      0.396D-06-0.292D-05-0.523D-05 0.148D-04 0.543D-04-0.756D-04
 Coeff:     -0.524D-04-0.263D-03-0.113D-05-0.414D-03 0.120D-01 0.482D-01
 Coeff:      0.226D+00 0.714D+00
 Gap=     0.133 Goal=   None    Shift=    0.000
 RMSDP=5.95D-09 MaxDP=3.36D-07 DE=-1.08D-09 OVMax= 7.32D-07

 Error on nuclear    polarization charges =  0.01244
 Error on electronic polarization charges = -0.03852
 SCF Done:  E(RB-P86) =  -845.296030338     A.U. after   21 cycles
            NFock= 21  Conv=0.60D-08     -V/T= 2.4915
 KE= 5.667452615249D+02 PE=-2.836898640167D+03 EE= 9.457737166320D+02
 --------------------------------------------------------------------
 Variational C-PCM results
 =========================
 <psi(f)|   H    |psi(f)>                     (a.u.) =    -845.239694
 <psi(f)|H+V(f)/2|psi(f)>                     (a.u.) =    -845.296030
 Total free energy in solution:
 - with all non electrostatic terms           (a.u.) =    -845.278612
 --------------------------------------------------------------------
 (Polarized solute)-Solvent               (kcal/mol) =     -35.35
 --------------------------------------------------------------------
 Cavitation energy                        (kcal/mol) =      19.86
 Dispersion energy                        (kcal/mol) =     -10.02
 Repulsion energy                         (kcal/mol) =       1.09
 Total non electrostatic                  (kcal/mol) =      10.93
 --------------------------------------------------------------------
 Partition over spheres:
 Sphere  on Atom  Surface  Charge   GEl     GCav    GDR
    1     Pa1      19.63  -0.320   -5.86    1.10   -0.21
    2      O2      17.63   0.202   -2.69    2.57   -0.99
    3      O3      17.29   0.146   -0.49    2.47   -0.93
    4      F4      24.14   0.269   -6.06    3.40   -1.43
    5      H5       9.20  -0.126   -1.72    1.30   -0.83
    6      O6      14.21  -0.034   -1.28    2.05   -0.71
    7      H7       9.20  -0.165   -5.51    1.30   -0.88
    8      H8       9.20  -0.165   -5.13    1.30   -0.88
    9      H9       9.18  -0.113   -0.96    1.30   -0.83
   10      O10     21.39   0.306   -5.65    3.08   -1.24
 --------------------------------------------------------------------
 - cavitation energy not included in the total energy.
 - dispersion energy not included in the total energy.
 - repulsion  energy not included in the total energy.
 After PCM corrections, the energy is  -845.296030338     a.u.
 --------------------------------------------------------------------
 Writing COSMO formatted file "pao_oh2_f_h2o-bp86-cosmors-deftzvp-klamt.cosmo"
 Recomputed dielectric energy= -0.056479 old= -0.056336 diff=-1.43D-04
 Leave Link  502 at Tue Jul  4 13:39:03 2023, MaxMem=  2147483648 cpu:             694.2 elap:             117.5
 (Enter /home/pcmt/gaussian/g16.C.01/g16/l601.exe)
 Copying SCF densities to generalized density rwf, IOpCl= 0 IROHF=0.

 **********************************************************************

            Population analysis using the SCF Density.

 **********************************************************************

 Orbital symmetries:
       Occupied  (A) (A) (A) (A) (A) (A) (A) (A) (A) (A) (A) (A)
                 (A) (A) (A) (A) (A) (A) (A) (A) (A) (A) (A) (A)
                 (A) (A) (A) (A) (A) (A) (A) (A) (A) (A) (A) (A)
                 (A) (A)
       Virtual   (A) (A) (A) (A) (A) (A) (A) (A) (A) (A) (A) (A)
                 (A) (A) (A) (A) (A) (A) (A) (A) (A) (A) (A) (A)
                 (A) (A) (A) (A) (A) (A) (A) (A) (A) (A) (A) (A)
                 (A) (A) (A) (A) (A) (A) (A) (A) (A) (A) (A) (A)
                 (A) (A) (A) (A) (A) (A) (A) (A) (A) (A) (A) (A)
                 (A) (A) (A) (A) (A) (A) (A) (A) (A) (A) (A) (A)
                 (A) (A) (A) (A) (A) (A) (A) (A) (A) (A) (A) (A)
                 (A) (A) (A) (A) (A) (A) (A) (A) (A) (A) (A) (A)
                 (A) (A) (A) (A) (A) (A) (A) (A) (A) (A) (A) (A)
                 (A) (A) (A) (A) (A) (A) (A) (A) (A) (A) (A) (A)
                 (A) (A) (A) (A) (A) (A) (A) (A) (A) (A) (A) (A)
                 (A) (A) (A) (A) (A) (A) (A) (A) (A) (A) (A) (A)
                 (A) (A) (A) (A) (A) (A) (A) (A) (A) (A) (A) (A)
                 (A) (A) (A) (A) (A) (A) (A) (A) (A) (A) (A) (A)
                 (A) (A) (A) (A) (A) (A) (A) (A) (A) (A) (A) (A)
                 (A) (A) (A) (A) (A) (A) (A) (A) (A) (A) (A) (A)
                 (A) (A) (A) (A) (A) (A) (A) (A) (A) (A) (A) (A)
                 (A) (A) (A) (A) (A) (A) (A) (A) (A) (A) (A) (A)
                 (A) (A) (A) (A) (A) (A) (A) (A) (A) (A) (A) (A)
                 (A) (A) (A) (A) (A) (A) (A) (A) (A) (A) (A) (A)
 The electronic state is 1-A.
 Alpha  occ. eigenvalues --  -24.21588 -18.81700 -18.76119 -18.74967 -18.73431
 Alpha  occ. eigenvalues --  -11.08142  -7.14982  -7.14916  -7.13377  -3.50726
 Alpha  occ. eigenvalues --   -3.50687  -3.49914  -3.49861  -3.49242  -1.70524
 Alpha  occ. eigenvalues --   -1.01709  -0.97189  -0.96345  -0.90814  -0.86830
 Alpha  occ. eigenvalues --   -0.80392  -0.78648  -0.67652  -0.52307  -0.42351
 Alpha  occ. eigenvalues --   -0.41336  -0.40396  -0.33567  -0.32964  -0.32526
 Alpha  occ. eigenvalues --   -0.31695  -0.30749  -0.28478  -0.27946  -0.27574
 Alpha  occ. eigenvalues --   -0.26880  -0.26547  -0.24182
 Alpha virt. eigenvalues --   -0.10858  -0.10038  -0.09417  -0.08950  -0.08519
 Alpha virt. eigenvalues --   -0.06881  -0.05977  -0.02171  -0.01766   0.00969
 Alpha virt. eigenvalues --    0.01778   0.02192   0.02750   0.05485   0.06110
 Alpha virt. eigenvalues --    0.07035   0.08431   0.10022   0.11174   0.13724
 Alpha virt. eigenvalues --    0.14393   0.20597   0.24595   0.26089   0.26885
 Alpha virt. eigenvalues --    0.27478   0.28095   0.29084   0.29660   0.30780
 Alpha virt. eigenvalues --    0.33359   0.33877   0.36430   0.37527   0.39401
 Alpha virt. eigenvalues --    0.41551   0.42963   0.44201   0.46587   0.48285
 Alpha virt. eigenvalues --    0.48638   0.49620   0.52777   0.54489   0.55169
 Alpha virt. eigenvalues --    0.56105   0.57889   0.61018   0.61455   0.64537
 Alpha virt. eigenvalues --    0.66643   0.67423   0.68803   0.69557   0.72941
 Alpha virt. eigenvalues --    0.74449   0.75532   0.79567   0.85030   0.90461
 Alpha virt. eigenvalues --    1.01476   1.02878   1.06150   1.07820   1.08248
 Alpha virt. eigenvalues --    1.09457   1.10517   1.11878   1.13405   1.14699
 Alpha virt. eigenvalues --    1.15805   1.17424   1.19082   1.19347   1.20799
 Alpha virt. eigenvalues --    1.22558   1.25367   1.27571   1.29692   1.32389
 Alpha virt. eigenvalues --    1.37777   1.41337   1.41752   1.45291   1.48091
 Alpha virt. eigenvalues --    1.49789   1.53483   1.56310   1.58747   1.60320
 Alpha virt. eigenvalues --    1.62336   1.64048   1.65316   1.67823   1.69955
 Alpha virt. eigenvalues --    1.75231   1.76243   1.80903   1.82397   1.84414
 Alpha virt. eigenvalues --    1.88054   1.89272   1.96876   1.97269   2.01190
 Alpha virt. eigenvalues --    2.02687   2.06029   2.08660   2.10446   2.12409
 Alpha virt. eigenvalues --    2.14198   2.16335   2.17625   2.23463   2.25240
 Alpha virt. eigenvalues --    2.27731   2.28777   2.32262   2.36823   2.45605
 Alpha virt. eigenvalues --    2.46917   2.48517   2.52840   2.57081   2.57974
 Alpha virt. eigenvalues --    2.60894   2.62008   2.65835   2.66324   2.67078
 Alpha virt. eigenvalues --    2.81134   2.84571   2.87259   2.94010   2.98757
 Alpha virt. eigenvalues --    3.14833   3.21897   3.23074   3.32278   3.49093
 Alpha virt. eigenvalues --    3.54720   3.62377   3.68762   3.69952   3.74306
 Alpha virt. eigenvalues --    3.79410   3.83413   3.86185   3.87544   3.90137
 Alpha virt. eigenvalues --    4.01460   4.04572   4.21238   4.31928   4.96719
 Alpha virt. eigenvalues --    5.01524   5.02015   5.02528   5.03138   5.04154
 Alpha virt. eigenvalues --    5.05292   5.08679   5.09338   5.10640   5.12854
 Alpha virt. eigenvalues --    5.13778   5.15114   5.17142   5.20985   5.22257
 Alpha virt. eigenvalues --    5.23968   5.25051   5.29963   5.31736   5.33997
 Alpha virt. eigenvalues --    5.34614   5.39866   5.44085   5.84377   6.05256
 Alpha virt. eigenvalues --    6.05779   6.10724   6.12164   6.17262   6.18808
 Alpha virt. eigenvalues --    6.20405   6.21438   6.22199   6.24222   6.29555
 Alpha virt. eigenvalues --    6.34053   6.38909   6.41453   6.50526   6.57394
 Alpha virt. eigenvalues --    6.58917   6.65787   6.72568   6.75215   6.77212
 Alpha virt. eigenvalues --    6.77929   6.78009   6.78126   6.79181   6.83574
[...]
               1
     1  Pa   1.565055
     2  O   -0.696252
     3  O   -0.655798
     4  F   -0.522617
     5  H    0.362716
     6  O   -0.651714
     7  H    0.400583
     8  H    0.402168
     9  H    0.355681
    10  O   -0.559823
 Sum of Mulliken charges =  -0.00000
 Mulliken charges with hydrogens summed into heavy atoms:
               1
     1  Pa   1.565055
     2  O   -0.340571
     3  O   -0.293082
     4  F   -0.522617
     6  O    0.151037
    10  O   -0.559823
 Electronic spatial extent (au):  <R**2>=            952.9925
 Charge=             -0.0000 electrons
 Dipole moment (field-independent basis, Debye):
    X=              9.2854    Y=              2.8056    Z=             -1.0757  Tot=              9.7595
 Quadrupole moment (field-independent basis, Debye-Ang):
   XX=            -55.9551   YY=            -70.8040   ZZ=            -62.9564
   XY=             -0.5227   XZ=             -1.9116   YZ=             -1.1413
 Traceless Quadrupole moment (field-independent basis, Debye-Ang):
   XX=              7.2834   YY=             -7.5655   ZZ=              0.2821
   XY=             -0.5227   XZ=             -1.9116   YZ=             -1.1413
 Octapole moment (field-independent basis, Debye-Ang**2):
  XXX=             90.2236  YYY=             35.2473  ZZZ=            -10.0067  XYY=              2.0466
  XXY=             -0.8636  XXZ=             -2.4461  XZZ=             -3.1948  YZZ=            -13.2876
  YYZ=              8.1377  XYZ=             -0.3082
 Hexadecapole moment (field-independent basis, Debye-Ang**3):
 XXXX=           -311.2589 YYYY=           -371.0850 ZZZZ=           -207.8546 XXXY=              0.4475
 XXXZ=            -14.1516 YYYX=             -6.3704 YYYZ=             22.5276 ZZZX=              2.6413
 ZZZY=            -30.1763 XXYY=           -120.4311 XXZZ=           -129.4889 YYZZ=           -105.2588
 XXYZ=             -0.7870 YYXZ=             -1.6533 ZZXY=              0.8257
 N-N= 4.790836316725D+02 E-N=-2.836898643200D+03  KE= 5.667452615249D+02
 Orbital energies and kinetic energies (alpha):
                                 1                 2
   1         O               -24.215884         37.162303
   2         O               -18.817003         29.113697
   3         O               -18.761189         29.112230
   4         O               -18.749673         29.114042
   5         O               -18.734311         29.110456
   6         O               -11.081417          4.704371
   7         O                -7.149818          5.037232
   8         O                -7.149162          5.037036
   9         O                -7.133768          5.033596
  10         O                -3.507263          6.837330
  11         O                -3.506874          6.837991
  12         O                -3.499137          6.833174
  13         O                -3.498606          6.833266
  14         O                -3.492422          6.829049
  15         O                -1.705241          6.407674
  16         O                -1.017091          3.691297
  17         O                -0.971890          2.718022
  18         O                -0.963446          2.287574
  19         O                -0.908139          2.440106
  20         O                -0.868303          3.082487
  21         O                -0.803917          2.499207
  22         O                -0.786479          2.550449
  23         O                -0.676519          3.195900
  24         O                -0.523069          1.886815
  25         O                -0.423512          2.229133
  26         O                -0.413356          2.621001
  27         O                -0.403963          4.045402
  28         O                -0.335667          3.783669
  29         O                -0.329637          2.729048
  30         O                -0.325260          2.881345
  31         O                -0.316948          2.336610
  32         O                -0.307492          2.660001
  33         O                -0.284778          2.684922
  34         O                -0.279462          2.380375
  35         O                -0.275739          2.750633
  36         O                -0.268796          5.988744
  37         O                -0.265471          2.439080
  38         O                -0.241815          5.487362
  39         V                -0.108577        159.911810
  40         V                -0.100381          6.806025
  41         V                -0.094170          5.390308
  42         V                -0.089504          6.298367
  43         V                -0.085188        105.568034
  44         V                -0.068813         65.116664
  45         V                -0.059775         35.727129
  46         V                -0.021712         15.295593
  47         V                -0.017661         20.364710
  48         V                 0.009690          1.458727
  49         V                 0.017777          2.693091
  50         V                 0.021922          1.004666
  51         V                 0.027500          1.605369
  52         V                 0.054852          1.989655
  53         V                 0.061097          2.051454
  54         V                 0.070345          2.222130
  55         V                 0.084306          6.734878
  56         V                 0.100224          2.159552
  57         V                 0.111737          4.748122
  58         V                 0.137242          1.147202
  59         V                 0.143927          5.229957
  60         V                 0.205967          1.099129
  61         V                 0.245952          1.426272
  62         V                 0.260894          1.515309
  63         V                 0.268851          1.360510
  64         V                 0.274784          1.236291
  65         V                 0.280946          1.265605
  66         V                 0.290839          1.378829
  67         V                 0.296597          1.133790
  68         V                 0.307798          1.552750
  69         V                 0.333594          1.601922
  70         V                 0.338773          1.215381
  71         V                 0.364300          2.356848
  72         V                 0.375271          1.807615
  73         V                 0.394008          1.384508
  74         V                 0.415507          1.578060
  75         V                 0.429631          1.830574
  76         V                 0.442008          1.861262
  77         V                 0.465867          2.156558
  78         V                 0.482852          1.834555
  79         V                 0.486381          1.606905
  80         V                 0.496204          1.615323
  81         V                 0.527768          1.616528
  82         V                 0.544894          1.716344
  83         V                 0.551690          1.536519
  84         V                 0.561053          1.567839
  85         V                 0.578891          1.587143
  86         V                 0.610184          1.564537
  87         V                 0.614550          1.529289
  88         V                 0.645373          5.359167
  89         V                 0.666434          1.584647
  90         V                 0.674229          1.562380
  91         V                 0.688025          1.542442
  92         V                 0.695575          1.667291
  93         V                 0.729408          1.881332
  94         V                 0.744494          1.635827
  95         V                 0.755321          1.686304
  96         V                 0.795669          1.827550
  97         V                 0.850302          1.839389
  98         V                 0.904614          3.067671
  99         V                 1.014761          2.655013
 100         V                 1.028780          2.615335
 101         V                 1.061498          2.324067
 102         V                 1.078196          2.623273
 103         V                 1.082478          2.979632
 104         V                 1.094570          2.835389
 105         V                 1.105172          2.982446
 106         V                 1.118784          2.623596
 107         V                 1.134050          2.865313
 108         V                 1.146987          2.934440
 109         V                 1.158046          2.990326
 110         V                 1.174240          2.941330
 111         V                 1.190819          2.862291
 112         V                 1.193471          2.620833
 113         V                 1.207987          2.585604
 114         V                 1.225581          2.601844
 115         V                 1.253670          3.036257
 116         V                 1.275708          2.900353
 117         V                 1.296922          3.166091
 118         V                 1.323892          2.470468
 119         V                 1.377774          2.445211
 120         V                 1.413373          2.868041
 121         V                 1.417522          3.365815
 122         V                 1.452905          3.123175
 123         V                 1.480911          3.060778
 124         V                 1.497892          3.039914
 125         V                 1.534830          3.008653
 126         V                 1.563103          3.295184
 127         V                 1.587467          3.232052
 128         V                 1.603201          3.628226
 129         V                 1.623357          3.129123
 130         V                 1.640479          3.348852
 131         V                 1.653164          3.028560
 132         V                 1.678230          3.142316
 133         V                 1.699548          3.094716
 134         V                 1.752314          3.108408
 135         V                 1.762427          3.379630
 136         V                 1.809034          3.809109
 137         V                 1.823966          3.367102
 138         V                 1.844137          3.640478
 139         V                 1.880541          3.532956
 140         V                 1.892721          3.572678
 141         V                 1.968759          3.165885
 142         V                 1.972688          3.265802
 143         V                 2.011901          3.574840
 144         V                 2.026871          2.938953
 145         V                 2.060289          3.688997
 146         V                 2.086604          3.848245
 147         V                 2.104457          3.470851
 148         V                 2.124091          3.786039
 149         V                 2.141976          3.846884
 150         V                 2.163354          3.632356
 151         V                 2.176248          4.098412
 152         V                 2.234625          4.281897
 153         V                 2.252396          4.204205
 154         V                 2.277311          4.254396
 155         V                 2.287771          3.884896
 156         V                 2.322621          5.650202
 157         V                 2.368231          4.299635
 158         V                 2.456045          4.318218
 159         V                 2.469171          4.204457
 160         V                 2.485165          4.146828
 161         V                 2.528400          6.655256
 162         V                 2.570807          5.646897
 163         V                 2.579742          5.016647
 164         V                 2.608943          6.664896
 165         V                 2.620077          6.834032
 166         V                 2.658349          5.764059
 167         V                 2.663240          5.901213
 168         V                 2.670783          5.841078
 169         V                 2.811337          6.965962
 170         V                 2.845710          6.736037
 171         V                 2.872586          6.676628
 172         V                 2.940098          6.916076
 173         V                 2.987566          7.476898
 174         V                 3.148325          7.504920
 175         V                 3.218973          8.777793
 176         V                 3.230736          8.677619
 177         V                 3.322776          8.543034
 178         V                 3.490928          8.182980
 179         V                 3.547197          6.907778
 180         V                 3.623774          8.238041
 181         V                 3.687621          8.251621
 182         V                 3.699517          7.143152
 183         V                 3.743059          8.709786
 184         V                 3.794099          7.665990
 185         V                 3.834128          9.432559
 186         V                 3.861845          9.279797
 187         V                 3.875445          9.293473
 188         V                 3.901371          8.672497
 189         V                 4.014601         10.132905
 190         V                 4.045718          9.670881
 191         V                 4.212384          9.753876
 192         V                 4.319284          9.463970
 193         V                 4.967193          6.537294
 194         V                 5.015240          6.449857
 195         V                 5.020148          6.490894
 196         V                 5.025283          6.456451
 197         V                 5.031384          6.520126
 198         V                 5.041537          6.459742
 199         V                 5.052922          6.471755
 200         V                 5.086788          6.774975
 201         V                 5.093376          6.700096
 202         V                 5.106395          6.596713
 203         V                 5.128539          6.699498
 204         V                 5.137776          6.791268
 205         V                 5.151138          6.743994
 206         V                 5.171416          6.864023
 207         V                 5.209849          6.895650
 208         V                 5.222565          6.958387
 209         V                 5.239679          6.914083
 210         V                 5.250515          6.830209
 211         V                 5.299625          7.696633
 212         V                 5.317365          6.919974
 213         V                 5.339973          7.068136
 214         V                 5.346137          7.092227
 215         V                 5.398664          7.303952
 216         V                 5.440849          7.200646
 217         V                 5.843770          8.528068
 218         V                 6.052561          9.783830
 219         V                 6.057793          9.553633
 220         V                 6.107237          9.026227
 221         V                 6.121641         10.483478
 222         V                 6.172618          9.273976
 223         V                 6.188079          9.337502
 224         V                 6.204045          9.398104
 225         V                 6.214380          9.377207
 226         V                 6.221991          9.436700
 227         V                 6.242216          9.402229
 228         V                 6.295549          9.404387
 229         V                 6.340534          9.456697
 230         V                 6.389092          9.631368
 231         V                 6.414530          9.614911
 232         V                 6.505263          9.967249
 233         V                 6.573936          9.730497
 234         V                 6.589173          9.644243
 235         V                 6.657867         10.551199
 236         V                 6.725678          9.957852
 237         V                 6.752150          9.829053
 238         V                 6.772117          9.354013
 239         V                 6.779293          8.641085
 240         V                 6.780092          8.672166
 241         V                 6.781264          8.650754
 242         V                 6.791807          8.976535
 243         V                 6.835741          8.834843
 244         V                 6.855271          8.852591
 245         V                 6.859132          9.748569
 246         V                 6.886690         10.183856
 247         V                 6.917792          9.772124
 248         V                 7.002582         10.551958
 249         V                 7.169992         13.181224
 250         V                 7.263278         13.048977
 251         V                 7.471866         13.681328
 252         V                 8.079472         15.327370
 253         V                 8.146718         15.173087
 254         V                 8.162173         12.650442
 255         V                 8.195675         12.583436
 256         V                 8.210982         15.508867
 257         V                 8.364598         13.220428
 258         V                 8.404669         13.230214
 259         V                 8.502505         14.822223
 260         V                 8.771125         14.924894
 261         V                 9.032391         15.400708
 262         V                29.307429         36.017482
 263         V                29.338031         36.041356
 264         V                29.485476         36.173146
 265         V                43.043657        108.461966
 266         V                43.176688        108.525227
 267         V                43.374033        108.712105
 268         V                43.524680        108.857520
 269         V                54.097054         39.996952
 270         V                56.595047        141.531711
 271         V                70.223709         83.936278
 272         V                70.237808         83.974311
 273         V                70.328162         84.118038
 274         V               142.605069        242.411252
 275         V               142.635268        242.448705
 276         V               142.800869        242.655330
 277         V               202.602889        130.080128
 278         V               626.113390       1034.501608
 Total kinetic energy from orbitals= 5.667452615249D+02
 No NMR shielding tensors so no spin-rotation constants.
 Leave Link  601 at Tue Jul  4 13:39:03 2023, MaxMem=  2147483648 cpu:               2.8 elap:               0.4
 (Enter /home/pcmt/gaussian/g16.C.01/g16/l9999.exe)

 Test job not archived.
 1\1\GINC-U-0-13\SP\RBP86\Gen\F1H4O4Pa1\ROOT\04-Jul-2023\0\\#p BP86/GEN
  Pseudo=Read GFInput GFPrint IOP(6/7=3) Symm=(Loose) Int=(UltraFine) G
 uess=(Harris) SCRF=(COSMORS) Scf=(NoVarAcc,MaxCycle=100,conver=8)\\pao
 _oh2_f_h2o-bp86-cosmors-deftzvp-klamt.com SGP in PCM calculation\\0,1\
 Pa,0,-0.1969692901,0.0605402353,0.828725729\O,0,1.1125883588,1.4696129
 407,-0.142180112\O,0,-1.7943207446,0.8073502437,-0.3457718967\F,0,-0.7
 299131242,1.3514505036,2.5044142831\H,0,-1.9397819163,1.6281255332,-0.
 8344157004\O,0,0.0593002438,-1.6471956802,-1.0085967688\H,0,-0.3644882
 599,-1.6142486042,-1.8761336395\H,0,0.7674829863,-2.3018569204,-1.0622
 52825\H,0,2.0644176933,1.5522123674,-0.0121880779\O,0,1.1403964296,-0.
 8847919337,1.7332206471\\Version=ES64L-G16RevC.01\State=1-A\HF=-845.29
 60303\RMSD=5.951e-09\Dipole=-0.4860162,-2.1540136,-3.1411889\Quadrupol
 e=-1.991737,2.1760275,-0.1842905,1.6933924,-2.1587458,4.6365123\PG=C01
  [X(F1H4O4Pa1)]\\@


 IF YOU PERCEIVE THAT THERE ARE FOUR POSSIBLE WAYS IN
 WHICH A PROCEDURE CAN GO WRONG AND CIRCUMVENT THESE, 
 THEN A FIFTH WAY WILL DEVELOP.

                              -- MURPHY'S TWELFTH LAW
 Job cpu time:       0 days  0 hours 12 minutes  1.2 seconds.
 Elapsed time:       0 days  0 hours  2 minutes  1.1 seconds.
 File lengths (MBytes):  RWF=     41 Int=      0 D2E=      0 Chk=      6 Scr=      1
 Normal termination of Gaussian 16 at Tue Jul  4 13:39:03 2023.
