 Entering Gaussian System, Link 0=/home/pcmt/gaussian/g16.C.01/g16/g16
 AtFile(1): /home/shaaban/basis.gaussian/Pa-def-TZVP
 AtFile(1): /home/shaaban/basis.gaussian/Pa-ECP60MWB
 Initial command:
 /home/pcmt/gaussian/g16.C.01/g16/l1.exe "/state/partition2/shaaban/972848.phlam-s-sakura/Gau-146323.inp" -scrdir="/state/partition2/shaaban/972848.phlam-s-sakura/"
 Entering Link 1 = /home/pcmt/gaussian/g16.C.01/g16/l1.exe PID=    146324.
  
 Copyright (c) 1988-2019, Gaussian, Inc.  All Rights Reserved.
  
 This is part of the Gaussian(R) 16 program.  It is based on
 the Gaussian(R) 09 system (copyright 2009, Gaussian, Inc.),
 the Gaussian(R) 03 system (copyright 2003, Gaussian, Inc.),
 the Gaussian(R) 98 system (copyright 1998, Gaussian, Inc.),
 the Gaussian(R) 94 system (copyright 1995, Gaussian, Inc.),
 the Gaussian 92(TM) system (copyright 1992, Gaussian, Inc.),
 the Gaussian 90(TM) system (copyright 1990, Gaussian, Inc.),
 the Gaussian 88(TM) system (copyright 1988, Gaussian, Inc.),
 the Gaussian 86(TM) system (copyright 1986, Carnegie Mellon
 University), and the Gaussian 82(TM) system (copyright 1983,
 Carnegie Mellon University). Gaussian is a federally registered
 trademark of Gaussian, Inc.
  
 This software contains proprietary and confidential information,
 including trade secrets, belonging to Gaussian, Inc.
  
 This software is provided under written license and may be
 used, copied, transmitted, or stored only in accord with that
 written license.
  
 The following legend is applicable only to US Government
 contracts under FAR:
  
                    RESTRICTED RIGHTS LEGEND
  
 Use, reproduction and disclosure by the US Government is
 subject to restrictions as set forth in subparagraphs (a)
 and (c) of the Commercial Computer Software - Restricted
 Rights clause in FAR 52.227-19.
  
 Gaussian, Inc.
 340 Quinnipiac St., Bldg. 40, Wallingford CT 06492
  
  
 ---------------------------------------------------------------
 Warning -- This program may not be used in any manner that
 competes with the business of Gaussian, Inc. or will provide
 assistance to any competitor of Gaussian, Inc.  The licensee
 of this program is prohibited from giving any competitor of
 Gaussian, Inc. access to this program.  By using this program,
 the user acknowledges that Gaussian, Inc. is engaged in the
 business of creating and licensing software in the field of
 computational chemistry and represents and warrants to the
 licensee that it is not a competitor of Gaussian, Inc. and that
 it will not use this program in any manner prohibited above.
 ---------------------------------------------------------------
  

 Cite this work as:
 Gaussian 16, Revision C.01,
 M. J. Frisch, G. W. Trucks, H. B. Schlegel, G. E. Scuseria, 
 M. A. Robb, J. R. Cheeseman, G. Scalmani, V. Barone, 
 G. A. Petersson, H. Nakatsuji, X. Li, M. Caricato, A. V. Marenich, 
 J. Bloino, B. G. Janesko, R. Gomperts, B. Mennucci, H. P. Hratchian, 
 J. V. Ortiz, A. F. Izmaylov, J. L. Sonnenberg, D. Williams-Young, 
 F. Ding, F. Lipparini, F. Egidi, J. Goings, B. Peng, A. Petrone, 
 T. Henderson, D. Ranasinghe, V. G. Zakrzewski, J. Gao, N. Rega, 
 G. Zheng, W. Liang, M. Hada, M. Ehara, K. Toyota, R. Fukuda, 
 J. Hasegawa, M. Ishida, T. Nakajima, Y. Honda, O. Kitao, H. Nakai, 
 T. Vreven, K. Throssell, J. A. Montgomery, Jr., J. E. Peralta, 
 F. Ogliaro, M. J. Bearpark, J. J. Heyd, E. N. Brothers, K. N. Kudin, 
 V. N. Staroverov, T. A. Keith, R. Kobayashi, J. Normand, 
 K. Raghavachari, A. P. Rendell, J. C. Burant, S. S. Iyengar, 
 J. Tomasi, M. Cossi, J. M. Millam, M. Klene, C. Adamo, R. Cammi, 
 J. W. Ochterski, R. L. Martin, K. Morokuma, O. Farkas, 
 J. B. Foresman, and D. J. Fox, Gaussian, Inc., Wallingford CT, 2019.
 
 ******************************************
 Gaussian 16:  ES64L-G16RevC.01  3-Jul-2019
                 4-Jul-2023 
 ******************************************
 %mem=16Gb
 %NProc=8
 Will use up to    8 processors via shared memory.
 %chk=pao_oh2_f_h2o-bp86-cosmors-deftzvp-gp.chk
 ----------------------------------------------------------------------
 #p BP86/GEN Pseudo=Read GFInput GFPrint IOP(6/7=3) Symm=(Loose) Int=(U
 ltraFine) Guess=(Harris) Scf=(NoVarAcc,MaxCycle=100,conver=8)
 ----------------------------------------------------------------------
 1/38=1,172=1/1;
 2/12=2,17=4,18=3,40=1/2;
 3/5=7,11=2,16=1,17=8,24=110,25=1,30=1,74=404,75=-5/1,2,3;
 4/11=8/1;
 5/5=2,6=8,7=100,38=1/2;
 6/7=3,8=2,9=2,10=2,28=1/1;
 99/5=1,9=1/99;
 Leave Link    1 at Tue Jul  4 10:04:41 2023, MaxMem=  2147483648 cpu:               0.7 elap:               0.1
 (Enter /home/pcmt/gaussian/g16.C.01/g16/l101.exe)
 ----------------------------------------------------------------
 pao_oh2_f_h2o-bp86-cosmors-deftzvp-gp.com SGP in PCM calculation
 ----------------------------------------------------------------
 Symbolic Z-matrix:
 Charge =  0 Multiplicity = 1
 Pa                   -0.19697   0.06054   0.82873 
 O                     1.11259   1.46961  -0.14218 
 O                    -1.79432   0.80735  -0.34577 
 F                    -0.72991   1.35145   2.50441 
 H                    -1.93978   1.62813  -0.83442 
 O                     0.0593   -1.6472   -1.0086 
 H                    -0.36449  -1.61425  -1.87613 
 H                     0.76748  -2.30186  -1.06225 
 H                     2.06442   1.55221  -0.01219 
 O                     1.1404   -0.88479   1.73322 
 
 ITRead=  0  0  0  0  0  0  0  0  0  0
 MicOpt= -1 -1 -1 -1 -1 -1 -1 -1 -1 -1
 NAtoms=     10 NQM=       10 NQMF=       0 NMMI=      0 NMMIF=      0
                NMic=       0 NMicF=      0.
                    Isotopes and Nuclear Properties:
 (Nuclear quadrupole moments (NQMom) in fm**2, nuclear magnetic moments (NMagM)
  in nuclear magnetons)

  Atom         1           2           3           4           5           6           7           8           9          10
 IAtWgt=         231          16          16          19           1          16           1           1           1          16
 AtmWgt= 231.0359000  15.9949146  15.9949146  18.9984032   1.0078250  15.9949146   1.0078250   1.0078250   1.0078250  15.9949146
 NucSpn=           3           0           0           1           1           0           1           1           1           0
 AtZEff=  -0.0000000  -0.0000000  -0.0000000  -0.0000000  -0.0000000  -0.0000000  -0.0000000  -0.0000000  -0.0000000  -0.0000000
 NQMom= -172.0000000   0.0000000   0.0000000   0.0000000   0.0000000   0.0000000   0.0000000   0.0000000   0.0000000   0.0000000
 NMagM=    2.0100000   0.0000000   0.0000000   2.6288670   2.7928460   0.0000000   2.7928460   2.7928460   2.7928460   0.0000000
 AtZNuc=  91.0000000   8.0000000   8.0000000   9.0000000   1.0000000   8.0000000   1.0000000   1.0000000   1.0000000   8.0000000
 Leave Link  101 at Tue Jul  4 10:04:41 2023, MaxMem=  2147483648 cpu:               0.7 elap:               0.1
 (Enter /home/pcmt/gaussian/g16.C.01/g16/l202.exe)
                          Input orientation:                          
 ---------------------------------------------------------------------
 Center     Atomic      Atomic             Coordinates (Angstroms)
 Number     Number       Type             X           Y           Z
 ---------------------------------------------------------------------
      1         91           0       -0.196969    0.060540    0.828726
      2          8           0        1.112588    1.469613   -0.142180
      3          8           0       -1.794321    0.807350   -0.345772
      4          9           0       -0.729913    1.351451    2.504414
      5          1           0       -1.939782    1.628126   -0.834416
      6          8           0        0.059300   -1.647196   -1.008597
      7          1           0       -0.364488   -1.614249   -1.876134
      8          1           0        0.767483   -2.301857   -1.062253
      9          1           0        2.064418    1.552212   -0.012188
     10          8           0        1.140396   -0.884792    1.733221
 ---------------------------------------------------------------------
                    Distance matrix (angstroms):
                    1          2          3          4          5
     1  Pa   0.000000
     2  O    2.154782   0.000000
     3  O    2.118656   2.988338   0.000000
     4  F    2.181378   3.226955   3.090723   0.000000
     5  H    2.874154   3.133892   0.966232   3.562038   0.000000
     6  O    2.521466   3.402145   3.146433   4.685721   3.841145
     7  H    3.185788   3.833869   3.201651   5.302651   3.752295
     8  H    3.175986   3.897386   4.091864   5.320711   4.777652
     9  H    2.836564   0.964209   3.944104   3.765883   4.088451
    10  O    1.870912   3.010170   3.974685   3.015556   4.732337
                    6          7          8          9         10
     6  O    0.000000
     7  H    0.966076   0.000000
     8  H    0.965911   1.554531   0.000000
     9  H    3.905066   4.404583   4.199824   0.000000
    10  O    3.044272   3.977967   3.156233   3.136759   0.000000
 Stoichiometry    FH4O4Pa
 Framework group  C1[X(FH4O4Pa)]
 Deg. of freedom    24
 Full point group                 C1      NOp   1
 Largest Abelian subgroup         C1      NOp   1
 Largest concise Abelian subgroup C1      NOp   1
                         Standard orientation:                         
 ---------------------------------------------------------------------
 Center     Atomic      Atomic             Coordinates (Angstroms)
 Number     Number       Type             X           Y           Z
 ---------------------------------------------------------------------
      1         91           0       -0.066824   -0.052343   -0.113122
      2          8           0       -0.057764    0.175859    2.029522
      3          8           0        0.057860    2.055143   -0.291057
      4          9           0       -2.235653   -0.015985   -0.343921
      5          1           0       -0.139850    2.790481    0.303748
      6          8           0        2.449317    0.010573   -0.264342
      7          1           0        3.001705    0.800105   -0.195003
      8          1           0        3.030408   -0.753738   -0.158777
      9          1           0       -0.054830   -0.533810    2.682256
     10          8           0        0.096140   -1.916072   -0.129473
 ---------------------------------------------------------------------
 Rotational constants (GHZ):           2.3218389           1.7357881           1.4568802
 Leave Link  202 at Tue Jul  4 10:04:41 2023, MaxMem=  2147483648 cpu:               0.1 elap:               0.0
 (Enter /home/pcmt/gaussian/g16.C.01/g16/l301.exe)
 General basis read from cards:  (5D, 7F)
 Centers:       1
 S 3 1.00
     Exponent=  1.2047376000D+04 Coefficients=  3.4500000000D-04
     Exponent=  1.8116841000D+03 Coefficients=  2.7420000000D-03
     Exponent=  3.4770104000D+02 Coefficients=  1.0053000000D-02
 S 1 1.00
     Exponent=  9.8678010000D+01 Coefficients=  1.0000000000D+00
 S 3 1.00
     Exponent=  5.7507376000D+01 Coefficients=  5.1528000000D-02
     Exponent=  3.3502601000D+01 Coefficients= -2.3692400000D-01
     Exponent=  1.9554451000D+01 Coefficients=  7.1904800000D-01
 S 1 1.00
     Exponent=  9.7164210000D+00 Coefficients=  1.0000000000D+00
 S 1 1.00
     Exponent=  2.6920960000D+00 Coefficients=  1.0000000000D+00
 S 1 1.00
     Exponent=  1.4538470000D+00 Coefficients=  1.0000000000D+00
 S 1 1.00
     Exponent=  5.7435200000D-01 Coefficients=  1.0000000000D+00
 S 1 1.00
     Exponent=  2.6346800000D-01 Coefficients=  1.0000000000D+00
 S 1 1.00
     Exponent=  5.6557000000D-02 Coefficients=  1.0000000000D+00
 S 1 1.00
     Exponent=  2.3169000000D-02 Coefficients=  1.0000000000D+00
 P 5 1.00
     Exponent=  2.9033676000D+03 Coefficients=  3.5000000000D-05
     Exponent=  6.4486356000D+02 Coefficients=  2.0500000000D-04
     Exponent=  2.2025896000D+02 Coefficients=  1.2510000000D-03
     Exponent=  8.0276401000D+01 Coefficients=  2.4570000000D-03
     Exponent=  2.4080211000D+01 Coefficients=  1.1190000000D-02
 P 1 1.00
     Exponent=  1.4077580000D+01 Coefficients=  1.0000000000D+00
 P 1 1.00
     Exponent=  8.2658460000D+00 Coefficients=  1.0000000000D+00
 P 1 1.00
     Exponent=  3.5948000000D+00 Coefficients=  1.0000000000D+00
 P 1 1.00
     Exponent=  1.7531110000D+00 Coefficients=  1.0000000000D+00
 P 1 1.00
     Exponent=  6.5776700000D-01 Coefficients=  1.0000000000D+00
 P 1 1.00
     Exponent=  2.8463900000D-01 Coefficients=  1.0000000000D+00
 P 1 1.00
     Exponent=  1.0054300000D-01 Coefficients=  1.0000000000D+00
 P 1 1.00
     Exponent=  3.0190000000D-02 Coefficients=  1.0000000000D+00
 D 6 1.00
     Exponent=  4.4814991000D+02 Coefficients=  2.6000000000D-05
     Exponent=  1.5446145000D+02 Coefficients=  2.2800000000D-04
     Exponent=  6.0925377000D+01 Coefficients=  9.0400000000D-04
     Exponent=  1.7032091000D+01 Coefficients=  2.5647000000D-02
     Exponent=  1.0018877000D+01 Coefficients= -1.0575100000D-01
     Exponent=  3.4091930000D+00 Coefficients=  4.4743200000D-01
 D 1 1.00
     Exponent=  1.6702130000D+00 Coefficients=  1.0000000000D+00
 D 1 1.00
     Exponent=  7.4109500000D-01 Coefficients=  1.0000000000D+00
 D 1 1.00
     Exponent=  2.6139300000D-01 Coefficients=  1.0000000000D+00
 D 1 1.00
     Exponent=  8.2811000000D-02 Coefficients=  1.0000000000D+00
 F 5 1.00
     Exponent=  8.7991327000D+01 Coefficients=  2.2600000000D-04
     Exponent=  2.8340195000D+01 Coefficients=  2.3230000000D-03
     Exponent=  1.2440994000D+01 Coefficients=  4.5850000000D-03
     Exponent=  3.9572960000D+00 Coefficients=  1.5696100000D-01
     Exponent=  1.8759440000D+00 Coefficients=  3.4497700000D-01
 F 1 1.00
     Exponent=  8.2758900000D-01 Coefficients=  1.0000000000D+00
 F 1 1.00
     Exponent=  3.3274800000D-01 Coefficients=  1.0000000000D+00
 F 1 1.00
     Exponent=  1.1468500000D-01 Coefficients=  1.0000000000D+00
 G 1 1.00
     Exponent=  3.5000000000D-01 Coefficients=  1.0000000000D+00
 ****
 Centers:       2      3      6     10
 Def2TZVP
 ****
 Centers:       5      7      8      9
 Def2TZVP
 ****
 Centers:       4
 Def2TZVP
 ****
 ======================================================================================================
                                       Pseudopotential Parameters
 ======================================================================================================
  Center     Atomic      Valence      Angular      Power
  Number     Number     Electrons     Momentum     of R      Exponent        Coefficient   SO-Coeffient
 ======================================================================================================
    1         91           31
                                      H and up 
                                                     2        1.0000000        0.00000000    0.00000000
                                      S - H
                                                     2       15.2691737      475.47573283    0.00000000
                                      P - H
                                                     2        9.9577370      207.66485962    0.00000000
                                      D - H
                                                     2        8.9431413      156.67411988    0.00000000
                                      F - H
                                                     2        7.0104666       67.98223685    0.00000000
                                      G - H
                                                     2       12.2010560      -57.63059989    0.00000000
    2          8
                                   No pseudopotential on this center.
    3          8
                                   No pseudopotential on this center.
    4          9
                                   No pseudopotential on this center.
    5          1
                                   No pseudopotential on this center.
    6          8
                                   No pseudopotential on this center.
    7          1
                                   No pseudopotential on this center.
    8          1
                                   No pseudopotential on this center.
    9          1
                                   No pseudopotential on this center.
   10          8
                                   No pseudopotential on this center.
 ======================================================================================================
 Ernie: Thresh=  0.10000D-02 Tol=  0.10000D-05 Strict=F.
 AO basis set in the form of general basis input (Overlap normalization):
      1 0
 S   3 1.00       0.000000000000
      0.1204737600D+05  0.2857094961D-01
      0.1811684100D+04  0.2270769386D+00
      0.3477010400D+03  0.8325326273D+00
 S   3 1.00       0.000000000000
      0.5750737600D+02  0.9569327984D-01
      0.3350260100D+02 -0.4399944619D+00
      0.1955445100D+02  0.1335352847D+01
 S   1 1.00       0.000000000000
      0.9867801000D+02  0.1000000000D+01
 S   1 1.00       0.000000000000
      0.9716421000D+01  0.1000000000D+01
 S   1 1.00       0.000000000000
      0.2692096000D+01  0.1000000000D+01
 S   1 1.00       0.000000000000
      0.1453847000D+01  0.1000000000D+01
 S   1 1.00       0.000000000000
      0.5743520000D+00  0.1000000000D+01
 S   1 1.00       0.000000000000
      0.2634680000D+00  0.1000000000D+01
 S   1 1.00       0.000000000000
      0.5655700000D-01  0.1000000000D+01
 S   1 1.00       0.000000000000
      0.2316900000D-01  0.1000000000D+01
 P   5 1.00       0.000000000000
      0.2903367600D+04  0.2594222647D-02
      0.6448635600D+03  0.1519473264D-01
      0.2202589600D+03  0.9272492945D-01
      0.8027640100D+02  0.1821144298D+00
      0.2408021100D+02  0.8294100404D+00
 P   1 1.00       0.000000000000
      0.1407758000D+02  0.1000000000D+01
 P   1 1.00       0.000000000000
      0.8265846000D+01  0.1000000000D+01
 P   1 1.00       0.000000000000
      0.3594800000D+01  0.1000000000D+01
 P   1 1.00       0.000000000000
      0.1753111000D+01  0.1000000000D+01
 P   1 1.00       0.000000000000
      0.6577670000D+00  0.1000000000D+01
 P   1 1.00       0.000000000000
      0.2846390000D+00  0.1000000000D+01
 P   1 1.00       0.000000000000
      0.1005430000D+00  0.1000000000D+01
 P   1 1.00       0.000000000000
      0.3019000000D-01  0.1000000000D+01
 D   6 1.00       0.000000000000
      0.4481499100D+03  0.6556927566D-04
      0.1544614500D+03  0.5749921096D-03
      0.6092537700D+02  0.2279793277D-02
      0.1703209100D+02  0.6467904664D-01
      0.1001887700D+02 -0.2666929411D+00
      0.3409193000D+01  0.1128376621D+01
 D   1 1.00       0.000000000000
      0.1670213000D+01  0.1000000000D+01
 D   1 1.00       0.000000000000
      0.7410950000D+00  0.1000000000D+01
 D   1 1.00       0.000000000000
      0.2613930000D+00  0.1000000000D+01
 D   1 1.00       0.000000000000
      0.8281100000D-01  0.1000000000D+01
 F   5 1.00       0.000000000000
      0.8799132700D+02  0.4766318191D-03
      0.2834019500D+02  0.4899184583D-02
      0.1244099400D+02  0.9669720755D-02
      0.3957296000D+01  0.3310292343D+00
      0.1875944000D+01  0.7275531640D+00
 F   1 1.00       0.000000000000
      0.8275890000D+00  0.1000000000D+01
 F   1 1.00       0.000000000000
      0.3327480000D+00  0.1000000000D+01
 F   1 1.00       0.000000000000
      0.1146850000D+00  0.1000000000D+01
 G   1 1.00       0.000000000000
      0.3500000000D+00  0.1000000000D+01
 ****
      2 0
 S   6 1.00       0.000000000000
      0.2703238263D+05  0.5722733521D-03
      0.4052387139D+04  0.4435323349D-02
      0.9223272271D+03  0.2302010771D-01
      0.2612407099D+03  0.9282249067D-01
      0.8535464135D+02  0.2937850001D+00
      0.3103503524D+02  0.6740160450D+00
 S   2 1.00       0.000000000000
      0.1226086073D+02  0.6383993703D+00
      0.4998707601D+01  0.3953458713D+00
 S   1 1.00       0.000000000000
      0.1170310816D+01  0.1000000000D+01
 S   1 1.00       0.000000000000
      0.4647474099D+00  0.1000000000D+01
 S   1 1.00       0.000000000000
      0.1850453636D+00  0.1000000000D+01
 P   4 1.00       0.000000000000
      0.6327495480D+02  0.1201833222D-01
      0.1462704938D+02  0.8300542179D-01
      0.4450122346D+01  0.3199174393D+00
      0.1527579965D+01  0.7071554292D+00
 P   1 1.00       0.000000000000
      0.5293511794D+00  0.1000000000D+01
 P   1 1.00       0.000000000000
      0.1747842127D+00  0.1000000000D+01
 D   1 1.00       0.000000000000
      0.2314000000D+01  0.1000000000D+01
 D   1 1.00       0.000000000000
      0.6450000000D+00  0.1000000000D+01
 F   1 1.00       0.000000000000
      0.1428000000D+01  0.1000000000D+01
 ****
      3 0
 S   6 1.00       0.000000000000
      0.2703238263D+05  0.5722733521D-03
      0.4052387139D+04  0.4435323349D-02
      0.9223272271D+03  0.2302010771D-01
      0.2612407099D+03  0.9282249067D-01
      0.8535464135D+02  0.2937850001D+00
      0.3103503524D+02  0.6740160450D+00
 S   2 1.00       0.000000000000
      0.1226086073D+02  0.6383993703D+00
      0.4998707601D+01  0.3953458713D+00
 S   1 1.00       0.000000000000
      0.1170310816D+01  0.1000000000D+01
 S   1 1.00       0.000000000000
      0.4647474099D+00  0.1000000000D+01
 S   1 1.00       0.000000000000
      0.1850453636D+00  0.1000000000D+01
 P   4 1.00       0.000000000000
      0.6327495480D+02  0.1201833222D-01
      0.1462704938D+02  0.8300542179D-01
      0.4450122346D+01  0.3199174393D+00
      0.1527579965D+01  0.7071554292D+00
 P   1 1.00       0.000000000000
      0.5293511794D+00  0.1000000000D+01
 P   1 1.00       0.000000000000
      0.1747842127D+00  0.1000000000D+01
 D   1 1.00       0.000000000000
      0.2314000000D+01  0.1000000000D+01
 D   1 1.00       0.000000000000
      0.6450000000D+00  0.1000000000D+01
 F   1 1.00       0.000000000000
      0.1428000000D+01  0.1000000000D+01
 ****
      4 0
 S   6 1.00       0.000000000000
      0.3547910044D+05  0.5618499111D-03
      0.5318472898D+04  0.4355197381D-02
      0.1210481098D+04  0.2261824715D-01
      0.3428551814D+03  0.9140305514D-01
      0.1120194318D+03  0.2911687069D+00
      0.4071474025D+02  0.6777270856D+00
 S   2 1.00       0.000000000000
      0.1603967811D+02  0.6329641788D+00
      0.6503818674D+01  0.4013647573D+00
 S   1 1.00       0.000000000000
      0.1544047751D+01  0.1000000000D+01
 S   1 1.00       0.000000000000
      0.6122345286D+00  0.1000000000D+01
 S   1 1.00       0.000000000000
      0.2402797970D+00  0.1000000000D+01
 P   4 1.00       0.000000000000
      0.8023390048D+02  0.1232134514D-01
      0.1859401074D+02  0.8571339535D-01
      0.5686790265D+01  0.3263310550D+00
      0.1951100629D+01  0.6997111464D+00
 P   1 1.00       0.000000000000
      0.6697021130D+00  0.1000000000D+01
 P   1 1.00       0.000000000000
      0.2165130041D+00  0.1000000000D+01
 D   1 1.00       0.000000000000
      0.3107000000D+01  0.1000000000D+01
 D   1 1.00       0.000000000000
      0.8550000000D+00  0.1000000000D+01
 F   1 1.00       0.000000000000
      0.1917000000D+01  0.1000000000D+01
 ****
      5 0
 S   3 1.00       0.000000000000
      0.3406134100D+02  0.2543930721D-01
      0.5123574600D+01  0.1900859489D+00
      0.1164662600D+01  0.8524411301D+00
 S   1 1.00       0.000000000000
      0.3272304100D+00  0.1000000000D+01
 S   1 1.00       0.000000000000
      0.1030724100D+00  0.1000000000D+01
 P   1 1.00       0.000000000000
      0.8000000000D+00  0.1000000000D+01
 ****
      6 0
 S   6 1.00       0.000000000000
      0.2703238263D+05  0.5722733521D-03
      0.4052387139D+04  0.4435323349D-02
      0.9223272271D+03  0.2302010771D-01
      0.2612407099D+03  0.9282249067D-01
      0.8535464135D+02  0.2937850001D+00
      0.3103503524D+02  0.6740160450D+00
 S   2 1.00       0.000000000000
      0.1226086073D+02  0.6383993703D+00
      0.4998707601D+01  0.3953458713D+00
 S   1 1.00       0.000000000000
      0.1170310816D+01  0.1000000000D+01
 S   1 1.00       0.000000000000
      0.4647474099D+00  0.1000000000D+01
 S   1 1.00       0.000000000000
      0.1850453636D+00  0.1000000000D+01
 P   4 1.00       0.000000000000
      0.6327495480D+02  0.1201833222D-01
      0.1462704938D+02  0.8300542179D-01
      0.4450122346D+01  0.3199174393D+00
      0.1527579965D+01  0.7071554292D+00
 P   1 1.00       0.000000000000
      0.5293511794D+00  0.1000000000D+01
 P   1 1.00       0.000000000000
      0.1747842127D+00  0.1000000000D+01
 D   1 1.00       0.000000000000
      0.2314000000D+01  0.1000000000D+01
 D   1 1.00       0.000000000000
      0.6450000000D+00  0.1000000000D+01
 F   1 1.00       0.000000000000
      0.1428000000D+01  0.1000000000D+01
 ****
      7 0
 S   3 1.00       0.000000000000
      0.3406134100D+02  0.2543930721D-01
      0.5123574600D+01  0.1900859489D+00
      0.1164662600D+01  0.8524411301D+00
 S   1 1.00       0.000000000000
      0.3272304100D+00  0.1000000000D+01
 S   1 1.00       0.000000000000
      0.1030724100D+00  0.1000000000D+01
 P   1 1.00       0.000000000000
      0.8000000000D+00  0.1000000000D+01
 ****
      8 0
 S   3 1.00       0.000000000000
      0.3406134100D+02  0.2543930721D-01
      0.5123574600D+01  0.1900859489D+00
      0.1164662600D+01  0.8524411301D+00
 S   1 1.00       0.000000000000
      0.3272304100D+00  0.1000000000D+01
 S   1 1.00       0.000000000000
      0.1030724100D+00  0.1000000000D+01
 P   1 1.00       0.000000000000
      0.8000000000D+00  0.1000000000D+01
 ****
      9 0
 S   3 1.00       0.000000000000
      0.3406134100D+02  0.2543930721D-01
      0.5123574600D+01  0.1900859489D+00
      0.1164662600D+01  0.8524411301D+00
 S   1 1.00       0.000000000000
      0.3272304100D+00  0.1000000000D+01
 S   1 1.00       0.000000000000
      0.1030724100D+00  0.1000000000D+01
 P   1 1.00       0.000000000000
      0.8000000000D+00  0.1000000000D+01
 ****
     10 0
 S   6 1.00       0.000000000000
      0.2703238263D+05  0.5722733521D-03
      0.4052387139D+04  0.4435323349D-02
      0.9223272271D+03  0.2302010771D-01
      0.2612407099D+03  0.9282249067D-01
      0.8535464135D+02  0.2937850001D+00
      0.3103503524D+02  0.6740160450D+00
 S   2 1.00       0.000000000000
      0.1226086073D+02  0.6383993703D+00
      0.4998707601D+01  0.3953458713D+00
 S   1 1.00       0.000000000000
      0.1170310816D+01  0.1000000000D+01
 S   1 1.00       0.000000000000
      0.4647474099D+00  0.1000000000D+01
 S   1 1.00       0.000000000000
      0.1850453636D+00  0.1000000000D+01
 P   4 1.00       0.000000000000
      0.6327495480D+02  0.1201833222D-01
      0.1462704938D+02  0.8300542179D-01
      0.4450122346D+01  0.3199174393D+00
      0.1527579965D+01  0.7071554292D+00
 P   1 1.00       0.000000000000
      0.5293511794D+00  0.1000000000D+01
 P   1 1.00       0.000000000000
      0.1747842127D+00  0.1000000000D+01
 D   1 1.00       0.000000000000
      0.2314000000D+01  0.1000000000D+01
 D   1 1.00       0.000000000000
      0.6450000000D+00  0.1000000000D+01
 F   1 1.00       0.000000000000
      0.1428000000D+01  0.1000000000D+01
 ****

 AO basis set (Overlap normalization):
 Atom Pa1      Shell     1 S   3     bf    1 -     1         -0.126278906364         -0.098913527996         -0.213770501853
      0.1204737600D+05  0.2857094961D-01
      0.1811684100D+04  0.2270769386D+00
      0.3477010400D+03  0.8325326273D+00
 Atom Pa1      Shell     2 S   3     bf    2 -     2         -0.126278906364         -0.098913527996         -0.213770501853
      0.5750737600D+02  0.9569327984D-01
      0.3350260100D+02 -0.4399944619D+00
      0.1955445100D+02  0.1335352847D+01
 Atom Pa1      Shell     3 S   1     bf    3 -     3         -0.126278906364         -0.098913527996         -0.213770501853
      0.9867801000D+02  0.1000000000D+01
 Atom Pa1      Shell     4 S   1     bf    4 -     4         -0.126278906364         -0.098913527996         -0.213770501853
      0.9716421000D+01  0.1000000000D+01
 Atom Pa1      Shell     5 S   1     bf    5 -     5         -0.126278906364         -0.098913527996         -0.213770501853
      0.2692096000D+01  0.1000000000D+01
 Atom Pa1      Shell     6 S   1     bf    6 -     6         -0.126278906364         -0.098913527996         -0.213770501853
      0.1453847000D+01  0.1000000000D+01
 Atom Pa1      Shell     7 S   1     bf    7 -     7         -0.126278906364         -0.098913527996         -0.213770501853
      0.5743520000D+00  0.1000000000D+01
 Atom Pa1      Shell     8 S   1     bf    8 -     8         -0.126278906364         -0.098913527996         -0.213770501853
      0.2634680000D+00  0.1000000000D+01
 Atom Pa1      Shell     9 S   1     bf    9 -     9         -0.126278906364         -0.098913527996         -0.213770501853
      0.5655700000D-01  0.1000000000D+01
 Atom Pa1      Shell    10 S   1     bf   10 -    10         -0.126278906364         -0.098913527996         -0.213770501853
      0.2316900000D-01  0.1000000000D+01
 Atom Pa1      Shell    11 P   5     bf   11 -    13         -0.126278906364         -0.098913527996         -0.213770501853
      0.2903367600D+04  0.2594222647D-02
      0.6448635600D+03  0.1519473264D-01
      0.2202589600D+03  0.9272492945D-01
      0.8027640100D+02  0.1821144298D+00
      0.2408021100D+02  0.8294100404D+00
 Atom Pa1      Shell    12 P   1     bf   14 -    16         -0.126278906364         -0.098913527996         -0.213770501853
      0.1407758000D+02  0.1000000000D+01
 Atom Pa1      Shell    13 P   1     bf   17 -    19         -0.126278906364         -0.098913527996         -0.213770501853
      0.8265846000D+01  0.1000000000D+01
 Atom Pa1      Shell    14 P   1     bf   20 -    22         -0.126278906364         -0.098913527996         -0.213770501853
      0.3594800000D+01  0.1000000000D+01
 Atom Pa1      Shell    15 P   1     bf   23 -    25         -0.126278906364         -0.098913527996         -0.213770501853
      0.1753111000D+01  0.1000000000D+01
 Atom Pa1      Shell    16 P   1     bf   26 -    28         -0.126278906364         -0.098913527996         -0.213770501853
      0.6577670000D+00  0.1000000000D+01
 Atom Pa1      Shell    17 P   1     bf   29 -    31         -0.126278906364         -0.098913527996         -0.213770501853
      0.2846390000D+00  0.1000000000D+01
 Atom Pa1      Shell    18 P   1     bf   32 -    34         -0.126278906364         -0.098913527996         -0.213770501853
      0.1005430000D+00  0.1000000000D+01
 Atom Pa1      Shell    19 P   1     bf   35 -    37         -0.126278906364         -0.098913527996         -0.213770501853
      0.3019000000D-01  0.1000000000D+01
 Atom Pa1      Shell    20 D   6     bf   38 -    42         -0.126278906364         -0.098913527996         -0.213770501853
      0.4481499100D+03  0.6556927566D-04
      0.1544614500D+03  0.5749921096D-03
      0.6092537700D+02  0.2279793277D-02
      0.1703209100D+02  0.6467904664D-01
      0.1001887700D+02 -0.2666929411D+00
      0.3409193000D+01  0.1128376621D+01
 Atom Pa1      Shell    21 D   1     bf   43 -    47         -0.126278906364         -0.098913527996         -0.213770501853
      0.1670213000D+01  0.1000000000D+01
 Atom Pa1      Shell    22 D   1     bf   48 -    52         -0.126278906364         -0.098913527996         -0.213770501853
      0.7410950000D+00  0.1000000000D+01
 Atom Pa1      Shell    23 D   1     bf   53 -    57         -0.126278906364         -0.098913527996         -0.213770501853
      0.2613930000D+00  0.1000000000D+01
 Atom Pa1      Shell    24 D   1     bf   58 -    62         -0.126278906364         -0.098913527996         -0.213770501853
      0.8281100000D-01  0.1000000000D+01
 Atom Pa1      Shell    25 F   5     bf   63 -    69         -0.126278906364         -0.098913527996         -0.213770501853
      0.8799132700D+02  0.4766318191D-03
      0.2834019500D+02  0.4899184583D-02
      0.1244099400D+02  0.9669720755D-02
      0.3957296000D+01  0.3310292343D+00
      0.1875944000D+01  0.7275531640D+00
 Atom Pa1      Shell    26 F   1     bf   70 -    76         -0.126278906364         -0.098913527996         -0.213770501853
      0.8275890000D+00  0.1000000000D+01
 Atom Pa1      Shell    27 F   1     bf   77 -    83         -0.126278906364         -0.098913527996         -0.213770501853
      0.3327480000D+00  0.1000000000D+01
 Atom Pa1      Shell    28 F   1     bf   84 -    90         -0.126278906364         -0.098913527996         -0.213770501853
      0.1146850000D+00  0.1000000000D+01
 Atom Pa1      Shell    29 G   1     bf   91 -    99         -0.126278906364         -0.098913527996         -0.213770501853
      0.3500000000D+00  0.1000000000D+01
 Atom O2       Shell    30 S   6     bf  100 -   100         -0.109159036390          0.332325863622          3.835241478149
      0.2703238263D+05  0.5722733521D-03
      0.4052387139D+04  0.4435323349D-02
      0.9223272271D+03  0.2302010771D-01
      0.2612407099D+03  0.9282249067D-01
      0.8535464135D+02  0.2937850001D+00
      0.3103503524D+02  0.6740160450D+00
 Atom O2       Shell    31 S   2     bf  101 -   101         -0.109159036390          0.332325863622          3.835241478149
      0.1226086073D+02  0.6383993703D+00
      0.4998707601D+01  0.3953458713D+00
 Atom O2       Shell    32 S   1     bf  102 -   102         -0.109159036390          0.332325863622          3.835241478149
      0.1170310816D+01  0.1000000000D+01
 Atom O2       Shell    33 S   1     bf  103 -   103         -0.109159036390          0.332325863622          3.835241478149
      0.4647474099D+00  0.1000000000D+01
 Atom O2       Shell    34 S   1     bf  104 -   104         -0.109159036390          0.332325863622          3.835241478149
      0.1850453636D+00  0.1000000000D+01
 Atom O2       Shell    35 P   4     bf  105 -   107         -0.109159036390          0.332325863622          3.835241478149
      0.6327495480D+02  0.1201833222D-01
      0.1462704938D+02  0.8300542179D-01
      0.4450122346D+01  0.3199174393D+00
      0.1527579965D+01  0.7071554292D+00
 Atom O2       Shell    36 P   1     bf  108 -   110         -0.109159036390          0.332325863622          3.835241478149
      0.5293511794D+00  0.1000000000D+01
 Atom O2       Shell    37 P   1     bf  111 -   113         -0.109159036390          0.332325863622          3.835241478149
      0.1747842127D+00  0.1000000000D+01
 Atom O2       Shell    38 D   1     bf  114 -   118         -0.109159036390          0.332325863622          3.835241478149
      0.2314000000D+01  0.1000000000D+01
 Atom O2       Shell    39 D   1     bf  119 -   123         -0.109159036390          0.332325863622          3.835241478149
      0.6450000000D+00  0.1000000000D+01
 Atom O2       Shell    40 F   1     bf  124 -   130         -0.109159036390          0.332325863622          3.835241478149
      0.1428000000D+01  0.1000000000D+01
 Atom O3       Shell    41 S   6     bf  131 -   131          0.109340300419          3.883656725215         -0.550017313158
      0.2703238263D+05  0.5722733521D-03
      0.4052387139D+04  0.4435323349D-02
      0.9223272271D+03  0.2302010771D-01
      0.2612407099D+03  0.9282249067D-01
      0.8535464135D+02  0.2937850001D+00
      0.3103503524D+02  0.6740160450D+00
 Atom O3       Shell    42 S   2     bf  132 -   132          0.109340300419          3.883656725215         -0.550017313158
      0.1226086073D+02  0.6383993703D+00
      0.4998707601D+01  0.3953458713D+00
 Atom O3       Shell    43 S   1     bf  133 -   133          0.109340300419          3.883656725215         -0.550017313158
      0.1170310816D+01  0.1000000000D+01
 Atom O3       Shell    44 S   1     bf  134 -   134          0.109340300419          3.883656725215         -0.550017313158
      0.4647474099D+00  0.1000000000D+01
 Atom O3       Shell    45 S   1     bf  135 -   135          0.109340300419          3.883656725215         -0.550017313158
      0.1850453636D+00  0.1000000000D+01
 Atom O3       Shell    46 P   4     bf  136 -   138          0.109340300419          3.883656725215         -0.550017313158
      0.6327495480D+02  0.1201833222D-01
      0.1462704938D+02  0.8300542179D-01
      0.4450122346D+01  0.3199174393D+00
      0.1527579965D+01  0.7071554292D+00
 Atom O3       Shell    47 P   1     bf  139 -   141          0.109340300419          3.883656725215         -0.550017313158
      0.5293511794D+00  0.1000000000D+01
 Atom O3       Shell    48 P   1     bf  142 -   144          0.109340300419          3.883656725215         -0.550017313158
      0.1747842127D+00  0.1000000000D+01
 Atom O3       Shell    49 D   1     bf  145 -   149          0.109340300419          3.883656725215         -0.550017313158
      0.2314000000D+01  0.1000000000D+01
 Atom O3       Shell    50 D   1     bf  150 -   154          0.109340300419          3.883656725215         -0.550017313158
      0.6450000000D+00  0.1000000000D+01
 Atom O3       Shell    51 F   1     bf  155 -   161          0.109340300419          3.883656725215         -0.550017313158
      0.1428000000D+01  0.1000000000D+01
 Atom F4       Shell    52 S   6     bf  162 -   162         -4.224772453905         -0.030207529381         -0.649915868800
      0.3547910044D+05  0.5618499111D-03
      0.5318472898D+04  0.4355197381D-02
      0.1210481098D+04  0.2261824715D-01
      0.3428551814D+03  0.9140305514D-01
      0.1120194318D+03  0.2911687069D+00
      0.4071474025D+02  0.6777270856D+00
 Atom F4       Shell    53 S   2     bf  163 -   163         -4.224772453905         -0.030207529381         -0.649915868800
      0.1603967811D+02  0.6329641788D+00
      0.6503818674D+01  0.4013647573D+00
 Atom F4       Shell    54 S   1     bf  164 -   164         -4.224772453905         -0.030207529381         -0.649915868800
      0.1544047751D+01  0.1000000000D+01
 Atom F4       Shell    55 S   1     bf  165 -   165         -4.224772453905         -0.030207529381         -0.649915868800
      0.6122345286D+00  0.1000000000D+01
 Atom F4       Shell    56 S   1     bf  166 -   166         -4.224772453905         -0.030207529381         -0.649915868800
      0.2402797970D+00  0.1000000000D+01
 Atom F4       Shell    57 P   4     bf  167 -   169         -4.224772453905         -0.030207529381         -0.649915868800
      0.8023390048D+02  0.1232134514D-01
      0.1859401074D+02  0.8571339535D-01
      0.5686790265D+01  0.3263310550D+00
      0.1951100629D+01  0.6997111464D+00
 Atom F4       Shell    58 P   1     bf  170 -   172         -4.224772453905         -0.030207529381         -0.649915868800
      0.6697021130D+00  0.1000000000D+01
 Atom F4       Shell    59 P   1     bf  173 -   175         -4.224772453905         -0.030207529381         -0.649915868800
      0.2165130041D+00  0.1000000000D+01
 Atom F4       Shell    60 D   1     bf  176 -   180         -4.224772453905         -0.030207529381         -0.649915868800
      0.3107000000D+01  0.1000000000D+01
 Atom F4       Shell    61 D   1     bf  181 -   185         -4.224772453905         -0.030207529381         -0.649915868800
      0.8550000000D+00  0.1000000000D+01
 Atom F4       Shell    62 F   1     bf  186 -   192         -4.224772453905         -0.030207529381         -0.649915868800
      0.1917000000D+01  0.1000000000D+01
 Atom H5       Shell    63 S   3     bf  193 -   193         -0.264277838685          5.273244234604          0.574000353221
      0.3406134100D+02  0.2543930721D-01
      0.5123574600D+01  0.1900859489D+00
      0.1164662600D+01  0.8524411301D+00
 Atom H5       Shell    64 S   1     bf  194 -   194         -0.264277838685          5.273244234604          0.574000353221
      0.3272304100D+00  0.1000000000D+01
 Atom H5       Shell    65 S   1     bf  195 -   195         -0.264277838685          5.273244234604          0.574000353221
      0.1030724100D+00  0.1000000000D+01
 Atom H5       Shell    66 P   1     bf  196 -   198         -0.264277838685          5.273244234604          0.574000353221
      0.8000000000D+00  0.1000000000D+01
 Atom O6       Shell    67 S   6     bf  199 -   199          4.628538013946          0.019979753352         -0.499533782571
      0.2703238263D+05  0.5722733521D-03
      0.4052387139D+04  0.4435323349D-02
      0.9223272271D+03  0.2302010771D-01
      0.2612407099D+03  0.9282249067D-01
      0.8535464135D+02  0.2937850001D+00
      0.3103503524D+02  0.6740160450D+00
 Atom O6       Shell    68 S   2     bf  200 -   200          4.628538013946          0.019979753352         -0.499533782571
      0.1226086073D+02  0.6383993703D+00
      0.4998707601D+01  0.3953458713D+00
 Atom O6       Shell    69 S   1     bf  201 -   201          4.628538013946          0.019979753352         -0.499533782571
      0.1170310816D+01  0.1000000000D+01
 Atom O6       Shell    70 S   1     bf  202 -   202          4.628538013946          0.019979753352         -0.499533782571
      0.4647474099D+00  0.1000000000D+01
 Atom O6       Shell    71 S   1     bf  203 -   203          4.628538013946          0.019979753352         -0.499533782571
      0.1850453636D+00  0.1000000000D+01
 Atom O6       Shell    72 P   4     bf  204 -   206          4.628538013946          0.019979753352         -0.499533782571
      0.6327495480D+02  0.1201833222D-01
      0.1462704938D+02  0.8300542179D-01
      0.4450122346D+01  0.3199174393D+00
      0.1527579965D+01  0.7071554292D+00
 Atom O6       Shell    73 P   1     bf  207 -   209          4.628538013946          0.019979753352         -0.499533782571
      0.5293511794D+00  0.1000000000D+01
 Atom O6       Shell    74 P   1     bf  210 -   212          4.628538013946          0.019979753352         -0.499533782571
      0.1747842127D+00  0.1000000000D+01
 Atom O6       Shell    75 D   1     bf  213 -   217          4.628538013946          0.019979753352         -0.499533782571
      0.2314000000D+01  0.1000000000D+01
 Atom O6       Shell    76 D   1     bf  218 -   222          4.628538013946          0.019979753352         -0.499533782571
      0.6450000000D+00  0.1000000000D+01
 Atom O6       Shell    77 F   1     bf  223 -   229          4.628538013946          0.019979753352         -0.499533782571
      0.1428000000D+01  0.1000000000D+01
 Atom H7       Shell    78 S   3     bf  230 -   230          5.672401206412          1.511979695125         -0.368502181151
      0.3406134100D+02  0.2543930721D-01
      0.5123574600D+01  0.1900859489D+00
      0.1164662600D+01  0.8524411301D+00
 Atom H7       Shell    79 S   1     bf  231 -   231          5.672401206412          1.511979695125         -0.368502181151
      0.3272304100D+00  0.1000000000D+01
 Atom H7       Shell    80 S   1     bf  232 -   232          5.672401206412          1.511979695125         -0.368502181151
      0.1030724100D+00  0.1000000000D+01
 Atom H7       Shell    81 P   1     bf  233 -   235          5.672401206412          1.511979695125         -0.368502181151
      0.8000000000D+00  0.1000000000D+01
 Atom H8       Shell    82 S   3     bf  236 -   236          5.726642006824         -1.424359111467         -0.300044368000
      0.3406134100D+02  0.2543930721D-01
      0.5123574600D+01  0.1900859489D+00
      0.1164662600D+01  0.8524411301D+00
 Atom H8       Shell    83 S   1     bf  237 -   237          5.726642006824         -1.424359111467         -0.300044368000
      0.3272304100D+00  0.1000000000D+01
 Atom H8       Shell    84 S   1     bf  238 -   238          5.726642006824         -1.424359111467         -0.300044368000
      0.1030724100D+00  0.1000000000D+01
 Atom H8       Shell    85 P   1     bf  239 -   241          5.726642006824         -1.424359111467         -0.300044368000
      0.8000000000D+00  0.1000000000D+01
 Atom H9       Shell    86 S   3     bf  242 -   242         -0.103612767630         -1.008754707609          5.068728386542
      0.3406134100D+02  0.2543930721D-01
      0.5123574600D+01  0.1900859489D+00
      0.1164662600D+01  0.8524411301D+00
 Atom H9       Shell    87 S   1     bf  243 -   243         -0.103612767630         -1.008754707609          5.068728386542
      0.3272304100D+00  0.1000000000D+01
 Atom H9       Shell    88 S   1     bf  244 -   244         -0.103612767630         -1.008754707609          5.068728386542
      0.1030724100D+00  0.1000000000D+01
 Atom H9       Shell    89 P   1     bf  245 -   247         -0.103612767630         -1.008754707609          5.068728386542
      0.8000000000D+00  0.1000000000D+01
 Atom O10      Shell    90 S   6     bf  248 -   248          0.181678216687         -3.620851254509         -0.244668345271
      0.2703238263D+05  0.5722733521D-03
      0.4052387139D+04  0.4435323349D-02
      0.9223272271D+03  0.2302010771D-01
      0.2612407099D+03  0.9282249067D-01
      0.8535464135D+02  0.2937850001D+00
      0.3103503524D+02  0.6740160450D+00
 Atom O10      Shell    91 S   2     bf  249 -   249          0.181678216687         -3.620851254509         -0.244668345271
      0.1226086073D+02  0.6383993703D+00
      0.4998707601D+01  0.3953458713D+00
 Atom O10      Shell    92 S   1     bf  250 -   250          0.181678216687         -3.620851254509         -0.244668345271
      0.1170310816D+01  0.1000000000D+01
 Atom O10      Shell    93 S   1     bf  251 -   251          0.181678216687         -3.620851254509         -0.244668345271
      0.4647474099D+00  0.1000000000D+01
 Atom O10      Shell    94 S   1     bf  252 -   252          0.181678216687         -3.620851254509         -0.244668345271
      0.1850453636D+00  0.1000000000D+01
 Atom O10      Shell    95 P   4     bf  253 -   255          0.181678216687         -3.620851254509         -0.244668345271
      0.6327495480D+02  0.1201833222D-01
      0.1462704938D+02  0.8300542179D-01
      0.4450122346D+01  0.3199174393D+00
      0.1527579965D+01  0.7071554292D+00
 Atom O10      Shell    96 P   1     bf  256 -   258          0.181678216687         -3.620851254509         -0.244668345271
      0.5293511794D+00  0.1000000000D+01
 Atom O10      Shell    97 P   1     bf  259 -   261          0.181678216687         -3.620851254509         -0.244668345271
      0.1747842127D+00  0.1000000000D+01
 Atom O10      Shell    98 D   1     bf  262 -   266          0.181678216687         -3.620851254509         -0.244668345271
      0.2314000000D+01  0.1000000000D+01
 Atom O10      Shell    99 D   1     bf  267 -   271          0.181678216687         -3.620851254509         -0.244668345271
      0.6450000000D+00  0.1000000000D+01
 Atom O10      Shell   100 F   1     bf  272 -   278          0.181678216687         -3.620851254509         -0.244668345271
      0.1428000000D+01  0.1000000000D+01
 Effective core potential in the form of general ECP input:
      1 0
 Pa1-ECP   5 60
 H component
  1
  2        1.0000000        0.00000000    0.00000000
 S-H projection
  1
  2       15.2691737      475.47573283    0.00000000
 P-H projection
  1
  2        9.9577370      207.66485962    0.00000000
 D-H projection
  1
  2        8.9431413      156.67411988    0.00000000
 F-H projection
  1
  2        7.0104666       67.98223685    0.00000000
 G-H projection
  1
  2       12.2010560      -57.63059989    0.00000000
 
 There are   326 symmetry adapted cartesian basis functions of A   symmetry.
 There are   278 symmetry adapted basis functions of A   symmetry.
   278 basis functions,   495 primitive gaussians,   326 cartesian basis functions
    38 alpha electrons       38 beta electrons
       nuclear repulsion energy       479.0836316725 Hartrees.
 IExCor=  404 DFT=T Ex=B Corr=P86 ExCW=0 ScaHFX=  0.000000
 ScaDFX=  1.000000  1.000000  1.000000  1.000000 ScalE2=  1.000000  1.000000
 IRadAn=      5 IRanWt=     -1 IRanGd=            0 ICorTp=0 IEmpDi=  4
 NAtoms=   10 NActive=   10 NUniq=   10 SFac= 1.00D+00 NAtFMM=   60 NAOKFM=F Big=F
 Integral buffers will be    131072 words long.
 Raffenetti 2 integral format.
 Two-electron integral symmetry is turned on.
 Leave Link  301 at Tue Jul  4 10:04:41 2023, MaxMem=  2147483648 cpu:               0.7 elap:               0.1
 (Enter /home/pcmt/gaussian/g16.C.01/g16/l302.exe)
 NPDir=0 NMtPBC=     1 NCelOv=     1 NCel=       1 NClECP=     1 NCelD=      1
         NCelK=      1 NCelE2=     1 NClLst=     1 CellRange=     0.0.
 One-electron integrals computed using PRISM.
 One-electron integral symmetry used in STVInt
   1 Symmetry operations used in ECPInt.
 ECPInt:  NShTT=    5050 NPrTT=   14698 LenC2=    4859 LenP2D=   10977.
 LDataN:  DoStor=T MaxTD1= 9 Len=  602
 NBasis=   278 RedAO= T EigKep=  6.76D-04  NBF=   278
 NBsUse=   278 1.00D-06 EigRej= -1.00D+00 NBFU=   278
 Precomputing XC quadrature grid using
 IXCGrd= 4 IRadAn=           5 IRanWt=          -1 IRanGd=           0 AccXCQ= 0.00D+00.
 Defaulting to unpruned grid for atomic number  91.
 Generated NRdTot=       0 NPtTot=           0 NUsed=           0 NTot=          32
 NSgBfM=   322   322   322   322   322 MxSgAt=    10 MxSgA2=    10.
 Leave Link  302 at Tue Jul  4 10:04:42 2023, MaxMem=  2147483648 cpu:               5.9 elap:               0.8
 (Enter /home/pcmt/gaussian/g16.C.01/g16/l303.exe)
 DipDrv:  MaxL=1.
 Leave Link  303 at Tue Jul  4 10:04:42 2023, MaxMem=  2147483648 cpu:               0.4 elap:               0.1
 (Enter /home/pcmt/gaussian/g16.C.01/g16/l401.exe)
 ExpMin= 2.32D-02 ExpMax= 3.55D+04 ExpMxC= 1.20D+04 IAcc=3 IRadAn=         5 AccDes= 0.00D+00
 Harris functional with IExCor=  404 and IRadAn=       5 diagonalized for initial guess.
 HarFok:  IExCor=  404 AccDes= 0.00D+00 IRadAn=         5 IDoV= 1 UseB2=F ITyADJ=14
 ICtDFT=  3500011 ScaDFX=  1.000000  1.000000  1.000000  1.000000
 Defaulting to unpruned grid for atomic number  91.
 FoFCou: FMM=F IPFlag=           0 FMFlag=      100000 FMFlg1=           0
         NFxFlg=           0 DoJE=T BraDBF=F KetDBF=T FulRan=T
         wScrn=  0.000000 ICntrl=       500 IOpCl=  0 I1Cent=   200000004 NGrid=           0
         NMat0=    1 NMatS0=      1 NMatT0=    0 NMatD0=    1 NMtDS0=    0 NMtDT0=    0
 Petite list used in FoFCou.
 Harris En= -846.706400309793    
 JPrj=0 DoOrth=F DoCkMO=F.
 Leave Link  401 at Tue Jul  4 10:04:44 2023, MaxMem=  2147483648 cpu:              14.8 elap:               1.9
 (Enter /home/pcmt/gaussian/g16.C.01/g16/l502.exe)
 Keep J ints in memory in canonical form, NReq=769486757.
 FoFCou: FMM=F IPFlag=           0 FMFlag=           0 FMFlg1=           0
         NFxFlg=           0 DoJE=F BraDBF=F KetDBF=F FulRan=T
         wScrn=  0.000000 ICntrl=       600 IOpCl=  0 I1Cent=           0 NGrid=           0
         NMat0=    1 NMatS0=  38781 NMatT0=    0 NMatD0=    1 NMtDS0=    0 NMtDT0=    0
 Symmetry not used in FoFCou.
 Two-electron integral symmetry not used.
 Closed shell SCF:
 Using DIIS extrapolation, IDIIS=  1040.
 NGot=  2147483648 LenX=  1395263077 LenY=  1395156360
 Requested convergence on RMS density matrix=1.00D-08 within 100 cycles.
 Requested convergence on MAX density matrix=1.00D-06.
 Requested convergence on             energy=1.00D-06.
 No special actions if energy rises.

 Cycle   1  Pass 1  IDiag  1:
 Defaulting to unpruned grid for atomic number  91.
 Defaulting to unpruned grid for atomic number  91.
 Defaulting to unpruned grid for atomic number  91.
 Defaulting to unpruned grid for atomic number  91.
 Defaulting to unpruned grid for atomic number  91.
 Defaulting to unpruned grid for atomic number  91.
 Defaulting to unpruned grid for atomic number  91.
 Defaulting to unpruned grid for atomic number  91.
 E= -844.146690021759    
 DIIS: error= 4.02D-02 at cycle   1 NSaved=   1.
 NSaved= 1 IEnMin= 1 EnMin= -844.146690021759     IErMin= 1 ErrMin= 4.02D-02
 ErrMax= 4.02D-02  0.00D+00 EMaxC= 1.00D-01 BMatC= 1.56D+00 BMatP= 1.56D+00
 IDIUse=3 WtCom= 5.98D-01 WtEn= 4.02D-01
 Coeff-Com:  0.100D+01
 Coeff-En:   0.100D+01
 Coeff:      0.100D+01
 Gap=     0.003 Goal=   None    Shift=    0.000
 GapD=    0.003 DampG=0.250 DampE=0.250 DampFc=0.1250 IDamp=-1.
 Damping current iteration by 1.25D-01
 RMSDP=1.34D-02 MaxDP=1.07D+00              OVMax= 9.88D-01

 Cycle   2  Pass 1  IDiag  1:
 E= -844.196119659498     Delta-E=       -0.049429637739 Rises=F Damp=T
 DIIS: error= 1.99D-02 at cycle   2 NSaved=   2.
 NSaved= 2 IEnMin= 2 EnMin= -844.196119659498     IErMin= 2 ErrMin= 1.99D-02
 ErrMax= 1.99D-02  0.00D+00 EMaxC= 1.00D-01 BMatC= 2.15D-01 BMatP= 1.56D+00
 IDIUse=3 WtCom= 8.01D-01 WtEn= 1.99D-01
 Coeff-Com: -0.314D-01 0.103D+01
 Coeff-En:   0.479D+00 0.521D+00
 Coeff:      0.703D-01 0.930D+00
 Gap=    -0.096 Goal=   None    Shift=    0.000
 RMSDP=1.47D-02 MaxDP=1.50D+00 DE=-4.94D-02 OVMax= 9.84D-01

 Cycle   3  Pass 1  IDiag  1:
 E= -842.745089767204     Delta-E=        1.451029892293 Rises=F Damp=F
 DIIS: error= 6.93D-02 at cycle   3 NSaved=   3.
 NSaved= 3 IEnMin= 2 EnMin= -844.196119659498     IErMin= 2 ErrMin= 1.99D-02
 ErrMax= 6.93D-02  0.00D+00 EMaxC= 1.00D-01 BMatC= 2.06D+00 BMatP= 2.15D-01
 IDIUse=2 WtCom= 0.00D+00 WtEn= 1.00D+00
 EnCoef did     3 forward-backward iterations
 Coeff-En:   0.358D+00 0.459D+00 0.183D+00
 Coeff:      0.358D+00 0.459D+00 0.183D+00
 Gap=    -0.143 Goal=   None    Shift=    0.000
 RMSDP=1.59D-02 MaxDP=1.50D+00 DE= 1.45D+00 OVMax= 9.03D-01

 Cycle   4  Pass 1  IDiag  1:
 E= -825.103619817315     Delta-E=       17.641469949890 Rises=F Damp=F
 DIIS: error= 2.79D-01 at cycle   4 NSaved=   4.
 NSaved= 4 IEnMin= 2 EnMin= -844.196119659498     IErMin= 2 ErrMin= 1.99D-02
 ErrMax= 2.79D-01  0.00D+00 EMaxC= 1.00D-01 BMatC= 4.02D+01 BMatP= 2.15D-01
 IDIUse=2 WtCom= 0.00D+00 WtEn= 1.00D+00
 EnCoef did   100 forward-backward iterations
 Coeff-En:   0.704D+00 0.120D-01 0.161D+00 0.123D+00
 Coeff:      0.704D+00 0.120D-01 0.161D+00 0.123D+00
 Gap=     0.003 Goal=   None    Shift=    0.000
 RMSDP=4.79D-03 MaxDP=2.85D-01 DE= 1.76D+01 OVMax= 6.36D-01

 Cycle   5  Pass 1  IDiag  1:
 E= -844.136957196452     Delta-E=      -19.033337379137 Rises=F Damp=F
 DIIS: error= 5.28D-02 at cycle   5 NSaved=   5.
 NSaved= 5 IEnMin= 2 EnMin= -844.196119659498     IErMin= 2 ErrMin= 1.99D-02
 ErrMax= 5.28D-02  0.00D+00 EMaxC= 1.00D-01 BMatC= 1.96D+00 BMatP= 2.15D-01
 IDIUse=2 WtCom= 0.00D+00 WtEn= 1.00D+00
 EnCoef did   100 forward-backward iterations
 Coeff-En:   0.500D+00 0.641D-02 0.199D-03 0.000D+00 0.494D+00
 Coeff:      0.500D+00 0.641D-02 0.199D-03 0.000D+00 0.494D+00
 Gap=     0.203 Goal=   None    Shift=    0.000
 RMSDP=2.52D-03 MaxDP=1.06D-01 DE=-1.90D+01 OVMax= 2.77D-01

 Cycle   6  Pass 1  IDiag  1:
 E= -844.998930334394     Delta-E=       -0.861973137942 Rises=F Damp=F
 DIIS: error= 2.26D-02 at cycle   6 NSaved=   6.
 NSaved= 6 IEnMin= 6 EnMin= -844.998930334394     IErMin= 2 ErrMin= 1.99D-02
 ErrMax= 2.26D-02  0.00D+00 EMaxC= 1.00D-01 BMatC= 3.23D-01 BMatP= 2.15D-01
 IDIUse=2 WtCom= 0.00D+00 WtEn= 1.00D+00
 EnCoef did    10 forward-backward iterations
 Coeff-En:   0.159D+00 0.000D+00 0.000D+00 0.000D+00 0.267D+00 0.574D+00
 Coeff:      0.159D+00 0.000D+00 0.000D+00 0.000D+00 0.267D+00 0.574D+00
 Gap=     0.268 Goal=   None    Shift=    0.000
 RMSDP=2.19D-03 MaxDP=9.36D-02 DE=-8.62D-01 OVMax= 1.92D-01

 Cycle   7  Pass 1  IDiag  1:
 E= -844.992273359071     Delta-E=        0.006656975323 Rises=F Damp=F
 DIIS: error= 2.98D-02 at cycle   7 NSaved=   7.
 NSaved= 7 IEnMin= 6 EnMin= -844.998930334394     IErMin= 2 ErrMin= 1.99D-02
 ErrMax= 2.98D-02  0.00D+00 EMaxC= 1.00D-01 BMatC= 3.64D-01 BMatP= 2.15D-01
 IDIUse=2 WtCom= 0.00D+00 WtEn= 1.00D+00
 EnCoef did     4 forward-backward iterations
 Coeff-En:   0.000D+00 0.000D+00 0.000D+00 0.000D+00 0.581D-01 0.492D+00
 Coeff-En:   0.450D+00
 Coeff:      0.000D+00 0.000D+00 0.000D+00 0.000D+00 0.581D-01 0.492D+00
 Coeff:      0.450D+00
 Gap=     0.114 Goal=   None    Shift=    0.000
 RMSDP=1.43D-03 MaxDP=7.53D-02 DE= 6.66D-03 OVMax= 1.45D-01

 Cycle   8  Pass 1  IDiag  1:
 E= -845.142899302085     Delta-E=       -0.150625943014 Rises=F Damp=F
 DIIS: error= 1.84D-02 at cycle   8 NSaved=   8.
 NSaved= 8 IEnMin= 8 EnMin= -845.142899302085     IErMin= 8 ErrMin= 1.84D-02
 ErrMax= 1.84D-02  0.00D+00 EMaxC= 1.00D-01 BMatC= 1.49D-01 BMatP= 2.15D-01
 IDIUse=3 WtCom= 8.16D-01 WtEn= 1.84D-01
 EnCoef did     3 forward-backward iterations
 Coeff-Com: -0.130D-01 0.314D-01 0.147D-02-0.572D-02-0.148D-01 0.346D+00
 Coeff-Com:  0.321D+00 0.333D+00
 Coeff-En:   0.000D+00 0.000D+00 0.000D+00 0.000D+00 0.000D+00 0.292D+00
 Coeff-En:   0.270D+00 0.438D+00
 Coeff:     -0.106D-01 0.256D-01 0.120D-02-0.467D-02-0.120D-01 0.336D+00
 Coeff:      0.312D+00 0.353D+00
 Gap=     0.143 Goal=   None    Shift=    0.000
 RMSDP=9.18D-04 MaxDP=6.20D-02 DE=-1.51D-01 OVMax= 1.09D-01

 Cycle   9  Pass 1  IDiag  1:
 E= -845.234905442886     Delta-E=       -0.092006140801 Rises=F Damp=F
 DIIS: error= 4.61D-03 at cycle   9 NSaved=   9.
 NSaved= 9 IEnMin= 9 EnMin= -845.234905442886     IErMin= 9 ErrMin= 4.61D-03
 ErrMax= 4.61D-03  0.00D+00 EMaxC= 1.00D-01 BMatC= 1.34D-02 BMatP= 1.49D-01
 IDIUse=3 WtCom= 9.54D-01 WtEn= 4.61D-02
 Coeff-Com: -0.722D-02-0.577D-02 0.109D-01-0.909D-03-0.479D-01 0.868D-01
 Coeff-Com:  0.107D+00 0.352D+00 0.506D+00
 Coeff-En:   0.000D+00 0.000D+00 0.000D+00 0.000D+00 0.000D+00 0.000D+00
 Coeff-En:   0.000D+00 0.164D+00 0.836D+00
 Coeff:     -0.689D-02-0.550D-02 0.104D-01-0.867D-03-0.457D-01 0.828D-01
 Coeff:      0.102D+00 0.343D+00 0.521D+00
 Gap=     0.127 Goal=   None    Shift=    0.000
 RMSDP=3.38D-04 MaxDP=2.14D-02 DE=-9.20D-02 OVMax= 3.39D-02

 Cycle  10  Pass 1  IDiag  1:
 E= -845.244584327347     Delta-E=       -0.009678884461 Rises=F Damp=F
 DIIS: error= 1.49D-03 at cycle  10 NSaved=  10.
 NSaved=10 IEnMin=10 EnMin= -845.244584327347     IErMin=10 ErrMin= 1.49D-03
 ErrMax= 1.49D-03  0.00D+00 EMaxC= 1.00D-01 BMatC= 1.79D-03 BMatP= 1.34D-02
 IDIUse=3 WtCom= 9.85D-01 WtEn= 1.49D-02
 Coeff-Com:  0.615D-02-0.234D-01 0.676D-02 0.677D-04-0.298D-01 0.134D-01
 Coeff-Com:  0.277D-01 0.183D+00 0.337D+00 0.479D+00
 Coeff-En:   0.000D+00 0.000D+00 0.000D+00 0.000D+00 0.000D+00 0.000D+00
 Coeff-En:   0.000D+00 0.000D+00 0.662D-01 0.934D+00
 Coeff:      0.606D-02-0.231D-01 0.665D-02 0.667D-04-0.294D-01 0.132D-01
 Coeff:      0.273D-01 0.181D+00 0.333D+00 0.486D+00
 Gap=     0.126 Goal=   None    Shift=    0.000
 RMSDP=1.67D-04 MaxDP=9.51D-03 DE=-9.68D-03 OVMax= 1.65D-02

 Cycle  11  Pass 1  IDiag  1:
 E= -845.244803269827     Delta-E=       -0.000218942480 Rises=F Damp=F
 DIIS: error= 2.02D-03 at cycle  11 NSaved=  11.
 NSaved=11 IEnMin=11 EnMin= -845.244803269827     IErMin=10 ErrMin= 1.49D-03
 ErrMax= 2.02D-03  0.00D+00 EMaxC= 1.00D-01 BMatC= 3.27D-03 BMatP= 1.79D-03
 IDIUse=3 WtCom= 9.85D-01 WtEn= 1.49D-02
 EnCoef did     2 forward-backward iterations
 Coeff-Com:  0.133D-01-0.224D-01 0.745D-02-0.134D-04-0.195D-01-0.104D-01
 Coeff-Com: -0.947D-03 0.857D-01 0.216D+00 0.401D+00 0.329D+00
 Coeff-En:   0.000D+00 0.000D+00 0.000D+00 0.000D+00 0.000D+00 0.000D+00
 Coeff-En:   0.000D+00 0.000D+00 0.770D-01 0.256D+00 0.667D+00
 Coeff:      0.131D-01-0.221D-01 0.734D-02-0.132D-04-0.192D-01-0.102D-01
 Coeff:     -0.933D-03 0.845D-01 0.214D+00 0.399D+00 0.334D+00
 Gap=     0.124 Goal=   None    Shift=    0.000
 RMSDP=1.08D-04 MaxDP=6.42D-03 DE=-2.19D-04 OVMax= 1.20D-02

 Cycle  12  Pass 1  IDiag  1:
 E= -845.245318188611     Delta-E=       -0.000514918784 Rises=F Damp=F
 DIIS: error= 2.34D-03 at cycle  12 NSaved=  12.
 NSaved=12 IEnMin=12 EnMin= -845.245318188611     IErMin=10 ErrMin= 1.49D-03
 ErrMax= 2.34D-03  0.00D+00 EMaxC= 1.00D-01 BMatC= 3.66D-03 BMatP= 1.79D-03
 IDIUse=3 WtCom= 9.85D-01 WtEn= 1.49D-02
 Coeff-Com:  0.143D-01-0.203D-01 0.821D-02-0.113D-03-0.190D-01-0.102D-01
 Coeff-Com: -0.470D-03 0.785D-01 0.210D+00 0.323D+00 0.138D+00 0.278D+00
 Coeff-En:   0.000D+00 0.000D+00 0.000D+00 0.000D+00 0.000D+00 0.000D+00
 Coeff-En:   0.000D+00 0.000D+00 0.821D-01 0.000D+00 0.000D+00 0.918D+00
 Coeff:      0.141D-01-0.200D-01 0.808D-02-0.112D-03-0.187D-01-0.101D-01
 Coeff:     -0.463D-03 0.773D-01 0.208D+00 0.318D+00 0.136D+00 0.287D+00
 Gap=     0.123 Goal=   None    Shift=    0.000
 RMSDP=2.02D-05 MaxDP=2.09D-03 DE=-5.15D-04 OVMax= 1.53D-03

 Cycle  13  Pass 1  IDiag  1:
 E= -845.245664203238     Delta-E=       -0.000346014627 Rises=F Damp=F
 DIIS: error= 2.05D-03 at cycle  13 NSaved=  13.
 NSaved=13 IEnMin=13 EnMin= -845.245664203238     IErMin=10 ErrMin= 1.49D-03
 ErrMax= 2.05D-03  0.00D+00 EMaxC= 1.00D-01 BMatC= 3.00D-03 BMatP= 1.79D-03
 IDIUse=3 WtCom= 9.85D-01 WtEn= 1.49D-02
 Coeff-Com:  0.454D-02-0.926D-02 0.567D-02 0.758D-04-0.127D-01 0.126D-01
 Coeff-Com:  0.225D-01 0.462D-01 0.162D+00 0.802D-01-0.136D+01-0.268D+01
 Coeff-Com:  0.473D+01
 Coeff-En:   0.000D+00 0.000D+00 0.000D+00 0.000D+00 0.000D+00 0.000D+00
 Coeff-En:   0.000D+00 0.000D+00 0.402D-01 0.000D+00 0.000D+00 0.000D+00
 Coeff-En:   0.960D+00
 Coeff:      0.447D-02-0.913D-02 0.558D-02 0.747D-04-0.125D-01 0.124D-01
 Coeff:      0.221D-01 0.455D-01 0.160D+00 0.790D-01-0.134D+01-0.264D+01
 Coeff:      0.467D+01
 Gap=     0.125 Goal=   None    Shift=    0.000
 RMSDP=1.26D-04 MaxDP=1.27D-02 DE=-3.46D-04 OVMax= 1.09D-02

 Cycle  14  Pass 1  IDiag  1:
 E= -845.247375214043     Delta-E=       -0.001711010804 Rises=F Damp=F
 DIIS: error= 6.48D-04 at cycle  14 NSaved=  14.
 NSaved=14 IEnMin=14 EnMin= -845.247375214043     IErMin=14 ErrMin= 6.48D-04
 ErrMax= 6.48D-04  0.00D+00 EMaxC= 1.00D-01 BMatC= 2.62D-04 BMatP= 1.79D-03
 IDIUse=3 WtCom= 9.94D-01 WtEn= 6.48D-03
 Coeff-Com:  0.101D-02-0.321D-02 0.907D-03 0.461D-04 0.739D-04 0.295D-02
 Coeff-Com:  0.232D-02-0.309D-01 0.317D-01 0.706D-01-0.808D+00-0.210D+01
 Coeff-Com:  0.330D+01 0.533D+00
 Coeff-En:   0.000D+00 0.000D+00 0.000D+00 0.000D+00 0.000D+00 0.000D+00
 Coeff-En:   0.000D+00 0.000D+00 0.000D+00 0.000D+00 0.000D+00 0.000D+00
 Coeff-En:   0.000D+00 0.100D+01
 Coeff:      0.100D-02-0.319D-02 0.901D-03 0.458D-04 0.734D-04 0.293D-02
 Coeff:      0.231D-02-0.307D-01 0.315D-01 0.701D-01-0.803D+00-0.209D+01
 Coeff:      0.328D+01 0.536D+00
 Gap=     0.120 Goal=   None    Shift=    0.000
 RMSDP=1.29D-04 MaxDP=6.71D-03 DE=-1.71D-03 OVMax= 1.53D-02

 Cycle  15  Pass 1  IDiag  1:
 E= -845.247438841150     Delta-E=       -0.000063627108 Rises=F Damp=F
 DIIS: error= 4.87D-04 at cycle  15 NSaved=  15.
 NSaved=15 IEnMin=15 EnMin= -845.247438841150     IErMin=15 ErrMin= 4.87D-04
 ErrMax= 4.87D-04  0.00D+00 EMaxC= 1.00D-01 BMatC= 1.98D-04 BMatP= 2.62D-04
 IDIUse=3 WtCom= 9.95D-01 WtEn= 4.87D-03
 Coeff-Com: -0.110D-02-0.125D-02 0.410D-03 0.901D-06-0.113D-02 0.457D-02
 Coeff-Com:  0.281D-02 0.912D-02 0.584D-01 0.153D+00-0.138D+00-0.130D+01
 Coeff-Com:  0.141D+01 0.377D+00 0.428D+00
 Coeff-En:   0.000D+00 0.000D+00 0.000D+00 0.000D+00 0.000D+00 0.000D+00
 Coeff-En:   0.000D+00 0.000D+00 0.000D+00 0.000D+00 0.000D+00 0.000D+00
 Coeff-En:   0.000D+00 0.406D+00 0.594D+00
 Coeff:     -0.110D-02-0.124D-02 0.408D-03 0.897D-06-0.113D-02 0.454D-02
 Coeff:      0.279D-02 0.907D-02 0.581D-01 0.152D+00-0.137D+00-0.130D+01
 Coeff:      0.140D+01 0.377D+00 0.429D+00
 Gap=     0.131 Goal=   None    Shift=    0.000
 RMSDP=1.46D-04 MaxDP=8.11D-03 DE=-6.36D-05 OVMax= 1.79D-02

 Cycle  16  Pass 1  IDiag  1:
 E= -845.247468806834     Delta-E=       -0.000029965684 Rises=F Damp=F
 DIIS: error= 3.20D-04 at cycle  16 NSaved=  16.
 NSaved=16 IEnMin=16 EnMin= -845.247468806834     IErMin=16 ErrMin= 3.20D-04
 ErrMax= 3.20D-04  0.00D+00 EMaxC= 1.00D-01 BMatC= 7.60D-05 BMatP= 1.98D-04
 IDIUse=3 WtCom= 9.97D-01 WtEn= 3.20D-03
 Coeff-Com:  0.133D-03-0.103D-02-0.188D-04 0.378D-04 0.237D-03-0.175D-03
 Coeff-Com: -0.432D-03-0.456D-02 0.701D-02 0.278D-01-0.227D-01-0.309D+00
 Coeff-Com:  0.320D+00 0.129D+00 0.414D+00 0.441D+00
 Coeff-En:   0.000D+00 0.000D+00 0.000D+00 0.000D+00 0.000D+00 0.000D+00
 Coeff-En:   0.000D+00 0.000D+00 0.000D+00 0.000D+00 0.000D+00 0.000D+00
 Coeff-En:   0.000D+00 0.000D+00 0.463D+00 0.537D+00
 Coeff:      0.133D-03-0.103D-02-0.187D-04 0.377D-04 0.236D-03-0.174D-03
 Coeff:     -0.431D-03-0.454D-02 0.699D-02 0.277D-01-0.227D-01-0.308D+00
 Coeff:      0.318D+00 0.129D+00 0.414D+00 0.441D+00
 Gap=     0.123 Goal=   None    Shift=    0.000
 RMSDP=6.85D-05 MaxDP=3.84D-03 DE=-3.00D-05 OVMax= 8.18D-03

 Cycle  17  Pass 1  IDiag  1:
 E= -845.247630895554     Delta-E=       -0.000162088720 Rises=F Damp=F
 DIIS: error= 6.37D-05 at cycle  17 NSaved=  17.
 NSaved=17 IEnMin=17 EnMin= -845.247630895554     IErMin=17 ErrMin= 6.37D-05
 ErrMax= 6.37D-05  0.00D+00 EMaxC= 1.00D-01 BMatC= 3.39D-06 BMatP= 7.60D-05
 IDIUse=1 WtCom= 1.00D+00 WtEn= 0.00D+00
 Coeff-Com:  0.583D-04-0.297D-03-0.814D-04 0.139D-04 0.164D-03-0.109D-03
 Coeff-Com: -0.198D-03-0.134D-02 0.138D-02 0.220D-02-0.709D-02-0.953D-01
 Coeff-Com:  0.718D-01 0.376D-01 0.187D+00 0.178D+00 0.626D+00
 Coeff:      0.583D-04-0.297D-03-0.814D-04 0.139D-04 0.164D-03-0.109D-03
 Coeff:     -0.198D-03-0.134D-02 0.138D-02 0.220D-02-0.709D-02-0.953D-01
 Coeff:      0.718D-01 0.376D-01 0.187D+00 0.178D+00 0.626D+00
 Gap=     0.122 Goal=   None    Shift=    0.000
 RMSDP=8.73D-06 MaxDP=4.56D-04 DE=-1.62D-04 OVMax= 1.14D-03

 Cycle  18  Pass 1  IDiag  1:
 E= -845.247634528477     Delta-E=       -0.000003632923 Rises=F Damp=F
 DIIS: error= 3.05D-05 at cycle  18 NSaved=  18.
 NSaved=18 IEnMin=18 EnMin= -845.247634528477     IErMin=18 ErrMin= 3.05D-05
 ErrMax= 3.05D-05  0.00D+00 EMaxC= 1.00D-01 BMatC= 6.20D-07 BMatP= 3.39D-06
 IDIUse=1 WtCom= 1.00D+00 WtEn= 0.00D+00
 Coeff-Com: -0.433D-05-0.190D-04-0.268D-04 0.272D-05 0.364D-05 0.768D-04
 Coeff-Com:  0.242D-04 0.441D-03 0.262D-03-0.183D-02-0.180D-02-0.328D-01
 Coeff-Com:  0.128D-01 0.631D-02 0.344D-01 0.256D-01 0.319D+00 0.637D+00
 Coeff:     -0.433D-05-0.190D-04-0.268D-04 0.272D-05 0.364D-05 0.768D-04
 Coeff:      0.242D-04 0.441D-03 0.262D-03-0.183D-02-0.180D-02-0.328D-01
 Coeff:      0.128D-01 0.631D-02 0.344D-01 0.256D-01 0.319D+00 0.637D+00
 Gap=     0.121 Goal=   None    Shift=    0.000
 RMSDP=1.97D-06 MaxDP=2.08D-04 DE=-3.63D-06 OVMax= 1.55D-04

 Cycle  19  Pass 1  IDiag  1:
 E= -845.247634809760     Delta-E=       -0.000000281283 Rises=F Damp=F
 DIIS: error= 3.51D-06 at cycle  19 NSaved=  19.
 NSaved=19 IEnMin=19 EnMin= -845.247634809760     IErMin=19 ErrMin= 3.51D-06
 ErrMax= 3.51D-06  0.00D+00 EMaxC= 1.00D-01 BMatC= 9.87D-09 BMatP= 6.20D-07
 IDIUse=1 WtCom= 1.00D+00 WtEn= 0.00D+00
 Coeff-Com: -0.155D-05-0.365D-05 0.361D-05-0.489D-06-0.191D-04 0.304D-04
 Coeff-Com: -0.175D-04 0.288D-03 0.364D-04 0.305D-03 0.235D-02-0.913D-02
 Coeff-Com:  0.947D-03 0.115D-02-0.102D-02-0.166D-02 0.459D-01 0.211D+00
 Coeff-Com:  0.750D+00
 Coeff:     -0.155D-05-0.365D-05 0.361D-05-0.489D-06-0.191D-04 0.304D-04
 Coeff:     -0.175D-04 0.288D-03 0.364D-04 0.305D-03 0.235D-02-0.913D-02
 Coeff:      0.947D-03 0.115D-02-0.102D-02-0.166D-02 0.459D-01 0.211D+00
 Coeff:      0.750D+00
 Gap=     0.121 Goal=   None    Shift=    0.000
 RMSDP=7.27D-07 MaxDP=4.03D-05 DE=-2.81D-07 OVMax= 8.09D-05

 Cycle  20  Pass 1  IDiag  1:
 E= -845.247634812258     Delta-E=       -0.000000002498 Rises=F Damp=F
 DIIS: error= 2.53D-06 at cycle  20 NSaved=  20.
 NSaved=20 IEnMin=20 EnMin= -845.247634812258     IErMin=20 ErrMin= 2.53D-06
 ErrMax= 2.53D-06  0.00D+00 EMaxC= 1.00D-01 BMatC= 4.01D-09 BMatP= 9.87D-09
 IDIUse=1 WtCom= 1.00D+00 WtEn= 0.00D+00
 Coeff-Com:  0.542D-06-0.806D-05 0.151D-05 0.206D-07-0.234D-05 0.283D-05
 Coeff-Com: -0.324D-05 0.463D-04-0.294D-04 0.813D-04 0.700D-03-0.142D-02
 Coeff-Com: -0.600D-03 0.392D-04 0.115D-02-0.215D-02 0.102D-01 0.491D-01
 Coeff-Com:  0.250D+00 0.693D+00
 Coeff:      0.542D-06-0.806D-05 0.151D-05 0.206D-07-0.234D-05 0.283D-05
 Coeff:     -0.324D-05 0.463D-04-0.294D-04 0.813D-04 0.700D-03-0.142D-02
 Coeff:     -0.600D-03 0.392D-04 0.115D-02-0.215D-02 0.102D-01 0.491D-01
 Coeff:      0.250D+00 0.693D+00
 Gap=     0.121 Goal=   None    Shift=    0.000
 RMSDP=3.65D-07 MaxDP=1.99D-05 DE=-2.50D-09 OVMax= 4.32D-05

 Cycle  21  Pass 1  IDiag  1:
 E= -845.247634817119     Delta-E=       -0.000000004861 Rises=F Damp=F
 DIIS: error= 4.22D-07 at cycle  21 NSaved=  20.
 NSaved=20 IEnMin=20 EnMin= -845.247634817119     IErMin=20 ErrMin= 4.22D-07
 ErrMax= 4.22D-07  0.00D+00 EMaxC= 1.00D-01 BMatC= 1.06D-10 BMatP= 4.01D-09
 IDIUse=1 WtCom= 1.00D+00 WtEn= 0.00D+00
 Coeff-Com:  0.376D-06-0.315D-05 0.519D-06 0.511D-06 0.191D-06-0.578D-06
 Coeff-Com: -0.145D-06-0.640D-05 0.330D-04 0.265D-03 0.135D-03-0.761D-03
 Coeff-Com: -0.147D-03 0.595D-03-0.115D-02 0.271D-02 0.974D-02 0.584D-01
 Coeff-Com:  0.321D+00 0.609D+00
 Coeff:      0.376D-06-0.315D-05 0.519D-06 0.511D-06 0.191D-06-0.578D-06
 Coeff:     -0.145D-06-0.640D-05 0.330D-04 0.265D-03 0.135D-03-0.761D-03
 Coeff:     -0.147D-03 0.595D-03-0.115D-02 0.271D-02 0.974D-02 0.584D-01
 Coeff:      0.321D+00 0.609D+00
 Gap=     0.121 Goal=   None    Shift=    0.000
 RMSDP=2.71D-08 MaxDP=1.75D-06 DE=-4.86D-09 OVMax= 3.20D-06

 Cycle  22  Pass 1  IDiag  1:
 E= -845.247634817033     Delta-E=        0.000000000085 Rises=F Damp=F
 DIIS: error= 1.97D-07 at cycle  22 NSaved=  20.
 NSaved=20 IEnMin=19 EnMin= -845.247634817119     IErMin=20 ErrMin= 1.97D-07
 ErrMax= 1.97D-07  0.00D+00 EMaxC= 1.00D-01 BMatC= 2.72D-11 BMatP= 1.06D-10
 IDIUse=1 WtCom= 1.00D+00 WtEn= 0.00D+00
 Coeff-Com:  0.656D-06-0.143D-05 0.426D-06-0.760D-06-0.320D-06-0.770D-05
 Coeff-Com: -0.431D-05-0.323D-05 0.949D-04 0.437D-03-0.577D-03-0.124D-03
 Coeff-Com:  0.939D-04-0.261D-03 0.509D-04-0.171D-02-0.555D-02 0.662D-01
 Coeff-Com:  0.262D+00 0.679D+00
 Coeff:      0.656D-06-0.143D-05 0.426D-06-0.760D-06-0.320D-06-0.770D-05
 Coeff:     -0.431D-05-0.323D-05 0.949D-04 0.437D-03-0.577D-03-0.124D-03
 Coeff:      0.939D-04-0.261D-03 0.509D-04-0.171D-02-0.555D-02 0.662D-01
 Coeff:      0.262D+00 0.679D+00
 Gap=     0.121 Goal=   None    Shift=    0.000
 RMSDP=1.25D-08 MaxDP=8.83D-07 DE= 8.53D-11 OVMax= 1.47D-06

 Cycle  23  Pass 1  IDiag  1:
 E= -845.247634817048     Delta-E=       -0.000000000015 Rises=F Damp=F
 DIIS: error= 1.36D-07 at cycle  23 NSaved=  20.
 NSaved=20 IEnMin=18 EnMin= -845.247634817119     IErMin=20 ErrMin= 1.36D-07
 ErrMax= 1.36D-07  0.00D+00 EMaxC= 1.00D-01 BMatC= 1.27D-11 BMatP= 2.72D-11
 IDIUse=1 WtCom= 1.00D+00 WtEn= 0.00D+00
 Coeff-Com:  0.478D-06-0.470D-06-0.448D-06-0.289D-06-0.422D-05-0.305D-05
 Coeff-Com: -0.716D-05 0.316D-04 0.241D-03-0.260D-03-0.604D-04-0.103D-03
 Coeff-Com: -0.268D-05-0.376D-03-0.191D-02-0.853D-02 0.354D-02 0.576D-01
 Coeff-Com:  0.280D+00 0.670D+00
 Coeff:      0.478D-06-0.470D-06-0.448D-06-0.289D-06-0.422D-05-0.305D-05
 Coeff:     -0.716D-05 0.316D-04 0.241D-03-0.260D-03-0.604D-04-0.103D-03
 Coeff:     -0.268D-05-0.376D-03-0.191D-02-0.853D-02 0.354D-02 0.576D-01
 Coeff:      0.280D+00 0.670D+00
 Gap=     0.121 Goal=   None    Shift=    0.000
 RMSDP=5.46D-09 MaxDP=4.30D-07 DE=-1.48D-11 OVMax= 4.71D-07

 SCF Done:  E(RB-P86) =  -845.247634817     A.U. after   23 cycles
            NFock= 23  Conv=0.55D-08     -V/T= 2.4900
 KE= 5.672773404535D+02 PE=-2.837628670840D+03 EE= 9.460200638967D+02
 Leave Link  502 at Tue Jul  4 10:06:39 2023, MaxMem=  2147483648 cpu:             654.2 elap:             114.8
 (Enter /home/pcmt/gaussian/g16.C.01/g16/l601.exe)
 Copying SCF densities to generalized density rwf, IOpCl= 0 IROHF=0.

 **********************************************************************

            Population analysis using the SCF Density.

 **********************************************************************

 Orbital symmetries:
       Occupied  (A) (A) (A) (A) (A) (A) (A) (A) (A) (A) (A) (A)
                 (A) (A) (A) (A) (A) (A) (A) (A) (A) (A) (A) (A)
                 (A) (A) (A) (A) (A) (A) (A) (A) (A) (A) (A) (A)
                 (A) (A)
       Virtual   (A) (A) (A) (A) (A) (A) (A) (A) (A) (A) (A) (A)
                 (A) (A) (A) (A) (A) (A) (A) (A) (A) (A) (A) (A)
                 (A) (A) (A) (A) (A) (A) (A) (A) (A) (A) (A) (A)
                 (A) (A) (A) (A) (A) (A) (A) (A) (A) (A) (A) (A)
                 (A) (A) (A) (A) (A) (A) (A) (A) (A) (A) (A) (A)
                 (A) (A) (A) (A) (A) (A) (A) (A) (A) (A) (A) (A)
                 (A) (A) (A) (A) (A) (A) (A) (A) (A) (A) (A) (A)
                 (A) (A) (A) (A) (A) (A) (A) (A) (A) (A) (A) (A)
                 (A) (A) (A) (A) (A) (A) (A) (A) (A) (A) (A) (A)
                 (A) (A) (A) (A) (A) (A) (A) (A) (A) (A) (A) (A)
                 (A) (A) (A) (A) (A) (A) (A) (A) (A) (A) (A) (A)
                 (A) (A) (A) (A) (A) (A) (A) (A) (A) (A) (A) (A)
                 (A) (A) (A) (A) (A) (A) (A) (A) (A) (A) (A) (A)
                 (A) (A) (A) (A) (A) (A) (A) (A) (A) (A) (A) (A)
                 (A) (A) (A) (A) (A) (A) (A) (A) (A) (A) (A) (A)
                 (A) (A) (A) (A) (A) (A) (A) (A) (A) (A) (A) (A)
                 (A) (A) (A) (A) (A) (A) (A) (A) (A) (A) (A) (A)
                 (A) (A) (A) (A) (A) (A) (A) (A) (A) (A) (A) (A)
                 (A) (A) (A) (A) (A) (A) (A) (A) (A) (A) (A) (A)
                 (A) (A) (A) (A) (A) (A) (A) (A) (A) (A) (A) (A)
 The electronic state is 1-A.
 Alpha  occ. eigenvalues --  -24.19398 -18.86538 -18.76410 -18.74503 -18.72550
 Alpha  occ. eigenvalues --  -11.07265  -7.14157  -7.14097  -7.12463  -3.49966
 Alpha  occ. eigenvalues --   -3.49917  -3.49078  -3.49036  -3.48374  -1.69937
 Alpha  occ. eigenvalues --   -1.02385  -0.99218  -0.95843  -0.90344  -0.86717
 Alpha  occ. eigenvalues --   -0.79941  -0.78308  -0.66722  -0.57630  -0.45619
 Alpha  occ. eigenvalues --   -0.42465  -0.40147  -0.36412  -0.31343  -0.30871
 Alpha  occ. eigenvalues --   -0.30472  -0.29949  -0.27954  -0.26878  -0.26479
 Alpha  occ. eigenvalues --   -0.26162  -0.25481  -0.22929
 Alpha virt. eigenvalues --   -0.10782  -0.09481  -0.08983  -0.08730  -0.08223
 Alpha virt. eigenvalues --   -0.06499  -0.05860  -0.04827  -0.01418  -0.00498
 Alpha virt. eigenvalues --    0.00768   0.01730   0.02101   0.03342   0.06259
 Alpha virt. eigenvalues --    0.06699   0.07763   0.08120   0.09993   0.12402
 Alpha virt. eigenvalues --    0.13683   0.20397   0.23649   0.25606   0.26649
 Alpha virt. eigenvalues --    0.27699   0.27811   0.28545   0.29248   0.30525
 Alpha virt. eigenvalues --    0.31606   0.33192   0.36761   0.37439   0.39431
 Alpha virt. eigenvalues --    0.40089   0.40722   0.43000   0.44599   0.45889
 Alpha virt. eigenvalues --    0.47348   0.48171   0.50762   0.53425   0.55385
 Alpha virt. eigenvalues --    0.56572   0.57681   0.62302   0.63122   0.64955
 Alpha virt. eigenvalues --    0.65998   0.67963   0.69335   0.69956   0.74732
 Alpha virt. eigenvalues --    0.75350   0.77607   0.79442   0.84443   0.90563
 Alpha virt. eigenvalues --    1.01810   1.02980   1.05024   1.05964   1.08389
 Alpha virt. eigenvalues --    1.09919   1.10675   1.12440   1.12934   1.13980
 Alpha virt. eigenvalues --    1.15165   1.17353   1.19046   1.19392   1.20771
 Alpha virt. eigenvalues --    1.22443   1.25023   1.27428   1.29574   1.32342
 Alpha virt. eigenvalues --    1.37251   1.39208   1.41430   1.43859   1.46720
 Alpha virt. eigenvalues --    1.48487   1.52895   1.54047   1.57092   1.59393
 Alpha virt. eigenvalues --    1.60476   1.63785   1.64427   1.67733   1.70032
 Alpha virt. eigenvalues --    1.72225   1.75393   1.80384   1.82341   1.83865
 Alpha virt. eigenvalues --    1.87950   1.88980   1.93081   1.97324   1.99247
 Alpha virt. eigenvalues --    1.99911   2.06923   2.08963   2.10434   2.11931
 Alpha virt. eigenvalues --    2.14887   2.15949   2.17004   2.23311   2.25313
 Alpha virt. eigenvalues --    2.27499   2.30140   2.32356   2.36587   2.42945
 Alpha virt. eigenvalues --    2.45546   2.46935   2.48232   2.52426   2.53969
 Alpha virt. eigenvalues --    2.60466   2.62545   2.65495   2.66244   2.67983
 Alpha virt. eigenvalues --    2.81601   2.85344   2.88109   2.93706   2.96753
 Alpha virt. eigenvalues --    3.16370   3.24603   3.25837   3.32862   3.47048
 Alpha virt. eigenvalues --    3.52583   3.62610   3.68670   3.70195   3.73817
 Alpha virt. eigenvalues --    3.76478   3.83343   3.86254   3.88016   3.89864
 Alpha virt. eigenvalues --    4.02579   4.05631   4.22130   4.32867   4.92239
 Alpha virt. eigenvalues --    5.01435   5.01905   5.03341   5.03854   5.05369
 Alpha virt. eigenvalues --    5.06491   5.06740   5.09283   5.11866   5.13208
 Alpha virt. eigenvalues --    5.13707   5.15500   5.16814   5.18477   5.20562
 Alpha virt. eigenvalues --    5.22486   5.23617   5.29178   5.31062   5.32283
 Alpha virt. eigenvalues --    5.34520   5.39691   5.44535   5.79205   6.00752
 Alpha virt. eigenvalues --    6.05611   6.10344   6.12378   6.15889   6.16711
 Alpha virt. eigenvalues --    6.18341   6.20855   6.22457   6.23537   6.29390
 Alpha virt. eigenvalues --    6.34751   6.38732   6.41482   6.47412   6.58440
 Alpha virt. eigenvalues --    6.59991   6.66493   6.70898   6.74798   6.76835
 Alpha virt. eigenvalues --    6.80493   6.80629   6.80772   6.81193   6.81814
 Alpha virt. eigenvalues --    6.86026   6.88033   6.89314   6.92348   7.00288
 Alpha virt. eigenvalues --    7.17658   7.27046   7.47855   8.08734   8.15629
 Alpha virt. eigenvalues --    8.18628   8.21723   8.22253   8.38604   8.42711
 Alpha virt. eigenvalues --    8.51449   8.78488   9.04502  29.31638  29.34704
 Alpha virt. eigenvalues --   29.49501  42.99771  43.17969  43.37118  43.53421
 Alpha virt. eigenvalues --   54.10663  56.61757  70.23372  70.24789  70.33813
 Alpha virt. eigenvalues --  142.61562 142.64589 142.81153 202.61269 626.12450
     Molecular Orbital Coefficients:
                           1         2         3         4         5
                           O         O         O         O         O
     Eigenvalues --   -24.19398 -18.86538 -18.76410 -18.74503 -18.72550
   1 1   Pa 1S         -0.00000  -0.00000  -0.00000  -0.00000  -0.00000
   2        2S         -0.00003  -0.00003  -0.00016  -0.00006  -0.00015
   3        3S          0.00000   0.00000   0.00001   0.00000   0.00001
   4        4S          0.00007   0.00006   0.00035   0.00013   0.00035
   5        5S         -0.00024  -0.00019  -0.00137  -0.00050  -0.00147
   6        6S          0.00039   0.00033   0.00266   0.00096   0.00317
   7        7S         -0.00019  -0.00049  -0.00389  -0.00116  -0.00531
   8        8S          0.00030   0.00130   0.00423   0.00126   0.00368
   9        9S         -0.00268  -0.00467  -0.00645  -0.00619  -0.00594
  10       10S          0.00075   0.00107   0.00097   0.00150   0.00110
  11       11PX        -0.00002   0.00002   0.00000   0.00000   0.00000
  12       11PY        -0.00000   0.00000   0.00002   0.00000  -0.00002
  13       11PZ        -0.00000  -0.00000  -0.00000   0.00002  -0.00000
  14       12PX         0.00017  -0.00012  -0.00002  -0.00000  -0.00002
  15       12PY         0.00001  -0.00001  -0.00015  -0.00001   0.00018
  16       12PZ         0.00000   0.00001   0.00003  -0.00018   0.00000
  17       13PX        -0.00038   0.00026   0.00005   0.00001   0.00004
  18       13PY        -0.00002   0.00002   0.00034   0.00002  -0.00042
  19       13PZ        -0.00001  -0.00003  -0.00007   0.00041  -0.00000
  20       14PX         0.00070  -0.00050  -0.00009  -0.00002  -0.00009
  21       14PY         0.00004  -0.00005  -0.00068  -0.00003   0.00089
  22       14PZ         0.00001   0.00005   0.00015  -0.00081   0.00001
  23       15PX        -0.00103   0.00074   0.00014   0.00003   0.00016
  24       15PY        -0.00008   0.00007   0.00106   0.00004  -0.00163
  25       15PZ        -0.00002  -0.00007  -0.00023   0.00126  -0.00001
  26       16PX         0.00155  -0.00122  -0.00026  -0.00007  -0.00040
  27       16PY         0.00021  -0.00014  -0.00170  -0.00001   0.00413
  28       16PZ         0.00001   0.00011   0.00038  -0.00199   0.00003
  29       17PX        -0.00297   0.00276   0.00030   0.00014   0.00061
  30       17PY        -0.00027   0.00019   0.00336   0.00001  -0.00725
  31       17PZ        -0.00007  -0.00007  -0.00047   0.00245  -0.00003
  32       18PX         0.00892  -0.00756   0.00008  -0.00010  -0.00081
  33       18PY        -0.00058   0.00072  -0.02085  -0.00063   0.01924
  34       18PZ         0.00047  -0.00052   0.00036  -0.00615  -0.00019
  35       19PX        -0.00004   0.00004  -0.00009   0.00018  -0.00003
  36       19PY         0.00011   0.00003   0.00036  -0.00006  -0.00038
  37       19PZ         0.00015   0.00020   0.00005  -0.00024   0.00017
[...]
     8  H   -0.016378   0.340706   0.000010  -0.000294
     9  H   -0.000026   0.000010   0.426850  -0.001702
    10  O    0.000059  -0.000294  -0.001702   8.121450
 Mulliken charges:
               1
     1  Pa   1.407106
     2  O   -0.627958
     3  O   -0.615690
     4  F   -0.455696
     5  H    0.325477
     6  O   -0.637924
     7  H    0.365093
     8  H    0.371724
     9  H    0.318150
    10  O   -0.450282
 Sum of Mulliken charges =  -0.00000
 Mulliken charges with hydrogens summed into heavy atoms:
               1
     1  Pa   1.407106
     2  O   -0.309808
     3  O   -0.290214
     4  F   -0.455696
     6  O    0.098893
    10  O   -0.450282
 Electronic spatial extent (au):  <R**2>=            952.7002
 Charge=              0.0000 electrons
 Dipole moment (field-independent basis, Debye):
    X=              7.4973    Y=              1.9984    Z=             -0.6071  Tot=              7.7828
 Quadrupole moment (field-independent basis, Debye-Ang):
   XX=            -56.6914   YY=            -69.5435   ZZ=            -63.0873
   XY=             -0.5364   XZ=             -1.7358   YZ=             -0.9023
 Traceless Quadrupole moment (field-independent basis, Debye-Ang):
   XX=              6.4160   YY=             -6.4361   ZZ=              0.0201
   XY=             -0.5364   XZ=             -1.7358   YZ=             -0.9023
 Octapole moment (field-independent basis, Debye-Ang**2):
  XXX=             75.1585  YYY=             27.9185  ZZZ=             -8.6059  XYY=              0.3287
  XXY=             -1.5661  XXZ=             -1.9326  XZZ=             -4.3880  YZZ=            -12.4929
  YYZ=              7.6681  XYZ=             -0.2912
 Hexadecapole moment (field-independent basis, Debye-Ang**3):
 XXXX=           -327.7941 YYYY=           -362.2391 ZZZZ=           -208.7491 XXXY=              0.0364
 XXXZ=            -10.9996 YYYX=             -6.3420 YYYZ=             21.5957 ZZZX=              2.0191
 ZZZY=            -27.3003 XXYY=           -121.2506 XXZZ=           -129.4573 YYZZ=           -104.6222
 XXYZ=             -0.5626 YYXZ=             -1.3615 ZZXY=              0.7408
 N-N= 4.790836316725D+02 E-N=-2.837628642002D+03  KE= 5.672773404535D+02
 Orbital energies and kinetic energies (alpha):
                                 1                 2
   1         O               -24.193979         37.162634
   2         O               -18.865376         29.113289
   3         O               -18.764103         29.112189
   4         O               -18.745032         29.114141
   5         O               -18.725504         29.110777
   6         O               -11.072653          4.703966
   7         O                -7.141570          5.036651
   8         O                -7.140967          5.036401
   9         O                -7.124627          5.033092
  10         O                -3.499662          6.835588
  11         O                -3.499167          6.836203
  12         O                -3.490775          6.831654
  13         O                -3.490361          6.831769
  14         O                -3.483743          6.827500
  15         O                -1.699373          6.376243
  16         O                -1.023848          2.678890
  17         O                -0.992176          3.676847
  18         O                -0.958427          2.283611
  19         O                -0.903439          2.423938
  20         O                -0.867167          3.058234
  21         O                -0.799412          2.531140
  22         O                -0.783085          2.548982
  23         O                -0.667218          3.239286
  24         O                -0.576297          1.869526
  25         O                -0.456186          2.544080
  26         O                -0.424647          2.460285
  27         O                -0.401473          3.458913
  28         O                -0.364115          2.327918
  29         O                -0.313430          3.515624
  30         O                -0.308711          2.656465
  31         O                -0.304716          2.994404
  32         O                -0.299495          2.903629
  33         O                -0.279542          2.986682
  34         O                -0.268783          2.424721
  35         O                -0.264786          2.413233
  36         O                -0.261620          5.667137
  37         O                -0.254806          3.062911
  38         O                -0.229294          5.950116
  39         V                -0.107821        119.271118
  40         V                -0.094806          6.286791
  41         V                -0.089830          5.320056
  42         V                -0.087299          6.085865
  43         V                -0.082231         68.014458
  44         V                -0.064992         21.319376
  45         V                -0.058597        159.571248
  46         V                -0.048273          5.130058
  47         V                -0.014185         11.096213
  48         V                -0.004983         17.159610
  49         V                 0.007683          1.566695
  50         V                 0.017301          3.162587
  51         V                 0.021013          1.353966
  52         V                 0.033423          1.462267
  53         V                 0.062593          0.860127
  54         V                 0.066993          3.205001
  55         V                 0.077626          7.587238
  56         V                 0.081202          1.914539
  57         V                 0.099928          2.729081
  58         V                 0.124023          4.498727
  59         V                 0.136830          5.247589
  60         V                 0.203975          1.003045
  61         V                 0.236489          1.314875
  62         V                 0.256057          1.297404
  63         V                 0.266486          1.312936
  64         V                 0.276990          1.386689
  65         V                 0.278112          1.335453
  66         V                 0.285450          1.397343
  67         V                 0.292484          1.160370
  68         V                 0.305246          1.601128
  69         V                 0.316061          1.335477
  70         V                 0.331919          1.411049
  71         V                 0.367612          2.346037
  72         V                 0.374394          2.200728
  73         V                 0.394308          1.432157
  74         V                 0.400886          1.608474
  75         V                 0.407220          1.722023
  76         V                 0.430001          1.965155
  77         V                 0.445988          1.664368
  78         V                 0.458889          1.913356
  79         V                 0.473478          1.675488
  80         V                 0.481706          1.819275
  81         V                 0.507620          1.849957
  82         V                 0.534252          1.597295
  83         V                 0.553854          1.501799
  84         V                 0.565718          1.665493
  85         V                 0.576815          1.624697
  86         V                 0.623022          1.516664
  87         V                 0.631220          2.481612
  88         V                 0.649550          3.910850
  89         V                 0.659976          1.566178
  90         V                 0.679628          1.604572
  91         V                 0.693346          1.711613
  92         V                 0.699559          1.722825
  93         V                 0.747320          1.957594
  94         V                 0.753500          1.786194
  95         V                 0.776074          1.784019
  96         V                 0.794419          1.812486
  97         V                 0.844435          1.829863
  98         V                 0.905630          3.015854
  99         V                 1.018102          2.565511
 100         V                 1.029797          2.668451
 101         V                 1.050237          2.400237
 102         V                 1.059638          2.336356
 103         V                 1.083888          2.788800
 104         V                 1.099192          2.994632
 105         V                 1.106747          2.821761
 106         V                 1.124403          2.872848
 107         V                 1.129339          2.935819
 108         V                 1.139804          3.068204
 109         V                 1.151652          3.029110
 110         V                 1.173529          2.795166
 111         V                 1.190462          2.542939
 112         V                 1.193918          2.914806
 113         V                 1.207713          2.647358
 114         V                 1.224425          2.610208
 115         V                 1.250229          3.107357
 116         V                 1.274284          2.915092
 117         V                 1.295741          3.144829
 118         V                 1.323417          2.466132
 119         V                 1.372513          2.491185
 120         V                 1.392076          2.534700
 121         V                 1.414301          3.330552
 122         V                 1.438588          3.309234
 123         V                 1.467196          2.763376
 124         V                 1.484867          3.280904
 125         V                 1.528954          3.097194
 126         V                 1.540470          3.120954
 127         V                 1.570917          3.347755
 128         V                 1.593927          3.134242
 129         V                 1.604763          3.658091
 130         V                 1.637855          3.408762
 131         V                 1.644272          3.022063
 132         V                 1.677335          3.086786
 133         V                 1.700321          3.184218
 134         V                 1.722245          3.138415
 135         V                 1.753935          3.514768
 136         V                 1.803841          3.831152
 137         V                 1.823410          3.382477
 138         V                 1.838653          3.676921
 139         V                 1.879501          3.546439
 140         V                 1.889798          3.473209
 141         V                 1.930813          3.402945
 142         V                 1.973237          2.953021
 143         V                 1.992474          3.648998
 144         V                 1.999109          3.167661
 145         V                 2.069234          3.342456
 146         V                 2.089630          3.721831
 147         V                 2.104339          3.722942
 148         V                 2.119308          3.844653
 149         V                 2.148869          3.715416
 150         V                 2.159494          3.761593
 151         V                 2.170041          3.988504
 152         V                 2.233114          4.422007
 153         V                 2.253132          4.215291
 154         V                 2.274991          4.354638
 155         V                 2.301398          3.835799
 156         V                 2.323561          5.668223
 157         V                 2.365869          4.040963
 158         V                 2.429451          3.967907
 159         V                 2.455464          4.400142
 160         V                 2.469355          4.416947
 161         V                 2.482319          6.511331
 162         V                 2.524259          4.942148
 163         V                 2.539685          5.536277
 164         V                 2.604661          6.893635
 165         V                 2.625447          6.838365
 166         V                 2.654954          5.916275
 167         V                 2.662444          6.054346
 168         V                 2.679832          5.504542
 169         V                 2.816006          6.996320
 170         V                 2.853438          6.762992
 171         V                 2.881092          6.700237
 172         V                 2.937063          7.122669
 173         V                 2.967529          7.178347
 174         V                 3.163701          7.506022
 175         V                 3.246030          8.768787
 176         V                 3.258374          8.681333
 177         V                 3.328625          8.513375
 178         V                 3.470481          6.876011
 179         V                 3.525834          8.135684
 180         V                 3.626100          8.296596
 181         V                 3.686699          8.098176
 182         V                 3.701952          7.094550
 183         V                 3.738165          8.006497
 184         V                 3.764775          7.672151
 185         V                 3.833433          9.739611
 186         V                 3.862544          9.526609
 187         V                 3.880155          9.277015
 188         V                 3.898641          9.186030
 189         V                 4.025790         10.041076
 190         V                 4.056314          9.766277
 191         V                 4.221303          9.750345
 192         V                 4.328674          9.504648
 193         V                 4.922388          6.543433
 194         V                 5.014346          6.456633
 195         V                 5.019053          6.497230
 196         V                 5.033412          6.449040
 197         V                 5.038543          6.543300
 198         V                 5.053693          6.461807
 199         V                 5.064912          6.492621
 200         V                 5.067400          6.674144
 201         V                 5.092829          6.796718
 202         V                 5.118656          6.596202
 203         V                 5.132084          6.745240
 204         V                 5.137075          6.725889
 205         V                 5.155005          6.754432
 206         V                 5.168143          6.823052
 207         V                 5.184767          6.900511
 208         V                 5.205616          6.840749
 209         V                 5.224861          6.910498
 210         V                 5.236173          6.942467
 211         V                 5.291783          7.026172
 212         V                 5.310620          7.494010
 213         V                 5.322833          6.931451
 214         V                 5.345197          7.327273
 215         V                 5.396911          7.302581
 216         V                 5.445352          7.201975
 217         V                 5.792049          8.521682
 218         V                 6.007517          9.102518
 219         V                 6.056112         10.138033
 220         V                 6.103440          9.054897
 221         V                 6.123781         10.526116
 222         V                 6.158895          9.319246
 223         V                 6.167113          9.424071
 224         V                 6.183413          9.295559
 225         V                 6.208550          9.408924
 226         V                 6.224570          9.384954
 227         V                 6.235365          9.393660
 228         V                 6.293903          9.405753
 229         V                 6.347509          9.456289
 230         V                 6.387324          9.695976
 231         V                 6.414817          9.604400
 232         V                 6.474121          9.917109
 233         V                 6.584399          9.729644
 234         V                 6.599915          9.644566
 235         V                 6.664934         10.541902
 236         V                 6.708982          9.491660
 237         V                 6.747981          9.991058
 238         V                 6.768353          9.905771
 239         V                 6.804926          8.811016
 240         V                 6.806288          8.643124
 241         V                 6.807718          8.649002
 242         V                 6.811931          9.246880
 243         V                 6.818144          9.216160
 244         V                 6.860257          8.845174
 245         V                 6.880331          8.873348
 246         V                 6.893142         10.071354
 247         V                 6.923481          9.767830
 248         V                 7.002875         10.592699
 249         V                 7.176583         13.143511
 250         V                 7.270460         13.033552
 251         V                 7.478555         13.693045
 252         V                 8.087343         15.374062
 253         V                 8.156288         15.339143
 254         V                 8.186279         12.679097
 255         V                 8.217229         14.678525
 256         V                 8.222525         13.291962
 257         V                 8.386038         13.217599
 258         V                 8.427111         13.161407
 259         V                 8.514490         14.855001
 260         V                 8.784884         14.920665
 261         V                 9.045016         15.333923
 262         V                29.316379         36.017684
 263         V                29.347041         36.041542
 264         V                29.495014         36.173301
 265         V                42.997708        108.464706
 266         V                43.179692        108.522500
 267         V                43.371183        108.712185
 268         V                43.534212        108.856320
 269         V                54.106632         39.996668
 270         V                56.617572        141.531285
 271         V                70.233717         83.936658
 272         V                70.247887         83.974571
 273         V                70.338129         84.118602
 274         V               142.615625        242.410685
 275         V               142.645889        242.448259
 276         V               142.811535        242.654609
 277         V               202.612686        130.080570
 278         V               626.124497       1034.498965
 Total kinetic energy from orbitals= 5.672773404535D+02
 No NMR shielding tensors so no spin-rotation constants.
 Leave Link  601 at Tue Jul  4 10:06:39 2023, MaxMem=  2147483648 cpu:               3.2 elap:               0.5
 (Enter /home/pcmt/gaussian/g16.C.01/g16/l9999.exe)

 Test job not archived.
 1\1\GINC-U-0-13\SP\RBP86\Gen\F1H4O4Pa1\ROOT\04-Jul-2023\0\\#p BP86/GEN
  Pseudo=Read GFInput GFPrint IOP(6/7=3) Symm=(Loose) Int=(UltraFine) G
 uess=(Harris) Scf=(NoVarAcc,MaxCycle=100,conver=8)\\pao_oh2_f_h2o-bp86
 -cosmors-deftzvp-gp.com SGP in PCM calculation\\0,1\Pa,0,-0.1969692901
 ,0.0605402353,0.828725729\O,0,1.1125883588,1.4696129407,-0.142180112\O
 ,0,-1.7943207446,0.8073502437,-0.3457718967\F,0,-0.7299131242,1.351450
 5036,2.5044142831\H,0,-1.9397819163,1.6281255332,-0.8344157004\O,0,0.0
 593002438,-1.6471956802,-1.0085967688\H,0,-0.3644882599,-1.6142486042,
 -1.8761336395\H,0,0.7674829863,-2.3018569204,-1.062252825\H,0,2.064417
 6933,1.5522123674,-0.0121880779\O,0,1.1403964296,-0.8847919337,1.73322
 06471\\Version=ES64L-G16RevC.01\State=1-A\HF=-845.2476348\RMSD=5.464e-
 09\Dipole=-0.2473701,-1.7228557,-2.5192002\Quadrupole=-1.8192112,1.992
 1192,-0.172908,1.3400345,-1.8002524,4.0508546\PG=C01 [X(F1H4O4Pa1)]\\@


 QED = W**5 (WHICH WAS WHAT WE WANTED)
 Job cpu time:       0 days  0 hours 11 minutes 21.4 seconds.
 Elapsed time:       0 days  0 hours  1 minutes 58.5 seconds.
 File lengths (MBytes):  RWF=     33 Int=      0 D2E=      0 Chk=      6 Scr=      1
 Normal termination of Gaussian 16 at Tue Jul  4 10:06:39 2023.
