

 Parallel Execution: Process Information
 ==============================================================================
 Rank   Node Name                              NodeID   MyNodeRank  NodeMaster
    0   u-0-8.local                               0          0          0
    1   u-0-8.local                               0          1         -1
    2   u-0-8.local                               1          0          1
    3   u-0-8.local                               1          1         -1
    4   u-0-8.local                               2          0          2
    5   u-0-8.local                               2          1         -1
    6   u-0-8.local                               3          0          3
    7   u-0-8.local                               3          1         -1
 ==============================================================================


May use up to 31228MB of RAM as shared memory on node 0
May use up to 31250MB of RAM as shared memory on node 1
May use up to 31250MB of RAM as shared memory on node 2
May use up to 31250MB of RAM as shared memory on node 3

 *******************************************************************************
 *                                                                             *
 *  --------------------------------                                           *
 *   Amsterdam Modeling Suite (AMS)              2022.103                      *
 *  --------------------------------                                           *
 *                                               r104886 2022-06-17            *
 *                                                                             *
 *                                                                             *
 *                              =================                              *
 *                              |               |                              *
 *                              |     A M S     |                              *
 *                              |               |                              *
 *                              =================                              *
 *                                                                             *
 *                                                                             *
 *   Online information and documentation:  https://www.scm.com/support/       *
 *   E-mail:  support@scm.com   info@scm.com                                   *
 *                                                                             *
 *   Scientific publications using AMS results must be properly referenced     *
 *   See the User Manuals (or the web site) for recommended citations          *
 *   The terms and conditions of the End User License Agreement apply to       *
 *   the use of AMS, https://www.scm.com/license-terms/                        *
 *                                                                             *
 **********************  x86_64_linux_intel / intelmpi  ************************
 
 Licensed to: Dr. Val?rie Vallet / Laboratoire PhLAM UMR 8523 / Villeneuve d'Ascq Cedex / FRANCE 2023-02-21 11:49:39
 SCM User ID: u10325
  
 AMS 2022.103  RunTime: Feb22-2023 09:35:32  ShM Nodes: 4  Procs: 8

 AMS jobname: ams
 AMS jobid  : 1995777467

 Start   directory: /home/shaaban/ams/PhD/hyroxide/pa_oh5/gp/B21/
 Results directory: /home/shaaban/ams/PhD/hyroxide/pa_oh5/gp/B21/pa_oh5.SR.b3lyp.tz2p.opt-freq-B21.results/
 Scratch directory: /state/partition2/shaaban/928764.phlam-s-sakura/amstmp_ams_kid0.1995777467/


 Communication costs MPI_COMM_WORLD:      2.691 usec per message,   0.0087 usec per 8-byte item
 Communication costs for intra-node:      0.476 usec per message,   0.0024 usec per 8-byte item

 RNG seed: 1032526665 1878367982 -391418422 -64682376 -1688214073 1858843288 1285974235 -1921188692



                      ************************************************************************
                      *  ADF 2022.103  RunTime: Feb22-2023 09:35:33  ShM Nodes: 4  Procs: 8  *
                      ************************************************************************
  
       ***************************
       *  GEOMETRY OPTIMIZATION  *
       ***************************

Optimization Method                    Quasi Newton
Optimization Coordinates               Delocalized Coordinates
Optimize lattice                       F
 
 ------------------------------------------------------
 Convergence criteria (Hartree,Angstrom)
 ------------------------------------------------------
 Maximum gradient               0.000100000000
 Maximum rms gradient           0.000066666667
 Maximum step allowed           0.001000000000
 Maximum rms step allowed       0.000666666667
 Maximum energy change allowe   0.000011000000
 Maximum stress energy allowe   0.000500000000
 
Initial model Hessian                  Automatic Hessian
 
------------------------------------
Quasi-Newton Optimizer Parameters
------------------------------------
Hessian Update Method                  BFGS
Maximum number of steps                  250
First GDIIS cycle                          0
Maximum GDIIS vectors                      0
Trust radius (bohr)                        0.200000
Trust radius varies                        T
Constraints converged at all steps         T
Use projector                              T
 
 Rigid motions settings for: old optimizer
 Atomic rotations (x,y,z):     T T T
 Atomic translations (x,y,z):  T T T
 Tolerance:                   1.000000000000000E-006
 
--------
Geometry
--------
Formula: H5O5Pa
Atoms
  Index Symbol   x (angstrom)   y (angstrom)   z (angstrom)
      1     Pa     0.32966179    -0.04088964     0.03021016
      2      O     1.09267423     1.55606841    -1.08252874
      3      H     1.50298618     2.08013131    -1.77366298
      4      O    -1.37454446     1.10762780     0.51432163
      5      H    -1.83104612     1.94929346     0.45068077
      6      O     0.30067347    -1.24838048    -1.69917249
      7      H     0.15840846    -2.09238006    -2.13223594
      8      O    -0.39458287    -1.63006067     1.17650163
      9      H    -0.87991524    -2.17839523     1.79625615
     10      O     2.19717494     0.02793595     1.35374999
     11      H     2.45813747     0.94142891     1.49169623
 
Total System Charge             0.00000
Bonding info available!
 
 
----------------
ADF Engine Input
----------------
 
 Basis
 Type TZ2P
 Core None
 End
 XC
 Hybrid B3LYP
 End
 NumericalQuality Good
 

 Title: *** (NO TITLE) ***

 Using automatic Hessian for delocalized coordinates.
 *** GO1_GOStep1 ***



 ======================
 RI Hartree-Fock Scheme
 ======================
  
 Fit Set Quality     : GOOD
 Threshold Quality   : GOOD
 Integration Quality : GOOD
 Response Quality    : DEFAULT
 Is Range Separated  :  F
 
 RIHartreeFock Dependency: number of modified vectors:           5
  
 Hartree-Fock exchange energy:   -509.110657543409     

 Energy gradients wrt nuclear displacements
 ==========================================

     Atom      Cartesian (a.u./angstrom)
                 X         Y         Z
 ----------------------------------------
     1 Pa   -0.046024  0.011274 -0.033919
     2 O    -0.001040 -0.003235 -0.002479
     3 H     0.000536  0.000349  0.000659
     4 O    -0.001168 -0.000997 -0.000263
     5 H     0.000219  0.000356  0.000339
     6 O     0.000306 -0.001602 -0.001550
     7 H     0.000023  0.000369 -0.000247
     8 O    -0.001367 -0.001911  0.003237
     9 H    -0.000333  0.000045 -0.000042
    10 O     0.064473  0.001601  0.037346
    11 H    -0.015626 -0.006248 -0.003080
 ----------------------------------------
 Mulliken charges used for AMS results%charges...
 
----------------------------------------------------------------------
Geometry Convergence after Step   1       (Hartree/Angstrom,Angstrom)
----------------------------------------------------------------------
current energy                               -2.98838368 Hartree
energy change                      -2.98838368     0.00001100    F
constrained gradient max            0.06447813     0.00010000    F
constrained gradient rms            0.01677403     0.00006667    F
gradient max                        0.06447813
gradient rms                        0.01677403
cart. step max                      0.04610436     0.00100000    F
cart. step rms                      0.01508864     0.00066667    F
 
 
--------
Geometry
--------
Formula: H5O5Pa
Atoms
  Index Symbol   x (angstrom)   y (angstrom)   z (angstrom)
      1     Pa     0.32525957    -0.04421759     0.03571074
      2      O     1.09237723     1.56289203    -1.06079141
      3      H     1.50578428     2.09103644    -1.74700213
      4      O    -1.37894679     1.10880602     0.50800561
      5      H    -1.83431631     1.95053780     0.43869442
      6      O     0.30469545    -1.25328181    -1.69135713
      7      H     0.16521488    -2.09885137    -2.12252246
      8      O    -0.39885499    -1.63429131     1.17741934
      9      H    -0.88479625    -2.18451013     1.79493945
     10      O     2.16135632     0.03811795     1.34712809
     11      H     2.50185444     0.93614175     1.44559187
 
Total System Charge             0.00000
Bonding info available!
 
 *** GO1_GOStep2 ***



 ======================
 RI Hartree-Fock Scheme
 ======================
  
 Fit Set Quality     : GOOD
 Threshold Quality   : GOOD
 Integration Quality : GOOD
 Response Quality    : DEFAULT
 Is Range Separated  :  F
 
 RIHartreeFock Dependency: number of modified vectors:           5
  
 Hartree-Fock exchange energy:   -509.118198919731     

 Energy gradients wrt nuclear displacements
 ==========================================

     Atom      Cartesian (a.u./angstrom)
                 X         Y         Z
 ----------------------------------------
     1 Pa   -0.039676  0.006711 -0.030163
     2 O    -0.002306 -0.003759 -0.000553
     3 H     0.000800  0.000347  0.000585
     4 O     0.000663 -0.001072 -0.000710
     5 H     0.000164  0.000335  0.000214
     6 O     0.000137 -0.000009  0.000995
     7 H    -0.000056  0.000048 -0.000172
     8 O    -0.000389  0.000324  0.000896
     9 H    -0.000280  0.000120 -0.000038
    10 O     0.051069 -0.007951  0.029887
    11 H    -0.010126  0.004906 -0.000943
 ----------------------------------------
 Mulliken charges used for AMS results%charges...

 dE(predicted):    -0.16324E-02, dE(actual):    -0.28575E-02, Trust radius:    0.400000, all in a.u.
 
----------------------------------------------------------------------
Geometry Convergence after Step   2       (Hartree/Angstrom,Angstrom)
----------------------------------------------------------------------
current energy                               -2.99124122 Hartree
energy change                      -0.00285755     0.00001100    F
constrained gradient max            0.05107526     0.00010000    F
constrained gradient rms            0.01375813     0.00006667    F
gradient max                        0.05107526
gradient rms                        0.01375813
cart. step max                      0.09969775     0.00100000    F
cart. step rms                      0.03000570     0.00066667    F
 
 
--------
Geometry
--------
Formula: H5O5Pa
Atoms
  Index Symbol   x (angstrom)   y (angstrom)   z (angstrom)
      1     Pa     0.31841506    -0.04241036     0.04524770
      2      O     1.09911615     1.58175447    -1.02716840
      3      H     1.51975189     2.11187650    -1.70718160
      4      O    -1.39097876     1.11499378     0.49639807
      5      H    -1.84741462     1.95482772     0.41678627
      6      O     0.31256490    -1.25986994    -1.67703831
      7      H     0.17914777    -2.10940355    -2.10226807
      8      O    -0.39075558    -1.63754505     1.18699819
      9      H    -0.87070440    -2.19399120     1.80348858
     10      O     2.06165857     0.06708996     1.30572111
     11      H     2.56882686     0.88505743     1.38483285
 
Total System Charge             0.00000
Bonding info available!
 
 *** GO1_GOStep3 ***



 ======================
 RI Hartree-Fock Scheme
 ======================
  
 Fit Set Quality     : GOOD
 Threshold Quality   : GOOD
 Integration Quality : GOOD
 Response Quality    : DEFAULT
 Is Range Separated  :  F
 
 RIHartreeFock Dependency: number of modified vectors:           5
  
 Hartree-Fock exchange energy:   -509.149599522710     

 Energy gradients wrt nuclear displacements
 ==========================================

     Atom      Cartesian (a.u./angstrom)
                 X         Y         Z
 ----------------------------------------
     1 Pa   -0.007879 -0.000166 -0.006225
     2 O    -0.003669 -0.003995  0.002631
     3 H     0.001175  0.000209  0.000505
     4 O     0.003967 -0.001589 -0.001680
     5 H     0.000255  0.000095 -0.000042
     6 O    -0.000507  0.002778  0.005470
     7 H    -0.000171 -0.000295  0.000068
     8 O     0.002607  0.004976 -0.003769
     9 H    -0.000431  0.000116  0.000209
    10 O     0.008784 -0.009978  0.003149
    11 H    -0.004132  0.007851 -0.000315
 ----------------------------------------
 Mulliken charges used for AMS results%charges...

 dE(predicted):    -0.49386E-02, dE(actual):    -0.49194E-02, Trust radius:    0.800000, all in a.u.
 
----------------------------------------------------------------------
Geometry Convergence after Step   3       (Hartree/Angstrom,Angstrom)
----------------------------------------------------------------------
current energy                               -2.99616065 Hartree
energy change                      -0.00491943     0.00001100    F
constrained gradient max            0.00999075     0.00010000    F
constrained gradient rms            0.00392927     0.00006667    F
gradient max                        0.00999075
gradient rms                        0.00392927
cart. step max                      0.05935740     0.00100000    F
cart. step rms                      0.01886237     0.00066667    F
 
 
--------
Geometry
--------
Formula: H5O5Pa
Atoms
  Index Symbol   x (angstrom)   y (angstrom)   z (angstrom)
      1     Pa     0.31237460    -0.03338265     0.05300486
      2      O     1.09899973     1.59255968    -1.02274191
      3      H     1.52009629     2.11826016    -1.70558278
      4      O    -1.40876817     1.11732545     0.49340827
      5      H    -1.87119988     1.95334657     0.40926709
      6      O     0.32463507    -1.25565561    -1.67082441
      7      H     0.19939306    -2.10662044    -2.09534998
      8      O    -0.39228131    -1.63487223     1.19558796
      9      H    -0.86952603    -2.19562143     1.80992441
     10      O     2.01772022     0.08660255     1.30264738
     11      H     2.62818425     0.83043771     1.35647551
 
Total System Charge             0.00000
Bonding info available!
 
 *** GO1_GOStep4 ***



 ======================
 RI Hartree-Fock Scheme
 ======================
  
 Fit Set Quality     : GOOD
 Threshold Quality   : GOOD
 Integration Quality : GOOD
 Response Quality    : DEFAULT
 Is Range Separated  :  F
 
 RIHartreeFock Dependency: number of modified vectors:           5
  
 Hartree-Fock exchange energy:   -509.156780952205     

 Energy gradients wrt nuclear displacements
 ==========================================

     Atom      Cartesian (a.u./angstrom)
                 X         Y         Z
 ----------------------------------------
     1 Pa    0.008874 -0.000511  0.006037
     2 O    -0.002897 -0.001873  0.001466
     3 H     0.001207  0.000112  0.000674
     4 O     0.002911 -0.000855 -0.001162
     5 H     0.000261  0.000038 -0.000124
     6 O    -0.000789  0.001903  0.004273
     7 H    -0.000060 -0.000235  0.000087
     8 O     0.002247  0.003744 -0.003037
     9 H    -0.000314  0.000108  0.000140
    10 O    -0.008829 -0.007657 -0.007273
    11 H    -0.002611  0.005227 -0.001081
 ----------------------------------------
 Mulliken charges used for AMS results%charges...

 dE(predicted):    -0.65775E-03, dE(actual):    -0.76897E-03, Trust radius:    0.800000, all in a.u.
 
----------------------------------------------------------------------
Geometry Convergence after Step   4       (Hartree/Angstrom,Angstrom)
----------------------------------------------------------------------
current energy                               -2.99692962 Hartree
energy change                      -0.00076897     0.00001100    F
constrained gradient max            0.00887471     0.00010000    F
constrained gradient rms            0.00355828     0.00006667    F
gradient max                        0.00887471
gradient rms                        0.00355828
cart. step max                      0.05447770     0.00100000    F
cart. step rms                      0.01550363     0.00066667    F
 
 
--------
Geometry
--------
Formula: H5O5Pa
Atoms
  Index Symbol   x (angstrom)   y (angstrom)   z (angstrom)
      1     Pa     0.30634165    -0.02374709     0.05854046
      2      O     1.09470417     1.59743472    -1.02950315
      3      H     1.51279531     2.11683581    -1.71881338
      4      O    -1.42652770     1.11707415     0.49319416
      5      H    -1.89596497     1.94904665     0.40719428
      6      O     0.33595200    -1.24729210    -1.66894543
      7      H     0.21834680    -2.09840580    -2.09505337
      8      O    -0.39885901    -1.63028614     1.20142410
      9      H    -0.87545853    -2.19369645     1.81353878
     10      O     2.00563616     0.10111067     1.31656053
     11      H     2.68266196     0.78430536     1.34767942
 
Total System Charge             0.00000
Bonding info available!
 
 *** GO1_GOStep5 ***



 ======================
 RI Hartree-Fock Scheme
 ======================
  
 Fit Set Quality     : GOOD
 Threshold Quality   : GOOD
 Integration Quality : GOOD
 Response Quality    : DEFAULT
 Is Range Separated  :  F
 
 RIHartreeFock Dependency: number of modified vectors:           5
  
 Hartree-Fock exchange energy:   -509.150514103844     

 Energy gradients wrt nuclear displacements
 ==========================================

     Atom      Cartesian (a.u./angstrom)
                 X         Y         Z
 ----------------------------------------
     1 Pa    0.008560 -0.000013  0.006082
     2 O    -0.001285  0.000576 -0.000853
     3 H     0.001132  0.000141  0.000810
     4 O     0.000530  0.000286 -0.000201
     5 H     0.000217  0.000057 -0.000130
     6 O    -0.000675  0.000007  0.001320
     7 H     0.000104 -0.000064  0.000006
     8 O     0.000845  0.000805 -0.000598
     9 H    -0.000138  0.000093 -0.000018
    10 O    -0.007338 -0.004778 -0.005052
    11 H    -0.001951  0.002890 -0.001368
 ----------------------------------------
 Mulliken charges used for AMS results%charges...

 dE(predicted):    -0.28733E-03, dE(actual):    -0.43890E-03, Trust radius:    0.800000, all in a.u.
 
----------------------------------------------------------------------
Geometry Convergence after Step   5       (Hartree/Angstrom,Angstrom)
----------------------------------------------------------------------
current energy                               -2.99736852 Hartree
energy change                      -0.00043890     0.00001100    F
constrained gradient max            0.00856004     0.00010000    F
constrained gradient rms            0.00267184     0.00006667    F
gradient max                        0.00856004
gradient rms                        0.00267184
cart. step max                      0.07510984     0.00100000    F
cart. step rms                      0.02256925     0.00066667    F
 
 
--------
Geometry
--------
Formula: H5O5Pa
Atoms
  Index Symbol   x (angstrom)   y (angstrom)   z (angstrom)
      1     Pa     0.30015637    -0.00936253     0.06587974
      2      O     1.08396733     1.60198248    -1.04321432
      3      H     1.49242312     2.11071583    -1.74603063
      4      O    -1.44843215     1.11499721     0.49286928
      5      H    -1.92891815     1.94051718     0.40473283
      6      O     0.35269436    -1.23212869    -1.66612898
      7      H     0.24439034    -2.08326444    -2.09439545
      8      O    -0.40879702    -1.62092300     1.20684629
      9      H    -0.88612496    -2.18717377     1.81556979
     10      O     2.00049681     0.12290099     1.33791374
     11      H     2.75777179     0.71411849     1.35177411
 
Total System Charge             0.00000
Bonding info available!
 
 *** GO1_GOStep6 ***



 ======================
 RI Hartree-Fock Scheme
 ======================
  
 Fit Set Quality     : GOOD
 Threshold Quality   : GOOD
 Integration Quality : GOOD
 Response Quality    : DEFAULT
 Is Range Separated  :  F
 
 RIHartreeFock Dependency: number of modified vectors:           5
  
 Hartree-Fock exchange energy:   -509.141100763017     

 Energy gradients wrt nuclear displacements
 ==========================================

     Atom      Cartesian (a.u./angstrom)
                 X         Y         Z
 ----------------------------------------
     1 Pa    0.002810  0.000590  0.002478
     2 O     0.000500  0.002483 -0.003256
     3 H     0.000974  0.000203  0.000876
     4 O    -0.002054  0.001203  0.000848
     5 H     0.000135  0.000080 -0.000102
     6 O    -0.000378 -0.001792 -0.001994
     7 H     0.000326  0.000079 -0.000142
     8 O    -0.000673 -0.002151  0.002038
     9 H     0.000003 -0.000020 -0.000139
    10 O    -0.000384 -0.001037  0.000777
    11 H    -0.001259  0.000361 -0.001383
 ----------------------------------------
 Mulliken charges used for AMS results%charges...

 dE(predicted):    -0.28609E-03, dE(actual):    -0.31999E-03, Trust radius:    0.800000, all in a.u.
 
----------------------------------------------------------------------
Geometry Convergence after Step   6       (Hartree/Angstrom,Angstrom)
----------------------------------------------------------------------
current energy                               -2.99768851 Hartree
energy change                      -0.00031999     0.00001100    F
constrained gradient max            0.00322776     0.00010000    F
constrained gradient rms            0.00136782     0.00006667    F
gradient max                        0.00322776
gradient rms                        0.00136782
cart. step max                      0.02768069     0.00100000    F
cart. step rms                      0.00868213     0.00066667    F
 
 
--------
Geometry
--------
Formula: H5O5Pa
Atoms
  Index Symbol   x (angstrom)   y (angstrom)   z (angstrom)
      1     Pa     0.30087665    -0.00450614     0.06836987
      2      O     1.07666258     1.60399759    -1.04777507
      3      H     1.47708096     2.10863940    -1.75818524
      4      O    -1.45197286     1.11368431     0.49160183
      5      H    -1.93664452     1.93667131     0.40250378
      6      O     0.35941311    -1.22639356    -1.66363585
      7      H     0.25226422    -2.07789140    -2.09145164
      8      O    -0.41184408    -1.61610920     1.20626571
      9      H    -0.89079625    -2.18265527     1.81344011
     10      O     2.00072506     0.13050491     1.34261605
     11      H     2.78386297     0.68643781     1.36206684
 
Total System Charge             0.00000
Bonding info available!
 
 *** GO1_GOStep7 ***



 ======================
 RI Hartree-Fock Scheme
 ======================
  
 Fit Set Quality     : GOOD
 Threshold Quality   : GOOD
 Integration Quality : GOOD
 Response Quality    : DEFAULT
 Is Range Separated  :  F
 
 RIHartreeFock Dependency: number of modified vectors:           5
  
 Hartree-Fock exchange energy:   -509.141237579019     

 Energy gradients wrt nuclear displacements
 ==========================================

     Atom      Cartesian (a.u./angstrom)
                 X         Y         Z
 ----------------------------------------
     1 Pa    0.001596  0.000587  0.001367
     2 O     0.000259  0.001871 -0.002925
     3 H     0.000925  0.000220  0.000788
     4 O    -0.001837  0.000909  0.000800
     5 H     0.000103  0.000103 -0.000085
     6 O    -0.000382 -0.001471 -0.001862
     7 H     0.000385  0.000084 -0.000160
     8 O    -0.000630 -0.001772  0.001869
     9 H     0.000013 -0.000051 -0.000144
    10 O     0.000287 -0.000447  0.001685
    11 H    -0.000719 -0.000032 -0.001331
 ----------------------------------------
 Mulliken charges used for AMS results%charges...

 dE(predicted):    -0.40420E-04, dE(actual):    -0.54019E-04, Trust radius:    0.800000, all in a.u.
 
----------------------------------------------------------------------
Geometry Convergence after Step   7       (Hartree/Angstrom,Angstrom)
----------------------------------------------------------------------
current energy                               -2.99774253 Hartree
energy change                      -0.00005402     0.00001100    F
constrained gradient max            0.00290148     0.00010000    F
constrained gradient rms            0.00112392     0.00006667    F
gradient max                        0.00290148
gradient rms                        0.00112392
cart. step max                      0.03689607     0.00100000    F
cart. step rms                      0.01280833     0.00066667    F
 
 
--------
Geometry
--------
Formula: H5O5Pa
Atoms
  Index Symbol   x (angstrom)   y (angstrom)   z (angstrom)
      1     Pa     0.30514424     0.00151118     0.07155297
      2      O     1.06416915     1.60712237    -1.05348371
      3      H     1.44778489     2.10545431    -1.77762004
      4      O    -1.45183916     1.11183973     0.48903479
      5      H    -1.94223213     1.93126640     0.39860085
      6      O     0.36883322    -1.21905303    -1.65892447
      7      H     0.25965463    -2.07142937    -2.08451671
      8      O    -0.41562357    -1.60927323     1.20204741
      9      H    -0.89837908    -2.17558718     1.80649228
     10      O     2.00427467     0.14098685     1.34549504
     11      H     2.81784098     0.64954173     1.38713798
 
Total System Charge             0.00000
Bonding info available!
 
 *** GO1_GOStep8 ***



 ======================
 RI Hartree-Fock Scheme
 ======================
  
 Fit Set Quality     : GOOD
 Threshold Quality   : GOOD
 Integration Quality : GOOD
 Response Quality    : DEFAULT
 Is Range Separated  :  F
 
 RIHartreeFock Dependency: number of modified vectors:           5
  
 Hartree-Fock exchange energy:   -509.144371609733     

 Energy gradients wrt nuclear displacements
 ==========================================

     Atom      Cartesian (a.u./angstrom)
                 X         Y         Z
 ----------------------------------------
     1 Pa    0.000535  0.000367 -0.000104
     2 O    -0.000742 -0.000015 -0.001388
     3 H     0.000825  0.000183  0.000596
     4 O    -0.000604  0.000079  0.000369
     5 H     0.000073  0.000083 -0.000038
     6 O    -0.000513 -0.000347 -0.000545
     7 H     0.000438  0.000029 -0.000156
     8 O    -0.000138 -0.000152  0.000679
     9 H    -0.000012 -0.000109 -0.000112
    10 O     0.000094  0.000185  0.001886
    11 H     0.000043 -0.000303 -0.001186
 ----------------------------------------
 Mulliken charges used for AMS results%charges...

 dE(predicted):    -0.53092E-04, dE(actual):    -0.58075E-04, Trust radius:    0.800000, all in a.u.
 
----------------------------------------------------------------------
Geometry Convergence after Step   8       (Hartree/Angstrom,Angstrom)
----------------------------------------------------------------------
current energy                               -2.99780061 Hartree
energy change                      -0.00005807     0.00001100    F
constrained gradient max            0.00189162     0.00010000    F
constrained gradient rms            0.00057768     0.00006667    F
gradient max                        0.00189162
gradient rms                        0.00057768
cart. step max                      0.02363362     0.00100000    F
cart. step rms                      0.00813544     0.00066667    F
 
 
--------
Geometry
--------
Formula: H5O5Pa
Atoms
  Index Symbol   x (angstrom)   y (angstrom)   z (angstrom)
      1     Pa     0.30967530     0.00444092     0.07266289
      2      O     1.05664367     1.60980148    -1.05658213
      3      H     1.42611134     2.10394929    -1.79097648
      4      O    -1.44859759     1.11136021     0.48694382
      5      H    -1.94212871     1.92878915     0.39575395
      6      O     0.37388019    -1.21582930    -1.65623099
      7      H     0.25993779    -2.06895240    -2.07911644
      8      O    -0.41662258    -1.60599750     1.19765412
      9      H    -0.90211959    -2.17161386     1.80059542
     10      O     2.00843559     0.14567199     1.34434063
     11      H     2.83441244     0.63075978     1.41077160
 
Total System Charge             0.00000
Bonding info available!
 
 *** GO1_GOStep9 ***



 ======================
 RI Hartree-Fock Scheme
 ======================
  
 Fit Set Quality     : GOOD
 Threshold Quality   : GOOD
 Integration Quality : GOOD
 Response Quality    : DEFAULT
 Is Range Separated  :  F
 
 RIHartreeFock Dependency: number of modified vectors:           5
  
 Hartree-Fock exchange energy:   -509.147088327596     

 Energy gradients wrt nuclear displacements
 ==========================================

     Atom      Cartesian (a.u./angstrom)
                 X         Y         Z
 ----------------------------------------
     1 Pa    0.000335  0.000173 -0.000799
     2 O    -0.001467 -0.001251 -0.000135
     3 H     0.000731  0.000155  0.000436
     4 O     0.000381 -0.000420 -0.000042
     5 H     0.000044  0.000071  0.000001
     6 O    -0.000629  0.000403  0.000586
     7 H     0.000430  0.000007 -0.000140
     8 O     0.000279  0.001011 -0.000249
     9 H    -0.000035 -0.000118 -0.000100
    10 O    -0.000524  0.000280  0.001427
    11 H     0.000454 -0.000312 -0.000983
 ----------------------------------------
 Mulliken charges used for AMS results%charges...
 Rebuilding optimization coordinates

 dE(predicted):    -0.23388E-04, dE(actual):    -0.25795E-04, Trust radius:    1.000000, all in a.u.
 
----------------------------------------------------------------------
Geometry Convergence after Step   9       (Hartree/Angstrom,Angstrom)
----------------------------------------------------------------------
current energy                               -2.99782640 Hartree
energy change                      -0.00002580     0.00001100    F
constrained gradient max            0.00148017     0.00010000    F
constrained gradient rms            0.00059113     0.00006667    F
gradient max                        0.00148017
gradient rms                        0.00059113
cart. step max                      0.02780192     0.00100000    F
cart. step rms                      0.00749132     0.00066667    F
 
 
--------
Geometry
--------
Formula: H5O5Pa
Atoms
  Index Symbol   x (angstrom)   y (angstrom)   z (angstrom)
      1     Pa     0.31458095     0.00641788     0.07278009
      2      O     1.05208604     1.61255921    -1.05944521
      3      H     1.40613892     2.10225583    -1.80441935
      4      O    -1.44405856     1.11177046     0.48531513
      5      H    -1.93994434     1.92767579     0.39366325
      6      O     0.37734856    -1.21397974    -1.65495377
      7      H     0.25565375    -2.06776909    -2.07439446
      8      O    -0.41602336    -1.60480043     1.19277608
      9      H    -0.90377270    -2.16944004     1.79484417
     10      O     2.01334158     0.14846595     1.34107695
     11      H     2.84427701     0.61922394     1.43857352
 
Total System Charge             0.00000
Bonding info available!
 
 *** GO1_GOStep10 ***



 ======================
 RI Hartree-Fock Scheme
 ======================
  
 Fit Set Quality     : GOOD
 Threshold Quality   : GOOD
 Integration Quality : GOOD
 Response Quality    : DEFAULT
 Is Range Separated  :  F
 
 RIHartreeFock Dependency: number of modified vectors:           5
  
 Hartree-Fock exchange energy:   -509.148911150901     

 Energy gradients wrt nuclear displacements
 ==========================================

     Atom      Cartesian (a.u./angstrom)
                 X         Y         Z
 ----------------------------------------
     1 Pa    0.000276 -0.000020 -0.001086
     2 O    -0.001773 -0.001878  0.000743
     3 H     0.000602  0.000123  0.000315
     4 O     0.001013 -0.000628 -0.000378
     5 H     0.000021  0.000034  0.000049
     6 O    -0.000682  0.000787  0.001405
     7 H     0.000375 -0.000005 -0.000129
     8 O     0.000558  0.001657 -0.000838
     9 H    -0.000068 -0.000126 -0.000085
    10 O    -0.000932  0.000327  0.000708
    11 H     0.000610 -0.000271 -0.000704
 ----------------------------------------
 Mulliken charges used for AMS results%charges...

 dE(predicted):    -0.19733E-04, dE(actual):    -0.25331E-04, Trust radius:    1.000000, all in a.u.
 
----------------------------------------------------------------------
Geometry Convergence after Step  10       (Hartree/Angstrom,Angstrom)
----------------------------------------------------------------------
current energy                               -2.99785173 Hartree
energy change                      -0.00002533     0.00001100    F
constrained gradient max            0.00185492     0.00010000    F
constrained gradient rms            0.00077708     0.00006667    F
gradient max                        0.00185492
gradient rms                        0.00077708
cart. step max                      0.01048464     0.00100000    F
cart. step rms                      0.00238452     0.00066667    F
 
 
--------
Geometry
--------
Formula: H5O5Pa
Atoms
  Index Symbol   x (angstrom)   y (angstrom)   z (angstrom)
      1     Pa     0.31602179     0.00668591     0.07237092
      2      O     1.05238843     1.61322222    -1.06079820
      3      H     1.40146991     2.10110718    -1.80931712
      4      O    -1.44248508     1.11226974     0.48544237
      5      H    -1.93872545     1.92795651     0.39384260
      6      O     0.37774163    -1.21363929    -1.65566148
      7      H     0.25235259    -2.06751505    -2.07387064
      8      O    -0.41503824    -1.60549030     1.19136296
      9      H    -0.90308421    -2.16969348     1.79358344
     10      O     2.01486253     0.14824624     1.33980338
     11      H     2.84412394     0.61923009     1.44905816
 
Total System Charge             0.00000
Bonding info available!
 
 *** GO1_GOStep11 ***



 ======================
 RI Hartree-Fock Scheme
 ======================
  
 Fit Set Quality     : GOOD
 Threshold Quality   : GOOD
 Integration Quality : GOOD
 Response Quality    : DEFAULT
 Is Range Separated  :  F
 
 RIHartreeFock Dependency: number of modified vectors:           5
  
 Hartree-Fock exchange energy:   -509.148603442292     

 Energy gradients wrt nuclear displacements
 ==========================================

     Atom      Cartesian (a.u./angstrom)
                 X         Y         Z
 ----------------------------------------
     1 Pa    0.000212 -0.000047 -0.000970
     2 O    -0.001592 -0.001662  0.000646
     3 H     0.000558  0.000135  0.000285
     4 O     0.000912 -0.000523 -0.000396
     5 H     0.000011  0.000029  0.000065
     6 O    -0.000637  0.000662  0.001334
     7 H     0.000338  0.000005 -0.000137
     8 O     0.000508  0.001460 -0.000702
     9 H    -0.000071 -0.000118 -0.000095
    10 O    -0.000809  0.000290  0.000536
    11 H     0.000570 -0.000230 -0.000567
 ----------------------------------------
 Mulliken charges used for AMS results%charges...

 dE(predicted):    -0.83438E-05, dE(actual):    -0.15995E-04, Trust radius:    1.000000, all in a.u.
 
----------------------------------------------------------------------
Geometry Convergence after Step  11       (Hartree/Angstrom,Angstrom)
----------------------------------------------------------------------
current energy                               -2.99786773 Hartree
energy change                      -0.00001599     0.00001100    F
constrained gradient max            0.00163920     0.00010000    F
constrained gradient rms            0.00069103     0.00006667    F
gradient max                        0.00163920
gradient rms                        0.00069103
cart. step max                      0.06059678     0.00100000    F
cart. step rms                      0.01399065     0.00066667    F
 
 
--------
Geometry
--------
Formula: H5O5Pa
Atoms
  Index Symbol   x (angstrom)   y (angstrom)   z (angstrom)
      1     Pa     0.32455448     0.00807773     0.06969810
      2      O     1.05648882     1.61622879    -1.06973314
      3      H     1.37502672     2.09305317    -1.83876422
      4      O    -1.43310167     1.11517371     0.48754828
      5      H    -1.93088792     1.92989320     0.39612235
      6      O     0.38043065    -1.21112307    -1.66122529
      7      H     0.23222705    -2.06506665    -2.07200330
      8      O    -0.40846740    -1.61009435     1.18345739
      9      H    -0.89789016    -2.17128117     1.78728268
     10      O     2.02298789     0.14661321     1.33377861
     11      H     2.83825936     0.62090518     1.50965493
 
Total System Charge             0.00000
Bonding info available!
 
 *** GO1_GOStep12 ***



 ======================
 RI Hartree-Fock Scheme
 ======================
  
 Fit Set Quality     : GOOD
 Threshold Quality   : GOOD
 Integration Quality : GOOD
 Response Quality    : DEFAULT
 Is Range Separated  :  F
 
 RIHartreeFock Dependency: number of modified vectors:           5
  
 Hartree-Fock exchange energy:   -509.146117970079     

 Energy gradients wrt nuclear displacements
 ==========================================

     Atom      Cartesian (a.u./angstrom)
                 X         Y         Z
 ----------------------------------------
     1 Pa   -0.000050 -0.000031 -0.000077
     2 O    -0.000315 -0.000093 -0.000460
     3 H     0.000246  0.000168  0.000199
     4 O     0.000044  0.000177 -0.000362
     5 H    -0.000022  0.000006  0.000139
     6 O    -0.000270 -0.000198  0.000563
     7 H     0.000106  0.000073 -0.000205
     8 O     0.000113  0.000018  0.000381
     9 H    -0.000083 -0.000075 -0.000161
    10 O     0.000125  0.000037 -0.000156
    11 H     0.000106 -0.000082  0.000139
 ----------------------------------------
 Mulliken charges used for AMS results%charges...

 dE(predicted):    -0.45959E-04, dE(actual):    -0.54157E-04, Trust radius:    1.000000, all in a.u.
 
----------------------------------------------------------------------
Geometry Convergence after Step  12       (Hartree/Angstrom,Angstrom)
----------------------------------------------------------------------
current energy                               -2.99792188 Hartree
energy change                      -0.00005416     0.00001100    F
constrained gradient max            0.00054241     0.00010000    F
constrained gradient rms            0.00020485     0.00006667    F
gradient max                        0.00054241
gradient rms                        0.00020485
cart. step max                      0.00716239     0.00100000    F
cart. step rms                      0.00188899     0.00066667    F
 
 
--------
Geometry
--------
Formula: H5O5Pa
Atoms
  Index Symbol   x (angstrom)   y (angstrom)   z (angstrom)
      1     Pa     0.32588471     0.00795738     0.06931239
      2      O     1.05771502     1.61614456    -1.07056333
      3      H     1.37167621     2.09083299    -1.84280657
      4      O    -1.43150377     1.11500475     0.48872194
      5      H    -1.92932258     1.92968291     0.39707435
      6      O     0.38110944    -1.21030210    -1.66260335
      7      H     0.22942715    -2.06437794    -2.07188484
      8      O    -0.40797740    -1.61076487     1.18203941
      9      H    -0.89785716    -2.17104184     1.78635263
     10      O     2.02400092     0.14658062     1.33335643
     11      H     2.83647529     0.62266332     1.51681733
 
Total System Charge             0.00000
Bonding info available!
 
 *** GO1_GOStep13 ***



 ======================
 RI Hartree-Fock Scheme
 ======================
  
 Fit Set Quality     : GOOD
 Threshold Quality   : GOOD
 Integration Quality : GOOD
 Response Quality    : DEFAULT
 Is Range Separated  :  F
 
 RIHartreeFock Dependency: number of modified vectors:           5
  
 Hartree-Fock exchange energy:   -509.145998289010     

 Energy gradients wrt nuclear displacements
 ==========================================

     Atom      Cartesian (a.u./angstrom)
                 X         Y         Z
 ----------------------------------------
     1 Pa   -0.000096 -0.000025 -0.000005
     2 O    -0.000171 -0.000029 -0.000522
     3 H     0.000200  0.000164  0.000188
     4 O    -0.000006  0.000164 -0.000317
     5 H    -0.000025  0.000009  0.000138
     6 O    -0.000202 -0.000230  0.000475
     7 H     0.000072  0.000081 -0.000202
     8 O     0.000064 -0.000023  0.000467
     9 H    -0.000094 -0.000082 -0.000158
    10 O     0.000261  0.000045 -0.000268
    11 H    -0.000004 -0.000075  0.000203
 ----------------------------------------
 Mulliken charges used for AMS results%charges...

 dE(predicted):    -0.16131E-05, dE(actual):    -0.29875E-05, Trust radius:    1.000000, all in a.u.
 
----------------------------------------------------------------------
Geometry Convergence after Step  13       (Hartree/Angstrom,Angstrom)
----------------------------------------------------------------------
current energy                               -2.99792487 Hartree
energy change                      -0.00000299     0.00001100    T
constrained gradient max            0.00049194     0.00010000    F
constrained gradient rms            0.00020347     0.00006667    F
gradient max                        0.00049194
gradient rms                        0.00020347
cart. step max                      0.00971635     0.00100000    F
cart. step rms                      0.00319526     0.00066667    F
 
 
--------
Geometry
--------
Formula: H5O5Pa
Atoms
  Index Symbol   x (angstrom)   y (angstrom)   z (angstrom)
      1     Pa     0.32815868     0.00746818     0.06876201
      2      O     1.06034541     1.61554228    -1.07124541
      3      H     1.36651534     2.08561258    -1.84947086
      4      O    -1.42850594     1.11432947     0.49182141
      5      H    -1.92594726     1.92914424     0.39921317
      6      O     0.38249612    -1.20831357    -1.66555771
      7      H     0.22483831    -2.06300968    -2.07139556
      8      O    -0.40754447    -1.61220790     1.17893001
      9      H    -0.89838896    -2.17043707     1.78438916
     10      O     2.02512541     0.14666837     1.33383650
     11      H     2.83253521     0.62758286     1.52653368
 
Total System Charge             0.00000
Bonding info available!
 
 *** GO1_GOStep14 ***



 ======================
 RI Hartree-Fock Scheme
 ======================
  
 Fit Set Quality     : GOOD
 Threshold Quality   : GOOD
 Integration Quality : GOOD
 Response Quality    : DEFAULT
 Is Range Separated  :  F
 
 RIHartreeFock Dependency: number of modified vectors:           5
  
 Hartree-Fock exchange energy:   -509.146052619060     

 Energy gradients wrt nuclear displacements
 ==========================================

     Atom      Cartesian (a.u./angstrom)
                 X         Y         Z
 ----------------------------------------
     1 Pa   -0.000166  0.000028  0.000048
     2 O    -0.000008 -0.000112 -0.000483
     3 H     0.000134  0.000156  0.000162
     4 O    -0.000010  0.000044 -0.000204
     5 H    -0.000026  0.000017  0.000119
     6 O    -0.000085 -0.000214  0.000350
     7 H     0.000014  0.000082 -0.000187
     8 O     0.000008  0.000081  0.000520
     9 H    -0.000111 -0.000094 -0.000157
    10 O     0.000395  0.000046 -0.000452
    11 H    -0.000145 -0.000035  0.000282
 ----------------------------------------
 Mulliken charges used for AMS results%charges...

 dE(predicted):    -0.30488E-05, dE(actual):    -0.72400E-05, Trust radius:    1.000000, all in a.u.
 
----------------------------------------------------------------------
Geometry Convergence after Step  14       (Hartree/Angstrom,Angstrom)
----------------------------------------------------------------------
current energy                               -2.99793211 Hartree
energy change                      -0.00000724     0.00001100    T
constrained gradient max            0.00048642     0.00010000    F
constrained gradient rms            0.00020505     0.00006667    F
gradient max                        0.00048642
gradient rms                        0.00020505
cart. step max                      0.00676542     0.00100000    F
cart. step rms                      0.00326085     0.00066667    F
 
 
--------
Geometry
--------
Formula: H5O5Pa
Atoms
  Index Symbol   x (angstrom)   y (angstrom)   z (angstrom)
      1     Pa     0.33026509     0.00688048     0.06853402
      2      O     1.06325172     1.61469066    -1.07110674
      3      H     1.36160441     2.07884716    -1.85596913
      4      O    -1.42537585     1.11374198     0.49593546
      5      H    -1.92180565     1.92898176     0.40144883
      6      O     0.38415093    -1.20560233    -1.66892563
      7      H     0.22076266    -2.06150630    -2.07008230
      8      O    -0.40733589    -1.61429007     1.17488986
      9      H    -0.89913841    -2.17010339     1.78183908
     10      O     2.02516484     0.14698620     1.33625857
     11      H     2.82808399     0.63375363     1.53299439
 
Total System Charge             0.00000
Bonding info available!
 
 *** GO1_GOStep15 ***



 ======================
 RI Hartree-Fock Scheme
 ======================
  
 Fit Set Quality     : GOOD
 Threshold Quality   : GOOD
 Integration Quality : GOOD
 Response Quality    : DEFAULT
 Is Range Separated  :  F
 
 RIHartreeFock Dependency: number of modified vectors:           5
  
 Hartree-Fock exchange energy:   -509.146267379930     

 Energy gradients wrt nuclear displacements
 ==========================================

     Atom      Cartesian (a.u./angstrom)
                 X         Y         Z
 ----------------------------------------
     1 Pa   -0.000199  0.000138  0.000057
     2 O     0.000050 -0.000345 -0.000322
     3 H     0.000077  0.000148  0.000125
     4 O     0.000036 -0.000112 -0.000064
     5 H    -0.000021  0.000026  0.000076
     6 O     0.000023 -0.000181  0.000218
     7 H    -0.000035  0.000079 -0.000165
     8 O    -0.000001  0.000301  0.000486
     9 H    -0.000126 -0.000101 -0.000162
    10 O     0.000431  0.000029 -0.000567
    11 H    -0.000234  0.000018  0.000318
 ----------------------------------------
 Mulliken charges used for AMS results%charges...

 dE(predicted):    -0.32981E-05, dE(actual):    -0.78044E-05, Trust radius:    1.000000, all in a.u.
 
----------------------------------------------------------------------
Geometry Convergence after Step  15       (Hartree/Angstrom,Angstrom)
----------------------------------------------------------------------
current energy                               -2.99793991 Hartree
energy change                      -0.00000780     0.00001100    T
constrained gradient max            0.00055456     0.00010000    F
constrained gradient rms            0.00021260     0.00006667    F
gradient max                        0.00055456
gradient rms                        0.00021260
cart. step max                      0.01154898     0.00100000    F
cart. step rms                      0.00490015     0.00066667    F
 
 
--------
Geometry
--------
Formula: H5O5Pa
Atoms
  Index Symbol   x (angstrom)   y (angstrom)   z (angstrom)
      1     Pa     0.33276669     0.00613835     0.06881804
      2      O     1.06769132     1.61352011    -1.06965986
      3      H     1.35487718     2.06729818    -1.86482806
      4      O    -1.42105957     1.11356037     0.50280603
      5      H    -1.91507290     1.92981640     0.40415111
      6      O     0.38674423    -1.20070816    -1.67399968
      7      H     0.21583821    -2.05930008    -2.06646104
      8      O    -0.40707930    -1.61851828     1.16774916
      9      H    -0.89986258    -2.17058660     1.77740028
     10      O     2.02325263     0.14784182     1.34280085
     11      H     2.82153192     0.64331766     1.53703957
 
Total System Charge             0.00000
Bonding info available!
 
 *** GO1_GOStep16 ***



 ======================
 RI Hartree-Fock Scheme
 ======================
  
 Fit Set Quality     : GOOD
 Threshold Quality   : GOOD
 Integration Quality : GOOD
 Response Quality    : DEFAULT
 Is Range Separated  :  F
 
 RIHartreeFock Dependency: number of modified vectors:           5
  
 Hartree-Fock exchange energy:   -509.146619718830     

 Energy gradients wrt nuclear displacements
 ==========================================

     Atom      Cartesian (a.u./angstrom)
                 X         Y         Z
 ----------------------------------------
     1 Pa   -0.000174  0.000347  0.000042
     2 O     0.000034 -0.000736 -0.000024
     3 H     0.000001  0.000127  0.000069
     4 O     0.000103 -0.000284  0.000164
     5 H    -0.000004  0.000035 -0.000018
     6 O     0.000160 -0.000136  0.000011
     7 H    -0.000094  0.000057 -0.000129
     8 O     0.000058  0.000644  0.000359
     9 H    -0.000146 -0.000106 -0.000173
    10 O     0.000342 -0.000037 -0.000595
    11 H    -0.000280  0.000089  0.000294
 ----------------------------------------
 Mulliken charges used for AMS results%charges...

 dE(predicted):    -0.57676E-05, dE(actual):    -0.13551E-04, Trust radius:    1.000000, all in a.u.
 
----------------------------------------------------------------------
Geometry Convergence after Step  16       (Hartree/Angstrom,Angstrom)
----------------------------------------------------------------------
current energy                               -2.99795347 Hartree
energy change                      -0.00001355     0.00001100    F
constrained gradient max            0.00071081     0.00010000    F
constrained gradient rms            0.00025496     0.00006667    F
gradient max                        0.00071081
gradient rms                        0.00025496
cart. step max                      0.01183595     0.00100000    F
cart. step rms                      0.00483013     0.00066667    F
 
 
--------
Geometry
--------
Formula: H5O5Pa
Atoms
  Index Symbol   x (angstrom)   y (angstrom)   z (angstrom)
      1     Pa     0.33405275     0.00579762     0.06991760
      2      O     1.07172381     1.61306515    -1.06667551
      3      H     1.34964609     2.05546223    -1.87163550
      4      O    -1.41794304     1.11449973     0.50937613
      5      H    -1.90871615     1.93209071     0.40536988
      6      O     0.38906038    -1.19527072    -1.67836516
      7      H     0.21290483    -2.05749007    -2.06069311
      8      O    -0.40679960    -1.62392645     1.15996008
      9      H    -0.89964984    -2.17255189     1.77275146
     10      O     2.01895667     0.14937638     1.35223046
     11      H     2.81639195     0.65132707     1.53358007
 
Total System Charge             0.00000
Bonding info available!
 
 *** GO1_GOStep17 ***



 ======================
 RI Hartree-Fock Scheme
 ======================
  
 Fit Set Quality     : GOOD
 Threshold Quality   : GOOD
 Integration Quality : GOOD
 Response Quality    : DEFAULT
 Is Range Separated  :  F
 
 RIHartreeFock Dependency: number of modified vectors:           5
  
 Hartree-Fock exchange energy:   -509.146819184354     

 Energy gradients wrt nuclear displacements
 ==========================================

     Atom      Cartesian (a.u./angstrom)
                 X         Y         Z
 ----------------------------------------
     1 Pa   -0.000055  0.000502 -0.000000
     2 O    -0.000084 -0.001025  0.000267
     3 H    -0.000049  0.000101  0.000007
     4 O     0.000121 -0.000297  0.000380
     5 H     0.000024  0.000034 -0.000138
     6 O     0.000231 -0.000173 -0.000205
     7 H    -0.000121  0.000046 -0.000076
     8 O     0.000175  0.000861  0.000195
     9 H    -0.000162 -0.000102 -0.000186
    10 O     0.000159 -0.000062 -0.000400
    11 H    -0.000239  0.000115  0.000157
 ----------------------------------------
 Mulliken charges used for AMS results%charges...

 dE(predicted):    -0.63629E-05, dE(actual):    -0.14434E-04, Trust radius:    1.000000, all in a.u.
 
----------------------------------------------------------------------
Geometry Convergence after Step  17       (Hartree/Angstrom,Angstrom)
----------------------------------------------------------------------
current energy                               -2.99796790 Hartree
energy change                      -0.00001443     0.00001100    F
constrained gradient max            0.00100112     0.00010000    F
constrained gradient rms            0.00029959     0.00006667    F
gradient max                        0.00100112
gradient rms                        0.00029959
cart. step max                      0.00827540     0.00100000    F
cart. step rms                      0.00325549     0.00066667    F
 
 
--------
Geometry
--------
Formula: H5O5Pa
Atoms
  Index Symbol   x (angstrom)   y (angstrom)   z (angstrom)
      1     Pa     0.33347901     0.00638345     0.07129465
      2      O     1.07337948     1.61425594    -1.06360299
      3      H     1.34806094     2.04903957    -1.87388125
      4      O    -1.41788843     1.11620924     0.51197123
      5      H    -1.90633215     1.93473222     0.40419007
      6      O     0.38994401    -1.19155539    -1.67984830
      7      H     0.21318446    -2.05692379    -2.05489029
      8      O    -0.40626908    -1.62808963     1.15509361
      9      H    -0.89804867    -2.17507056     1.77026788
     10      O     2.01426650     0.15113473     1.35991712
     11      H     2.81585176     0.65226399     1.52530466
 
Total System Charge             0.00000
Bonding info available!
 
 *** GO1_GOStep18 ***



 ======================
 RI Hartree-Fock Scheme
 ======================
  
 Fit Set Quality     : GOOD
 Threshold Quality   : GOOD
 Integration Quality : GOOD
 Response Quality    : DEFAULT
 Is Range Separated  :  F
 
 RIHartreeFock Dependency: number of modified vectors:           5
  
 Hartree-Fock exchange energy:   -509.146615487268     

 Energy gradients wrt nuclear displacements
 ==========================================

     Atom      Cartesian (a.u./angstrom)
                 X         Y         Z
 ----------------------------------------
     1 Pa    0.000088  0.000457 -0.000058
     2 O    -0.000160 -0.000898  0.000298
     3 H    -0.000061  0.000065 -0.000007
     4 O     0.000045 -0.000107  0.000471
     5 H     0.000047  0.000026 -0.000221
     6 O     0.000190 -0.000260 -0.000281
     7 H    -0.000107  0.000028 -0.000040
     8 O     0.000275  0.000733  0.000131
     9 H    -0.000167 -0.000091 -0.000192
    10 O    -0.000061 -0.000035 -0.000075
    11 H    -0.000089  0.000081 -0.000026
 ----------------------------------------
 Mulliken charges used for AMS results%charges...

 dE(predicted):    -0.47457E-05, dE(actual):    -0.87834E-05, Trust radius:    1.000000, all in a.u.
 
----------------------------------------------------------------------
Geometry Convergence after Step  18       (Hartree/Angstrom,Angstrom)
----------------------------------------------------------------------
current energy                               -2.99797668 Hartree
energy change                      -0.00000878     0.00001100    T
constrained gradient max            0.00087339     0.00010000    F
constrained gradient rms            0.00026641     0.00006667    F
gradient max                        0.00087339
gradient rms                        0.00026641
cart. step max                      0.00443781     0.00100000    F
cart. step rms                      0.00158984     0.00066667    F
 
 
--------
Geometry
--------
Formula: H5O5Pa
Atoms
  Index Symbol   x (angstrom)   y (angstrom)   z (angstrom)
      1     Pa     0.33273186     0.00736347     0.07191732
      2      O     1.07304367     1.61616172    -1.06251514
      3      H     1.34736682     2.04865833    -1.87415460
      4      O    -1.41921078     1.11732450     0.51054854
      5      H    -1.90732654     1.93596903     0.40221678
      6      O     0.38978232    -1.19031406    -1.67921152
      7      H     0.21406515    -2.05702836    -2.05167988
      8      O    -0.40554105    -1.62948093     1.15392169
      9      H    -0.89623429    -2.17616738     1.77022970
     10      O     2.01249010     0.15206726     1.36205668
     11      H     2.81846057     0.64782618     1.52248681
 
Total System Charge             0.00000
Bonding info available!
 
 *** GO1_GOStep19 ***



 ======================
 RI Hartree-Fock Scheme
 ======================
  
 Fit Set Quality     : GOOD
 Threshold Quality   : GOOD
 Integration Quality : GOOD
 Response Quality    : DEFAULT
 Is Range Separated  :  F
 
 RIHartreeFock Dependency: number of modified vectors:           5
  
 Hartree-Fock exchange energy:   -509.146266691551     

 Energy gradients wrt nuclear displacements
 ==========================================

     Atom      Cartesian (a.u./angstrom)
                 X         Y         Z
 ----------------------------------------
     1 Pa    0.000093  0.000263 -0.000126
     2 O    -0.000113 -0.000542  0.000164
     3 H    -0.000054  0.000057 -0.000020
     4 O    -0.000035  0.000082  0.000417
     5 H     0.000051  0.000020 -0.000231
     6 O     0.000126 -0.000282 -0.000181
     7 H    -0.000091  0.000014 -0.000032
     8 O     0.000295  0.000429  0.000196
     9 H    -0.000167 -0.000081 -0.000191
    10 O    -0.000141  0.000008  0.000094
    11 H     0.000034  0.000032 -0.000092
 ----------------------------------------
 Mulliken charges used for AMS results%charges...

 dE(predicted):    -0.19583E-05, dE(actual):    -0.31720E-05, Trust radius:    1.000000, all in a.u.
 
----------------------------------------------------------------------
Geometry Convergence after Step  19       (Hartree/Angstrom,Angstrom)
----------------------------------------------------------------------
current energy                               -2.99797986 Hartree
energy change                      -0.00000317     0.00001100    T
constrained gradient max            0.00051793     0.00010000    F
constrained gradient rms            0.00019165     0.00006667    F
gradient max                        0.00051793
gradient rms                        0.00019165
cart. step max                      0.00465848     0.00100000    F
cart. step rms                      0.00134838     0.00066667    F
 
 
--------
Geometry
--------
Formula: H5O5Pa
Atoms
  Index Symbol   x (angstrom)   y (angstrom)   z (angstrom)
      1     Pa     0.33244997     0.00828421     0.07204688
      2      O     1.07292040     1.61810547    -1.06216770
      3      H     1.34623502     2.04904857    -1.87497165
      4      O    -1.42040769     1.11775827     0.50822301
      5      H    -1.90888886     1.93628658     0.40072739
      6      O     0.38939246    -1.18930296    -1.67870460
      7      H     0.21409099    -2.05690520    -2.04933360
      8      O    -0.40477109    -1.63016844     1.15329793
      9      H    -0.89442132    -2.17622920     1.77098371
     10      O     2.01211666     0.15233475     1.36220648
     11      H     2.82091130     0.64316771     1.52350854
 
Total System Charge             0.00000
Bonding info available!
 
 *** GO1_GOStep20 ***



 ======================
 RI Hartree-Fock Scheme
 ======================
  
 Fit Set Quality     : GOOD
 Threshold Quality   : GOOD
 Integration Quality : GOOD
 Response Quality    : DEFAULT
 Is Range Separated  :  F
 
 RIHartreeFock Dependency: number of modified vectors:           5
  
 Hartree-Fock exchange energy:   -509.145959204520     

 Energy gradients wrt nuclear displacements
 ==========================================

     Atom      Cartesian (a.u./angstrom)
                 X         Y         Z
 ----------------------------------------
     1 Pa    0.000007  0.000020 -0.000209
     2 O     0.000018 -0.000138 -0.000030
     3 H    -0.000058  0.000048 -0.000021
     4 O    -0.000090  0.000196  0.000328
     5 H     0.000056  0.000020 -0.000216
     6 O     0.000081 -0.000231 -0.000017
     7 H    -0.000082  0.000007 -0.000019
     8 O     0.000268  0.000119  0.000311
     9 H    -0.000165 -0.000069 -0.000184
    10 O    -0.000128  0.000038  0.000150
    11 H     0.000096 -0.000009 -0.000093
 ----------------------------------------
 Mulliken charges used for AMS results%charges...

 dE(predicted):    -0.12651E-05, dE(actual):    -0.19208E-05, Trust radius:    1.000000, all in a.u.
 
----------------------------------------------------------------------
Geometry Convergence after Step  20       (Hartree/Angstrom,Angstrom)
----------------------------------------------------------------------
current energy                               -2.99798178 Hartree
energy change                      -0.00000192     0.00001100    T
constrained gradient max            0.00033932     0.00010000    F
constrained gradient rms            0.00013827     0.00006667    F
gradient max                        0.00033932
gradient rms                        0.00013827
cart. step max                      0.00292682     0.00100000    F
cart. step rms                      0.00118783     0.00066667    F
 
 
--------
Geometry
--------
Formula: H5O5Pa
Atoms
  Index Symbol   x (angstrom)   y (angstrom)   z (angstrom)
      1     Pa     0.33254592     0.00899704     0.07190543
      2      O     1.07372972     1.61979585    -1.06176472
      3      H     1.34533996     2.04822594    -1.87647198
      4      O    -1.42132131     1.11744679     0.50611093
      5      H    -1.91035677     1.93585791     0.40030018
      6      O     0.38888203    -1.18765906    -1.67906264
      7      H     0.21335726    -2.05630010    -2.04721615
      8      O    -0.40419716    -1.63089749     1.15215589
      9      H    -0.89268836    -2.17542491     1.77211352
     10      O     2.01221734     0.15209690     1.36200111
     11      H     2.82211922     0.64024089     1.52574482
 
Total System Charge             0.00000
Bonding info available!
 
 *** GO1_GOStep21 ***



 ======================
 RI Hartree-Fock Scheme
 ======================
  
 Fit Set Quality     : GOOD
 Threshold Quality   : GOOD
 Integration Quality : GOOD
 Response Quality    : DEFAULT
 Is Range Separated  :  F
 
 RIHartreeFock Dependency: number of modified vectors:           5
  
 Hartree-Fock exchange energy:   -509.145778002670     

 Energy gradients wrt nuclear displacements
 ==========================================

     Atom      Cartesian (a.u./angstrom)
                 X         Y         Z
 ----------------------------------------
     1 Pa   -0.000113 -0.000219 -0.000295
     2 O     0.000172  0.000208 -0.000211
     3 H    -0.000069  0.000033 -0.000020
     4 O    -0.000110  0.000201  0.000241
     5 H     0.000065  0.000029 -0.000195
     6 O     0.000050 -0.000098  0.000163
     7 H    -0.000078 -0.000008  0.000006
     8 O     0.000213 -0.000112  0.000413
     9 H    -0.000162 -0.000054 -0.000170
    10 O    -0.000070  0.000055  0.000141
    11 H     0.000103 -0.000034 -0.000073
 ----------------------------------------
 Mulliken charges used for AMS results%charges...

 dE(predicted):    -0.10765E-05, dE(actual):    -0.21086E-05, Trust radius:    1.000000, all in a.u.
 
----------------------------------------------------------------------
Geometry Convergence after Step  21       (Hartree/Angstrom,Angstrom)
----------------------------------------------------------------------
current energy                               -2.99798388 Hartree
energy change                      -0.00000211     0.00001100    T
constrained gradient max            0.00038125     0.00010000    F
constrained gradient rms            0.00015403     0.00006667    F
gradient max                        0.00038125
gradient rms                        0.00015403
cart. step max                      0.00286154     0.00100000    F
cart. step rms                      0.00156670     0.00066667    F
 
 
--------
Geometry
--------
Formula: H5O5Pa
Atoms
  Index Symbol   x (angstrom)   y (angstrom)   z (angstrom)
      1     Pa     0.33285381     0.00964531     0.07151841
      2      O     1.07575304     1.62145893    -1.06089321
      3      H     1.34537273     2.04539426    -1.87863264
      4      O    -1.42233489     1.11627721     0.50390229
      5      H    -1.91222180     1.93457971     0.40127193
      6      O     0.38801106    -1.18479752    -1.68059592
      7      H     0.21208708    -2.05504333    -2.04487570
      8      O    -0.40385923    -1.63191859     1.14999911
      9      H    -0.89053902    -2.17344385     1.77401966
     10      O     2.01244043     0.15128613     1.36184351
     11      H     2.82206464     0.63894151     1.52825895
 
Total System Charge             0.00000
Bonding info available!
 
 *** GO1_GOStep22 ***



 ======================
 RI Hartree-Fock Scheme
 ======================
  
 Fit Set Quality     : GOOD
 Threshold Quality   : GOOD
 Integration Quality : GOOD
 Response Quality    : DEFAULT
 Is Range Separated  :  F
 
 RIHartreeFock Dependency: number of modified vectors:           5
  
 Hartree-Fock exchange energy:   -509.145741843503     

 Energy gradients wrt nuclear displacements
 ==========================================

     Atom      Cartesian (a.u./angstrom)
                 X         Y         Z
 ----------------------------------------
     1 Pa   -0.000245 -0.000450 -0.000365
     2 O     0.000330  0.000494 -0.000363
     3 H    -0.000077  0.000005 -0.000023
     4 O    -0.000098  0.000082  0.000139
     5 H     0.000081  0.000051 -0.000164
     6 O     0.000012  0.000130  0.000358
     7 H    -0.000068 -0.000037  0.000051
     8 O     0.000134 -0.000257  0.000476
     9 H    -0.000156 -0.000033 -0.000142
    10 O     0.000016  0.000057  0.000079
    11 H     0.000071 -0.000041 -0.000046
 ----------------------------------------
 Mulliken charges used for AMS results%charges...

 dE(predicted):    -0.13873E-05, dE(actual):    -0.37033E-05, Trust radius:    1.000000, all in a.u.
 
----------------------------------------------------------------------
Geometry Convergence after Step  22       (Hartree/Angstrom,Angstrom)
----------------------------------------------------------------------
current energy                               -2.99798759 Hartree
energy change                      -0.00000370     0.00001100    T
constrained gradient max            0.00051830     0.00010000    F
constrained gradient rms            0.00021104     0.00006667    F
gradient max                        0.00051830
gradient rms                        0.00021104
cart. step max                      0.00413081     0.00100000    F
cart. step rms                      0.00173378     0.00066667    F
 
 
--------
Geometry
--------
Formula: H5O5Pa
Atoms
  Index Symbol   x (angstrom)   y (angstrom)   z (angstrom)
      1     Pa     0.33306838     0.00998104     0.07097992
      2      O     1.07817067     1.62229541    -1.05976879
      3      H     1.34716973     2.04126345    -1.88031058
      4      O    -1.42322716     1.11474905     0.50238673
      5      H    -1.91409246     1.93295583     0.40380713
      6      O     0.38695364    -1.18179390    -1.68293802
      7      H     0.21112005    -2.05363688    -2.04354692
      8      O    -0.40397634    -1.63278405     1.14757754
      9      H    -0.88849236    -2.17080734     1.77632588
     10      O     2.01245811     0.15010813     1.36190121
     11      H     2.82047557     0.64004903     1.52940229
 
Total System Charge             0.00000
Bonding info available!
 
 *** GO1_GOStep23 ***



 ======================
 RI Hartree-Fock Scheme
 ======================
  
 Fit Set Quality     : GOOD
 Threshold Quality   : GOOD
 Integration Quality : GOOD
 Response Quality    : DEFAULT
 Is Range Separated  :  F
 
 RIHartreeFock Dependency: number of modified vectors:           5
  
 Hartree-Fock exchange energy:   -509.145898480345     

 Energy gradients wrt nuclear displacements
 ==========================================

     Atom      Cartesian (a.u./angstrom)
                 X         Y         Z
 ----------------------------------------
     1 Pa   -0.000283 -0.000511 -0.000336
     2 O     0.000374  0.000531 -0.000367
     3 H    -0.000069 -0.000027 -0.000035
     4 O    -0.000073 -0.000104  0.000047
     5 H     0.000101  0.000074 -0.000129
     6 O    -0.000031  0.000316  0.000427
     7 H    -0.000048 -0.000067  0.000094
     8 O     0.000078 -0.000219  0.000444
     9 H    -0.000146 -0.000006 -0.000109
    10 O     0.000078  0.000031 -0.000007
    11 H     0.000020 -0.000020 -0.000029
 ----------------------------------------
 Mulliken charges used for AMS results%charges...

 dE(predicted):    -0.12691E-05, dE(actual):    -0.41717E-05, Trust radius:    1.000000, all in a.u.
 
----------------------------------------------------------------------
Geometry Convergence after Step  23       (Hartree/Angstrom,Angstrom)
----------------------------------------------------------------------
current energy                               -2.99799176 Hartree
energy change                      -0.00000417     0.00001100    T
constrained gradient max            0.00055643     0.00010000    F
constrained gradient rms            0.00022298     0.00006667    F
gradient max                        0.00055643
gradient rms                        0.00022298
cart. step max                      0.00433551     0.00100000    F
cart. step rms                      0.00167686     0.00066667    F
 
 
--------
Geometry
--------
Formula: H5O5Pa
Atoms
  Index Symbol   x (angstrom)   y (angstrom)   z (angstrom)
      1     Pa     0.33305715     0.01011637     0.07041196
      2      O     1.08004233     1.62221543    -1.05893526
      3      H     1.34981862     2.03692794    -1.88142864
      4      O    -1.42377062     1.11371692     0.50180969
      5      H    -1.91564107     1.93178494     0.40727439
      6      O     0.38612384    -1.17954792    -1.68535840
      7      H     0.21088809    -2.05257389    -2.04346456
      8      O    -0.40434375    -1.63333060     1.14535053
      9      H    -0.88666648    -2.16836010     1.77836287
     10      O     2.01199682     0.14911535     1.36232082
     11      H     2.81812290     0.64231533     1.52947299
 
Total System Charge             0.00000
Bonding info available!
 
 *** GO1_GOStep24 ***



 ======================
 RI Hartree-Fock Scheme
 ======================
  
 Fit Set Quality     : GOOD
 Threshold Quality   : GOOD
 Integration Quality : GOOD
 Response Quality    : DEFAULT
 Is Range Separated  :  F
 
 RIHartreeFock Dependency: number of modified vectors:           5
  
 Hartree-Fock exchange energy:   -509.146139278119     

 Energy gradients wrt nuclear displacements
 ==========================================

     Atom      Cartesian (a.u./angstrom)
                 X         Y         Z
 ----------------------------------------
     1 Pa   -0.000192 -0.000350 -0.000189
     2 O     0.000282  0.000329 -0.000225
     3 H    -0.000051 -0.000057 -0.000051
     4 O    -0.000070 -0.000252 -0.000023
     5 H     0.000114  0.000092 -0.000096
     6 O    -0.000074  0.000354  0.000319
     7 H    -0.000023 -0.000086  0.000117
     8 O     0.000078 -0.000047  0.000327
     9 H    -0.000138  0.000018 -0.000080
    10 O     0.000095 -0.000018 -0.000074
    11 H    -0.000021  0.000016 -0.000026
 ----------------------------------------
 Mulliken charges used for AMS results%charges...

 dE(predicted):    -0.10110E-05, dE(actual):    -0.32338E-05, Trust radius:    1.000000, all in a.u.
 
----------------------------------------------------------------------
Geometry Convergence after Step  24       (Hartree/Angstrom,Angstrom)
----------------------------------------------------------------------
current energy                               -2.99799499 Hartree
energy change                      -0.00000323     0.00001100    T
constrained gradient max            0.00038676     0.00010000    F
constrained gradient rms            0.00016814     0.00006667    F
gradient max                        0.00038676
gradient rms                        0.00016814
cart. step max                      0.00366856     0.00100000    F
cart. step rms                      0.00139355     0.00066667    F
 
 
--------
Geometry
--------
Formula: H5O5Pa
Atoms
  Index Symbol   x (angstrom)   y (angstrom)   z (angstrom)
      1     Pa     0.33280026     0.01024901     0.06982700
      2      O     1.08095424     1.62163129    -1.05878017
      3      H     1.35215471     2.03327537    -1.88238835
      4      O    -1.42391434     1.11368126     0.50190555
      5      H    -1.91683227     1.93150322     0.41094295
      6      O     0.38579859    -1.17839553    -1.68731881
      7      H     0.21137412    -2.05209528    -2.04419395
      8      O    -0.40468506    -1.63364114     1.14346988
      9      H    -0.88491468    -2.16662516     1.77982399
     10      O     2.01095446     0.14873866     1.36301053
     11      H     2.81593780     0.64405808     1.52951779
 
Total System Charge             0.00000
Bonding info available!
 
 *** GO1_GOStep25 ***



 ======================
 RI Hartree-Fock Scheme
 ======================
  
 Fit Set Quality     : GOOD
 Threshold Quality   : GOOD
 Integration Quality : GOOD
 Response Quality    : DEFAULT
 Is Range Separated  :  F
 
 RIHartreeFock Dependency: number of modified vectors:           5
  
 Hartree-Fock exchange energy:   -509.146323681332     

 Energy gradients wrt nuclear displacements
 ==========================================

     Atom      Cartesian (a.u./angstrom)
                 X         Y         Z
 ----------------------------------------
     1 Pa   -0.000020 -0.000062  0.000018
     2 O     0.000114  0.000030 -0.000016
     3 H    -0.000030 -0.000078 -0.000070
     4 O    -0.000111 -0.000291 -0.000068
     5 H     0.000119  0.000100 -0.000068
     6 O    -0.000110  0.000235  0.000089
     7 H     0.000001 -0.000085  0.000115
     8 O     0.000134  0.000142  0.000188
     9 H    -0.000135  0.000034 -0.000058
    10 O     0.000073 -0.000070 -0.000100
    11 H    -0.000036  0.000045 -0.000032
 ----------------------------------------
 Mulliken charges used for AMS results%charges...

 dE(predicted):    -0.78204E-06, dE(actual):    -0.24699E-05, Trust radius:    1.000000, all in a.u.
 
----------------------------------------------------------------------
Geometry Convergence after Step  25       (Hartree/Angstrom,Angstrom)
----------------------------------------------------------------------
current energy                               -2.99799746 Hartree
energy change                      -0.00000247     0.00001100    T
constrained gradient max            0.00031172     0.00010000    F
constrained gradient rms            0.00010391     0.00006667    F
gradient max                        0.00031172
gradient rms                        0.00010391
cart. step max                      0.00431183     0.00100000    F
cart. step rms                      0.00143974     0.00066667    F
 
 
--------
Geometry
--------
Formula: H5O5Pa
Atoms
  Index Symbol   x (angstrom)   y (angstrom)   z (angstrom)
      1     Pa     0.33229946     0.01052570     0.06902972
      2      O     1.08124026     1.62088476    -1.05940862
      3      H     1.35402077     2.02984074    -1.88387121
      4      O    -1.42371153     1.11465512     0.50236239
      5      H    -1.91804297     1.93200914     0.41525478
      6      O     0.38598857    -1.17794146    -1.68906227
      7      H     0.21241794    -2.05207633    -2.04527464
      8      O    -0.40500779    -1.63397325     1.14139491
      9      H    -0.88270353    -2.16533001     1.78103887
     10      O     2.00916790     0.14906829     1.36391884
     11      H     2.81395877     0.64471706     1.53043361
 
Total System Charge             0.00000
Bonding info available!
 
 *** GO1_GOStep26 ***



 ======================
 RI Hartree-Fock Scheme
 ======================
  
 Fit Set Quality     : GOOD
 Threshold Quality   : GOOD
 Integration Quality : GOOD
 Response Quality    : DEFAULT
 Is Range Separated  :  F
 
 RIHartreeFock Dependency: number of modified vectors:           5
  
 Hartree-Fock exchange energy:   -509.146403213705     

 Energy gradients wrt nuclear displacements
 ==========================================

     Atom      Cartesian (a.u./angstrom)
                 X         Y         Z
 ----------------------------------------
     1 Pa    0.000187  0.000267  0.000243
     2 O    -0.000072 -0.000263  0.000203
     3 H    -0.000013 -0.000094 -0.000089
     4 O    -0.000197 -0.000219 -0.000104
     5 H     0.000117  0.000095 -0.000038
     6 O    -0.000137  0.000005 -0.000206
     7 H     0.000023 -0.000071  0.000095
     8 O     0.000218  0.000282  0.000069
     9 H    -0.000136  0.000047 -0.000043
    10 O     0.000041 -0.000106 -0.000090
    11 H    -0.000031  0.000057 -0.000040
 ----------------------------------------
 Mulliken charges used for AMS results%charges...

 dE(predicted):    -0.78905E-06, dE(actual):    -0.30065E-05, Trust radius:    1.000000, all in a.u.
 
----------------------------------------------------------------------
Geometry Convergence after Step  26       (Hartree/Angstrom,Angstrom)
----------------------------------------------------------------------
current energy                               -2.99800047 Hartree
energy change                      -0.00000301     0.00001100    T
constrained gradient max            0.00026592     0.00010000    F
constrained gradient rms            0.00014086     0.00006667    F
gradient max                        0.00026592
gradient rms                        0.00014086
cart. step max                      0.00584853     0.00100000    F
cart. step rms                      0.00198220     0.00066667    F
 
 
--------
Geometry
--------
Formula: H5O5Pa
Atoms
  Index Symbol   x (angstrom)   y (angstrom)   z (angstrom)
      1     Pa     0.33153874     0.01102294     0.06772400
      2      O     1.08134209     1.62013017    -1.06104104
      3      H     1.35550704     2.02584998    -1.88667771
      4      O    -1.42299741     1.11673513     0.50321262
      5      H    -1.91948328     1.93325018     0.42110331
      6      O     0.38675285    -1.17783250    -1.69097354
      7      H     0.21382225    -2.05242661    -2.04635409
      8      O    -0.40544776    -1.63464990     1.13834566
      9      H    -0.87939357    -2.16424147     1.78226199
     10      O     2.00626835     0.15022790     1.36514114
     11      H     2.81171856     0.64431396     1.53307404
 
Total System Charge             0.00000
Bonding info available!
 
 *** GO1_GOStep27 ***



 ======================
 RI Hartree-Fock Scheme
 ======================
  
 Fit Set Quality     : GOOD
 Threshold Quality   : GOOD
 Integration Quality : GOOD
 Response Quality    : DEFAULT
 Is Range Separated  :  F
 
 RIHartreeFock Dependency: number of modified vectors:           5
  
 Hartree-Fock exchange energy:   -509.146357150540     

 Energy gradients wrt nuclear displacements
 ==========================================

     Atom      Cartesian (a.u./angstrom)
                 X         Y         Z
 ----------------------------------------
     1 Pa    0.000384  0.000564  0.000443
     2 O    -0.000229 -0.000474  0.000384
     3 H    -0.000004 -0.000109 -0.000107
     4 O    -0.000315 -0.000057 -0.000135
     5 H     0.000108  0.000084 -0.000002
     6 O    -0.000152 -0.000283 -0.000511
     7 H     0.000042 -0.000049  0.000064
     8 O     0.000307  0.000332 -0.000003
     9 H    -0.000141  0.000057 -0.000034
    10 O     0.000010 -0.000116 -0.000054
[...]
     6     O       0.037231  -0.021586  -0.007790
     7     H       0.171726   0.037939  -0.246843
     8     O       0.014940   0.051281   0.098389
     9     H      -0.422272   0.290587   0.057696
    10     O      -0.020948   0.080163   0.007964
    11     H      -0.116809   0.445893  -0.405943
 
 Mode:    12      Frequency (cm-1):      139.6000     Intensity (km/mol):       59.8070
 Index  Atom      ---- Displacements (x/y/z) ----
     1    Pa       0.017464   0.012130  -0.015699
     2     O      -0.034221   0.036909   0.015692
     3     H      -0.039872   0.555046   0.276562
     4     O      -0.016084  -0.088129   0.034927
     5     H      -0.282747  -0.244377   0.208617
     6     O      -0.078792  -0.114546   0.059039
     7     H      -0.194363  -0.186066   0.319922
     8     O      -0.037049   0.035521  -0.008938
     9     H      -0.169893   0.202905   0.049179
    10     O      -0.042789  -0.050747   0.054137
    11     H      -0.000676  -0.235748   0.286867
 
 Mode:    13      Frequency (cm-1):      169.3610     Intensity (km/mol):        6.6278
 Index  Atom      ---- Displacements (x/y/z) ----
     1    Pa      -0.003808  -0.004153   0.006174
     2     O      -0.008542   0.004395   0.049631
     3     H       0.058371   0.470197   0.309667
     4     O       0.043565   0.097095  -0.041760
     5     H       0.225123   0.206305  -0.118026
     6     O      -0.032901  -0.078716   0.048461
     7     H      -0.106831  -0.152239   0.290688
     8     O       0.012330  -0.077587  -0.099472
     9     H      -0.023911  -0.408913  -0.366057
    10     O       0.032421   0.091396  -0.041939
    11     H      -0.023800   0.256011  -0.181422
 
 Mode:    14      Frequency (cm-1):      207.3716     Intensity (km/mol):       80.6840
 Index  Atom      ---- Displacements (x/y/z) ----
     1    Pa      -0.002277   0.006804  -0.003770
     2     O       0.048656   0.004979   0.017152
     3     H       0.724235  -0.285344   0.109830
     4     O      -0.084616  -0.080478   0.062281
     5     H       0.380673   0.190586  -0.274009
     6     O      -0.030739  -0.026886   0.016842
     7     H      -0.127747  -0.032945   0.089205
     8     O       0.042869  -0.015498  -0.012848
     9     H      -0.167003   0.117353  -0.018530
    10     O       0.003907   0.026662  -0.032203
    11     H       0.028118  -0.101655   0.144801
 
 Mode:    15      Frequency (cm-1):      220.2645     Intensity (km/mol):       50.8240
 Index  Atom      ---- Displacements (x/y/z) ----
     1    Pa       0.007512  -0.007786   0.008543
     2     O       0.061152  -0.030838   0.036360
     3     H       0.074650   0.072495   0.093652
     4     O      -0.035833  -0.091368   0.024292
     5     H      -0.165189  -0.169394   0.081192
     6     O       0.028033   0.034440  -0.032214
     7     H      -0.311758   0.054483   0.108158
     8     O      -0.261170   0.024334  -0.080530
     9     H       0.614560   0.160590   0.463125
    10     O       0.077382   0.163301  -0.108616
    11     H       0.135751   0.081696  -0.154056
 
 Mode:    16      Frequency (cm-1):      235.4489     Intensity (km/mol):       46.0818
 Index  Atom      ---- Displacements (x/y/z) ----
     1    Pa      -0.000419  -0.003151   0.000246
     2     O       0.001989  -0.061419  -0.048093
     3     H       0.279928   0.228798   0.199692
     4     O       0.011785  -0.014906   0.026518
     5     H      -0.130667  -0.097440   0.135389
     6     O       0.011090   0.030437  -0.007659
     7     H       0.055848   0.158950  -0.378269
     8     O      -0.019356   0.069421   0.058111
     9     H       0.022917  -0.536747  -0.377378
    10     O      -0.017117   0.052438  -0.026104
    11     H       0.052169  -0.236963   0.320263
 
 Mode:    17      Frequency (cm-1):      238.2577     Intensity (km/mol):      118.3855
 Index  Atom      ---- Displacements (x/y/z) ----
     1    Pa       0.007270   0.006149  -0.007821
     2     O       0.031847   0.068680   0.018858
     3     H      -0.248196  -0.349168  -0.293714
     4     O      -0.045364  -0.073262   0.051015
     5     H       0.202605   0.089624   0.114420
     6     O      -0.031970  -0.087967   0.077523
     7     H      -0.015603   0.010048  -0.194245
     8     O      -0.060216   0.076251  -0.026422
     9     H       0.255253  -0.508766  -0.307393
    10     O      -0.002665  -0.044990   0.047948
    11     H      -0.140737   0.321372  -0.207087
 
 Mode:    18      Frequency (cm-1):      283.0734     Intensity (km/mol):       71.7167
 Index  Atom      ---- Displacements (x/y/z) ----
     1    Pa      -0.001128  -0.004833  -0.000343
     2     O      -0.010140   0.117084   0.094150
     3     H       0.121646  -0.512493  -0.177670
     4     O       0.067469   0.056081  -0.074508
     5     H      -0.310198  -0.152575   0.342262
     6     O      -0.042429  -0.066823   0.075070
     7     H       0.047293   0.041320  -0.266798
     8     O       0.003782  -0.051623  -0.028257
     9     H      -0.045159   0.060944   0.031385
    10     O       0.009822   0.063134  -0.089720
    11     H      -0.007403  -0.199723   0.518723
 
 Mode:    19      Frequency (cm-1):      289.9213     Intensity (km/mol):       13.0637
 Index  Atom      ---- Displacements (x/y/z) ----
     1    Pa      -0.002897   0.000890  -0.000514
     2     O       0.050035  -0.011080   0.013863
     3     H      -0.342250   0.102142  -0.068420
     4     O      -0.041896  -0.019629  -0.028845
     5     H       0.395516   0.295959   0.445329
     6     O       0.023646  -0.012267   0.013600
     7     H      -0.101841   0.043387  -0.063976
     8     O       0.026509  -0.014350   0.002727
     9     H      -0.041564   0.046725   0.014217
    10     O      -0.031202   0.046655  -0.006699
    11     H       0.324293  -0.522983  -0.124357
 
 Mode:    20      Frequency (cm-1):      315.8853     Intensity (km/mol):       47.8676
 Index  Atom      ---- Displacements (x/y/z) ----
     1    Pa      -0.003154   0.004854   0.000438
     2     O       0.097435  -0.042715  -0.005424
     3     H      -0.440357   0.259748  -0.043347
     4     O      -0.033502  -0.007418   0.065665
     5     H      -0.003924  -0.030506  -0.480658
     6     O      -0.029764  -0.019917   0.072374
     7     H       0.453113   0.045702  -0.380113
     8     O       0.006150  -0.038627  -0.046270
     9     H      -0.055324   0.166501   0.076227
    10     O       0.012599   0.011227  -0.058384
    11     H      -0.070329  -0.007564   0.283763
 
 Mode:    21      Frequency (cm-1):      320.3236     Intensity (km/mol):      103.7132
 Index  Atom      ---- Displacements (x/y/z) ----
     1    Pa       0.004296   0.005218   0.003949
     2     O      -0.071018  -0.023017  -0.069414
     3     H       0.378459   0.138876   0.173244
     4     O      -0.003439  -0.001721  -0.046329
     5     H       0.026468   0.036610   0.204182
     6     O      -0.032207  -0.014373   0.094661
     7     H       0.061161   0.241252  -0.645066
     8     O      -0.009052  -0.051511  -0.071057
     9     H       0.090838   0.229080   0.189351
    10     O       0.014153  -0.030661   0.063739
    11     H       0.070092   0.082863  -0.376187
 
 Mode:    22      Frequency (cm-1):      348.9326     Intensity (km/mol):      253.2989
 Index  Atom      ---- Displacements (x/y/z) ----
     1    Pa       0.000049   0.002069   0.003467
     2     O       0.003685  -0.042235  -0.026393
     3     H      -0.010301   0.109768   0.045996
     4     O      -0.037013  -0.023382  -0.046178
     5     H       0.273460   0.218346   0.523530
     6     O      -0.002331   0.027986  -0.012948
     7     H       0.123708  -0.034340   0.080975
     8     O      -0.006247  -0.004164   0.002397
     9     H      -0.013404   0.083199   0.064345
    10     O       0.040845  -0.039352  -0.041319
    11     H      -0.367855   0.436632   0.465233
 
 Mode:    23      Frequency (cm-1):      358.5727     Intensity (km/mol):      227.6877
 Index  Atom      ---- Displacements (x/y/z) ----
     1    Pa       0.003632  -0.001729   0.000485
     2     O      -0.016415   0.011574   0.002349
     3     H       0.150560  -0.068285   0.021310
     4     O       0.004472  -0.016909  -0.014027
     5     H       0.048251   0.021938   0.124539
     6     O      -0.082863   0.023882  -0.023534
     7     H       0.855846  -0.272353   0.234044
     8     O      -0.035362   0.014864  -0.005486
     9     H       0.075358  -0.054407  -0.001741
    10     O      -0.002848   0.024779   0.020155
    11     H       0.148385  -0.153963  -0.163268
 
 Mode:    24      Frequency (cm-1):      524.0564     Intensity (km/mol):        0.3503
 Index  Atom      ---- Displacements (x/y/z) ----
     1    Pa       0.000337   0.004287   0.000432
     2     O      -0.130048  -0.258482   0.223349
     3     H      -0.156743  -0.351114   0.164264
     4     O      -0.152608   0.124434   0.030241
     5     H      -0.248630   0.067321   0.085357
     6     O      -0.007170  -0.180869  -0.195602
     7     H       0.053096  -0.129104  -0.367895
     8     O       0.112012   0.227582  -0.180060
     9     H       0.112744   0.298955  -0.123497
    10     O       0.175433   0.036249   0.117103
    11     H       0.199973  -0.058119   0.221561
 
 Mode:    25      Frequency (cm-1):      559.9466     Intensity (km/mol):      283.4906
 Index  Atom      ---- Displacements (x/y/z) ----
     1    Pa       0.001177  -0.024966  -0.054750
     2     O      -0.038062  -0.072653   0.087252
     3     H      -0.077518  -0.171500   0.023746
     4     O      -0.159690   0.128482   0.056767
     5     H      -0.235770   0.081388   0.067709
     6     O       0.001171   0.285507   0.361143
     7     H      -0.077545   0.221071   0.582135
     8     O      -0.018793  -0.021668   0.058525
     9     H      -0.041796  -0.135554  -0.037432
    10     O       0.209984   0.044970   0.171378
    11     H       0.248342  -0.059190   0.248767
 
 Mode:    26      Frequency (cm-1):      563.3756     Intensity (km/mol):      287.2309
 Index  Atom      ---- Displacements (x/y/z) ----
     1    Pa       0.057490  -0.016030   0.009008
     2     O      -0.054041  -0.014493   0.011217
     3     H       0.102299  -0.064357   0.041795
     4     O      -0.355729   0.255001   0.070860
     5     H      -0.486787   0.182625   0.201378
     6     O      -0.023443   0.026672   0.021926
     7     H       0.034783   0.007201   0.041170
     8     O      -0.017772  -0.002159   0.003156
     9     H       0.020019  -0.017949   0.010512
    10     O      -0.337132  -0.043625  -0.229436
    11     H      -0.341369   0.053501  -0.419323
 
 Mode:    27      Frequency (cm-1):      580.8690     Intensity (km/mol):      377.5471
 Index  Atom      ---- Displacements (x/y/z) ----
     1    Pa       0.022247   0.060013  -0.028535
     2     O      -0.140307  -0.289453   0.233190
     3     H      -0.191912  -0.426591   0.146365
     4     O       0.056984  -0.071968   0.000856
     5     H       0.154045  -0.017766  -0.096894
     6     O      -0.009835  -0.071703  -0.043478
     7     H       0.045106  -0.025940  -0.198419
     8     O      -0.163676  -0.348485   0.245194
     9     H      -0.162371  -0.473133   0.154036
    10     O      -0.051062  -0.028071  -0.016123
    11     H      -0.058218   0.036140  -0.123670
 
 Mode:    28      Frequency (cm-1):      647.1080     Intensity (km/mol):        0.3630
 Index  Atom      ---- Displacements (x/y/z) ----
     1    Pa      -0.001191   0.001225   0.000759
     2     O      -0.105080  -0.219014   0.163322
     3     H      -0.124342  -0.264181   0.138307
     4     O       0.246802  -0.171120  -0.060567
     5     H       0.308062  -0.143550  -0.109321
     6     O      -0.004342   0.162249   0.224154
     7     H      -0.030503   0.148883   0.293028
     8     O       0.109148   0.235692  -0.157981
     9     H       0.110807   0.280398  -0.129978
    10     O      -0.230596  -0.027720  -0.176810
    11     H      -0.243758   0.013539  -0.240907
 
 Mode:    29      Frequency (cm-1):     3865.7895     Intensity (km/mol):      208.4792
 Index  Atom      ---- Displacements (x/y/z) ----
     1    Pa       0.000001   0.000004   0.000004
     2     O      -0.018855  -0.026950   0.052688
     3     H       0.298580   0.425254  -0.837850
     4     O      -0.001402   0.002454  -0.000262
     5     H       0.024759  -0.039656   0.003402
     6     O      -0.001153  -0.005311  -0.001884
     7     H       0.018695   0.087308   0.032253
     8     O      -0.002362  -0.003523   0.004688
     9     H       0.036934   0.054781  -0.073422
    10     O       0.002841   0.001723   0.000673
    11     H      -0.047073  -0.027005  -0.012448
 
 Mode:    30      Frequency (cm-1):     3874.0306     Intensity (km/mol):      137.8384
 Index  Atom      ---- Displacements (x/y/z) ----
     1    Pa      -0.000004  -0.000015   0.000003
     2     O       0.000146   0.000264  -0.000301
     3     H      -0.001036  -0.001315   0.003202
     4     O      -0.000393   0.000598  -0.000043
     5     H       0.006615  -0.010241   0.001048
     6     O      -0.008972  -0.042138  -0.015808
     7     H       0.143197   0.669946   0.248521
     8     O       0.015983   0.023931  -0.031675
     9     H      -0.254335  -0.379472   0.505385
    10     O       0.001366   0.000779   0.000374
    11     H      -0.022529  -0.012680  -0.005839
 
 Mode:    31      Frequency (cm-1):     3876.7692     Intensity (km/mol):      235.1317
 Index  Atom      ---- Displacements (x/y/z) ----
     1    Pa       0.000004   0.000010  -0.000002
     2     O      -0.002239  -0.003262   0.006127
     3     H       0.034887   0.050018  -0.097689
     4     O      -0.003696   0.005913  -0.000541
     5     H       0.061640  -0.097152   0.007356
     6     O       0.008077   0.038254   0.014617
     7     H      -0.129480  -0.606368  -0.225819
     8     O       0.016453   0.024679  -0.032617
     9     H      -0.259786  -0.387936   0.515991
    10     O       0.011678   0.006662   0.003093
    11     H      -0.188645  -0.107525  -0.051452
 
 Mode:    32      Frequency (cm-1):     3883.1117     Intensity (km/mol):      159.8773
 Index  Atom      ---- Displacements (x/y/z) ----
     1    Pa      -0.000008  -0.000007   0.000004
     2     O      -0.001379  -0.002109   0.003901
     3     H       0.021367   0.030129  -0.059148
     4     O      -0.006935   0.011006  -0.000864
     5     H       0.112692  -0.176827   0.013788
     6     O       0.001390   0.006569   0.002632
     7     H      -0.021543  -0.102734  -0.038132
     8     O       0.003749   0.005594  -0.007241
     9     H      -0.057487  -0.085376   0.113399
    10     O      -0.051058  -0.028764  -0.014237
    11     H       0.807578   0.458739   0.220119
 
 Mode:    33      Frequency (cm-1):     3888.7688     Intensity (km/mol):      127.8225
 Index  Atom      ---- Displacements (x/y/z) ----
     1    Pa      -0.000003  -0.000011   0.000005
     2     O      -0.001622  -0.002330   0.004275
     3     H       0.022999   0.032932  -0.064723
     4     O       0.033138  -0.051446   0.003801
     5     H      -0.518605   0.814633  -0.063165
     6     O       0.001062   0.005299   0.002182
     7     H      -0.017610  -0.081514  -0.030371
     8     O       0.002888   0.004528  -0.005744
     9     H      -0.044516  -0.066683   0.088636
    10     O      -0.009731  -0.005350  -0.002787
    11     H       0.149883   0.085506   0.040974

PES point character: Geometry corresponds to a local minimum on the PES.




 ============================
 Statistical Thermal Analysis  ***  ideal gas assumed  ***
 ============================
  
 Pressure:                  1.000000 atm.
 Temperature:             298.150000 K



 Moments of Inertia [amu*bohr^2] and principal axis
 ==================================================

         863.9267        992.1803       1014.4537
 ------------------------------------------------
          -0.3650          0.1491          0.9190
          -0.7888          0.4749         -0.3903
           0.4946          0.8673          0.0558


 The rotational contribution to the molecular entropy includes
 a term, dependent on the symmetry number sigma. The results 
 reported below were computed using sigma = 1, determined from
 the point group symmetry of the input geometry (NOSYM). 
 If this is not the correct symmetry, try symmetrizing the molecule before
 running the calculation (note: linear molecules should be aligned along one
 of the Cartesian axes).
 Contributions from frequencies below 20 1/cm are not included in vibrational sums.
 Their contributions, if any, are reported separately.


     Temp                                                        Transl      Rotat     Vibrat     Total
     ----                                                        ------      -----     ------     -----

     298.15   Entropy (cal/mol-K):                               43.148     28.255     42.574    113.977
              Nuclear Internal Energy (kcal/mol):                 0.889      0.889     43.468     45.245
              Constant Volume Heat Capacity (cal/mol-K):          2.981      2.981     36.013     41.975
          (c) Constant Volume Heat Capacity (cal/mol-K):          2.981      2.981     32.649     38.610

       Summary of energy terms
                                                   hartree              eV         kcal/mol           kJ/mol
                                      --------------------     -----------       ----------      -----------
      Energy from Engine:               -2.998059710760518        -81.5814         -1881.31         -7871.40
      Nuclear Internal Energy:           0.072102729507661          1.9620            45.25           189.31
  (c) Nuclear Internal Energy:           0.070355451203697          1.9145            44.15           184.72
      Internal Energy U:                -2.925956981252857        -79.6193         -1836.07         -7682.10
      pV/n = RT:                         0.000944186013486          0.0257             0.59             2.48
      Enthalpy H:                       -2.925012795239371        -79.5936         -1835.47         -7679.62
      -T*S:                             -0.054154059674160         -1.4736           -33.98          -142.18
  (c) -T*S:                             -0.052763665388089         -1.4358           -33.11          -138.53
      Gibbs free energy:                -2.979166854913531        -81.0673         -1869.46         -7821.80
 
 
 
  (c) The properties marked with this symbol have been corrected using 'low vibrational frequency free rotor
      interpolation corrections'. For those terms all positive frequencies are used (also ones below 20 1/cm),
      but the contribution to the partition function of small vibrational frequencies is modified as described
      in the following paper:
      S. Grimme, 'Supramolecular Binding Thermodynamics by Dispersion-Corrected Density Functional Theory'
      (Chem. Eur. J. 2012, 18, 9955-9964)
      Configuration: Dampener Frequency          :   100.000 1/cm
                     Dampener Alpha              :     4.000
                     Averaging Moment of Inertia : 1.000E-44 kg m2

--------------
Atomic charges
--------------
  Index   Atom    Charge
      1     Pa    2.7791
      2      O   -0.5953
      3      H    0.0408
      4      O   -0.6250
      5      H    0.0635
      6      O   -0.6310
      7      H    0.0849
      8      O   -0.5828
      9      H    0.0195
     10      O   -0.6285
     11      H    0.0747


Dipole moment vector    (Debye):     0.04998351    0.39844339   -0.34897044
              magnitude (Debye):     0.53201114


Final PES point is a local minimum. Geometry optimization successful!


AMS application finished. Exiting.
NORMAL TERMINATION
     Total cpu time:   76872.83
  Total system time:    1573.91
 Total elapsed time:   78444.59
