 Entering Gaussian System, Link 0=/home/pcmt/gaussian/g16.C.01/g16/g16
 AtFile(1): /home/shaaban/basis.gaussian/Pa-def-TZVP
 AtFile(1): /home/shaaban/basis.gaussian/Pa-ECP60MWB
 Initial command:
 /home/pcmt/gaussian/g16.C.01/g16/l1.exe "/state/partition2/shaaban/972867.phlam-s-sakura/Gau-37607.inp" -scrdir="/state/partition2/shaaban/972867.phlam-s-sakura/"
 Entering Link 1 = /home/pcmt/gaussian/g16.C.01/g16/l1.exe PID=     37608.
  
 Copyright (c) 1988-2019, Gaussian, Inc.  All Rights Reserved.
  
 This is part of the Gaussian(R) 16 program.  It is based on
 the Gaussian(R) 09 system (copyright 2009, Gaussian, Inc.),
 the Gaussian(R) 03 system (copyright 2003, Gaussian, Inc.),
 the Gaussian(R) 98 system (copyright 1998, Gaussian, Inc.),
 the Gaussian(R) 94 system (copyright 1995, Gaussian, Inc.),
 the Gaussian 92(TM) system (copyright 1992, Gaussian, Inc.),
 the Gaussian 90(TM) system (copyright 1990, Gaussian, Inc.),
 the Gaussian 88(TM) system (copyright 1988, Gaussian, Inc.),
 the Gaussian 86(TM) system (copyright 1986, Carnegie Mellon
 University), and the Gaussian 82(TM) system (copyright 1983,
 Carnegie Mellon University). Gaussian is a federally registered
 trademark of Gaussian, Inc.
  
 This software contains proprietary and confidential information,
 including trade secrets, belonging to Gaussian, Inc.
  
 This software is provided under written license and may be
 used, copied, transmitted, or stored only in accord with that
 written license.
  
 The following legend is applicable only to US Government
 contracts under FAR:
  
                    RESTRICTED RIGHTS LEGEND
  
 Use, reproduction and disclosure by the US Government is
 subject to restrictions as set forth in subparagraphs (a)
 and (c) of the Commercial Computer Software - Restricted
 Rights clause in FAR 52.227-19.
  
 Gaussian, Inc.
 340 Quinnipiac St., Bldg. 40, Wallingford CT 06492
  
  
 ---------------------------------------------------------------
 Warning -- This program may not be used in any manner that
 competes with the business of Gaussian, Inc. or will provide
 assistance to any competitor of Gaussian, Inc.  The licensee
 of this program is prohibited from giving any competitor of
 Gaussian, Inc. access to this program.  By using this program,
 the user acknowledges that Gaussian, Inc. is engaged in the
 business of creating and licensing software in the field of
 computational chemistry and represents and warrants to the
 licensee that it is not a competitor of Gaussian, Inc. and that
 it will not use this program in any manner prohibited above.
 ---------------------------------------------------------------
  

 Cite this work as:
 Gaussian 16, Revision C.01,
 M. J. Frisch, G. W. Trucks, H. B. Schlegel, G. E. Scuseria, 
 M. A. Robb, J. R. Cheeseman, G. Scalmani, V. Barone, 
 G. A. Petersson, H. Nakatsuji, X. Li, M. Caricato, A. V. Marenich, 
 J. Bloino, B. G. Janesko, R. Gomperts, B. Mennucci, H. P. Hratchian, 
 J. V. Ortiz, A. F. Izmaylov, J. L. Sonnenberg, D. Williams-Young, 
 F. Ding, F. Lipparini, F. Egidi, J. Goings, B. Peng, A. Petrone, 
 T. Henderson, D. Ranasinghe, V. G. Zakrzewski, J. Gao, N. Rega, 
 G. Zheng, W. Liang, M. Hada, M. Ehara, K. Toyota, R. Fukuda, 
 J. Hasegawa, M. Ishida, T. Nakajima, Y. Honda, O. Kitao, H. Nakai, 
 T. Vreven, K. Throssell, J. A. Montgomery, Jr., J. E. Peralta, 
 F. Ogliaro, M. J. Bearpark, J. J. Heyd, E. N. Brothers, K. N. Kudin, 
 V. N. Staroverov, T. A. Keith, R. Kobayashi, J. Normand, 
 K. Raghavachari, A. P. Rendell, J. C. Burant, S. S. Iyengar, 
 J. Tomasi, M. Cossi, J. M. Millam, M. Klene, C. Adamo, R. Cammi, 
 J. W. Ochterski, R. L. Martin, K. Morokuma, O. Farkas, 
 J. B. Foresman, and D. J. Fox, Gaussian, Inc., Wallingford CT, 2019.
 
 ******************************************
 Gaussian 16:  ES64L-G16RevC.01  3-Jul-2019
                 4-Jul-2023 
 ******************************************
 %mem=16Gb
 %NProc=8
 Will use up to    8 processors via shared memory.
 %chk=pao_oh2_cl_h2o-bp86-cosmors-deftzvp-gp.chk
 ----------------------------------------------------------------------
 #p BP86/GEN Pseudo=Read GFInput GFPrint IOP(6/7=3) Symm=(Loose) Int=(U
 ltraFine) Guess=(Harris) Scf=(NoVarAcc,MaxCycle=100,conver=8)
 ----------------------------------------------------------------------
 1/38=1,172=1/1;
 2/12=2,17=4,18=3,40=1/2;
 3/5=7,11=2,16=1,17=8,24=110,25=1,30=1,74=404,75=-5/1,2,3;
 4/11=8/1;
 5/5=2,6=8,7=100,38=1/2;
 6/7=3,8=2,9=2,10=2,28=1/1;
 99/5=1,9=1/99;
 Leave Link    1 at Tue Jul  4 10:46:01 2023, MaxMem=  2147483648 cpu:               0.7 elap:               0.1
 (Enter /home/pcmt/gaussian/g16.C.01/g16/l101.exe)
 -----------------------------------------------------------------
 pao_oh2_cl_h2o-bp86-cosmors-deftzvp-gp.com SGP in PCM calculation
 -----------------------------------------------------------------
 Symbolic Z-matrix:
 Charge =  0 Multiplicity = 1
 Pa                   -0.16805   0.07135   0.81068 
 O                     1.10687   1.51546  -0.11304 
 O                    -1.75086   0.80616  -0.35251 
 Cl                   -0.87892   1.57243   2.9768 
 H                    -1.83991   1.55157  -0.9622 
 O                     0.0359   -1.63181  -1.00531 
 H                    -0.45402  -1.64013  -1.83816 
 H                     0.72095  -2.31026  -1.06748 
 H                     2.0618    1.60776  -0.0127 
 O                     1.17778  -0.86175   1.68567 
 
 ITRead=  0  0  0  0  0  0  0  0  0  0
 MicOpt= -1 -1 -1 -1 -1 -1 -1 -1 -1 -1
 NAtoms=     10 NQM=       10 NQMF=       0 NMMI=      0 NMMIF=      0
                NMic=       0 NMicF=      0.
                    Isotopes and Nuclear Properties:
 (Nuclear quadrupole moments (NQMom) in fm**2, nuclear magnetic moments (NMagM)
  in nuclear magnetons)

  Atom         1           2           3           4           5           6           7           8           9          10
 IAtWgt=         231          16          16          35           1          16           1           1           1          16
 AtmWgt= 231.0359000  15.9949146  15.9949146  34.9688527   1.0078250  15.9949146   1.0078250   1.0078250   1.0078250  15.9949146
 NucSpn=           3           0           0           3           1           0           1           1           1           0
 AtZEff=  -0.0000000  -0.0000000  -0.0000000  -0.0000000  -0.0000000  -0.0000000  -0.0000000  -0.0000000  -0.0000000  -0.0000000
 NQMom= -172.0000000   0.0000000   0.0000000  -8.1650000   0.0000000   0.0000000   0.0000000   0.0000000   0.0000000   0.0000000
 NMagM=    2.0100000   0.0000000   0.0000000   0.8218740   2.7928460   0.0000000   2.7928460   2.7928460   2.7928460   0.0000000
 AtZNuc=  91.0000000   8.0000000   8.0000000  17.0000000   1.0000000   8.0000000   1.0000000   1.0000000   1.0000000   8.0000000
 Leave Link  101 at Tue Jul  4 10:46:01 2023, MaxMem=  2147483648 cpu:               1.0 elap:               0.2
 (Enter /home/pcmt/gaussian/g16.C.01/g16/l202.exe)
                          Input orientation:                          
 ---------------------------------------------------------------------
 Center     Atomic      Atomic             Coordinates (Angstroms)
 Number     Number       Type             X           Y           Z
 ---------------------------------------------------------------------
      1         91           0       -0.168053    0.071350    0.810682
      2          8           0        1.106866    1.515464   -0.113036
      3          8           0       -1.750861    0.806161   -0.352506
      4         17           0       -0.878917    1.572426    2.976798
      5          1           0       -1.839905    1.551565   -0.962198
      6          8           0        0.035900   -1.631812   -1.005308
      7          1           0       -0.454016   -1.640131   -1.838161
      8          1           0        0.720954   -2.310264   -1.067482
      9          1           0        2.061800    1.607759   -0.012698
     10          8           0        1.177781   -0.861750    1.685669
 ---------------------------------------------------------------------
                    Distance matrix (angstroms):
                    1          2          3          4          5
     1  Pa   0.000000
     2  O    2.136385   0.000000
     3  O    2.097197   2.954160   0.000000
     4  Cl   2.729581   3.673371   3.525864   0.000000
     5  H    2.851181   3.066894   0.967099   4.054581   0.000000
     6  O    2.498035   3.442160   3.092309   5.192418   3.695185
     7  H    3.166593   3.920483   3.142184   5.803869   3.588165
     8  H    3.160683   3.961829   4.041431   5.830186   4.634955
     9  H    2.830328   0.964617   3.910808   4.193585   4.015970
    10  O    1.856757   2.981865   3.938659   3.438348   4.684199
                    6          7          8          9         10
     6  O    0.000000
     7  H    0.966298   0.000000
     8  H    0.966158   1.556785   0.000000
     9  H    3.947704   4.495602   4.273329   0.000000
    10  O    3.022953   3.960558   3.144316   3.124807   0.000000
 Stoichiometry    ClH4O4Pa
 Framework group  C1[X(ClH4O4Pa)]
 Deg. of freedom    24
 Full point group                 C1      NOp   1
 Largest Abelian subgroup         C1      NOp   1
 Largest concise Abelian subgroup C1      NOp   1
                         Standard orientation:                         
 ---------------------------------------------------------------------
 Center     Atomic      Atomic             Coordinates (Angstroms)
 Number     Number       Type             X           Y           Z
 ---------------------------------------------------------------------
      1         91           0        0.114662   -0.051717   -0.080636
      2          8           0        0.276747    0.189012    2.035945
      3          8           0        0.283190    2.029672   -0.274679
      4         17           0       -2.610069    0.015056   -0.228935
      5          1           0        0.317253    2.757769    0.360927
      6          8           0        2.574086   -0.033114   -0.517750
      7          1           0        3.135925    0.749990   -0.587143
      8          1           0        3.156021   -0.804096   -0.497750
      9          1           0        0.341929   -0.503652    2.704119
     10          8           0        0.239198   -1.904282   -0.087314
 ---------------------------------------------------------------------
 Rotational constants (GHZ):           2.3247093           1.1131092           1.0007546
 Leave Link  202 at Tue Jul  4 10:46:02 2023, MaxMem=  2147483648 cpu:               0.2 elap:               0.1
 (Enter /home/pcmt/gaussian/g16.C.01/g16/l301.exe)
 General basis read from cards:  (5D, 7F)
 Centers:       1
 S 3 1.00
     Exponent=  1.2047376000D+04 Coefficients=  3.4500000000D-04
     Exponent=  1.8116841000D+03 Coefficients=  2.7420000000D-03
     Exponent=  3.4770104000D+02 Coefficients=  1.0053000000D-02
 S 1 1.00
     Exponent=  9.8678010000D+01 Coefficients=  1.0000000000D+00
 S 3 1.00
     Exponent=  5.7507376000D+01 Coefficients=  5.1528000000D-02
     Exponent=  3.3502601000D+01 Coefficients= -2.3692400000D-01
     Exponent=  1.9554451000D+01 Coefficients=  7.1904800000D-01
 S 1 1.00
     Exponent=  9.7164210000D+00 Coefficients=  1.0000000000D+00
 S 1 1.00
     Exponent=  2.6920960000D+00 Coefficients=  1.0000000000D+00
 S 1 1.00
     Exponent=  1.4538470000D+00 Coefficients=  1.0000000000D+00
 S 1 1.00
     Exponent=  5.7435200000D-01 Coefficients=  1.0000000000D+00
 S 1 1.00
     Exponent=  2.6346800000D-01 Coefficients=  1.0000000000D+00
 S 1 1.00
     Exponent=  5.6557000000D-02 Coefficients=  1.0000000000D+00
 S 1 1.00
     Exponent=  2.3169000000D-02 Coefficients=  1.0000000000D+00
 P 5 1.00
     Exponent=  2.9033676000D+03 Coefficients=  3.5000000000D-05
     Exponent=  6.4486356000D+02 Coefficients=  2.0500000000D-04
     Exponent=  2.2025896000D+02 Coefficients=  1.2510000000D-03
     Exponent=  8.0276401000D+01 Coefficients=  2.4570000000D-03
     Exponent=  2.4080211000D+01 Coefficients=  1.1190000000D-02
 P 1 1.00
     Exponent=  1.4077580000D+01 Coefficients=  1.0000000000D+00
 P 1 1.00
     Exponent=  8.2658460000D+00 Coefficients=  1.0000000000D+00
 P 1 1.00
     Exponent=  3.5948000000D+00 Coefficients=  1.0000000000D+00
 P 1 1.00
     Exponent=  1.7531110000D+00 Coefficients=  1.0000000000D+00
 P 1 1.00
     Exponent=  6.5776700000D-01 Coefficients=  1.0000000000D+00
 P 1 1.00
     Exponent=  2.8463900000D-01 Coefficients=  1.0000000000D+00
 P 1 1.00
     Exponent=  1.0054300000D-01 Coefficients=  1.0000000000D+00
 P 1 1.00
     Exponent=  3.0190000000D-02 Coefficients=  1.0000000000D+00
 D 6 1.00
     Exponent=  4.4814991000D+02 Coefficients=  2.6000000000D-05
     Exponent=  1.5446145000D+02 Coefficients=  2.2800000000D-04
     Exponent=  6.0925377000D+01 Coefficients=  9.0400000000D-04
     Exponent=  1.7032091000D+01 Coefficients=  2.5647000000D-02
     Exponent=  1.0018877000D+01 Coefficients= -1.0575100000D-01
     Exponent=  3.4091930000D+00 Coefficients=  4.4743200000D-01
 D 1 1.00
     Exponent=  1.6702130000D+00 Coefficients=  1.0000000000D+00
 D 1 1.00
     Exponent=  7.4109500000D-01 Coefficients=  1.0000000000D+00
 D 1 1.00
     Exponent=  2.6139300000D-01 Coefficients=  1.0000000000D+00
 D 1 1.00
     Exponent=  8.2811000000D-02 Coefficients=  1.0000000000D+00
 F 5 1.00
     Exponent=  8.7991327000D+01 Coefficients=  2.2600000000D-04
     Exponent=  2.8340195000D+01 Coefficients=  2.3230000000D-03
     Exponent=  1.2440994000D+01 Coefficients=  4.5850000000D-03
     Exponent=  3.9572960000D+00 Coefficients=  1.5696100000D-01
     Exponent=  1.8759440000D+00 Coefficients=  3.4497700000D-01
 F 1 1.00
     Exponent=  8.2758900000D-01 Coefficients=  1.0000000000D+00
 F 1 1.00
     Exponent=  3.3274800000D-01 Coefficients=  1.0000000000D+00
 F 1 1.00
     Exponent=  1.1468500000D-01 Coefficients=  1.0000000000D+00
 G 1 1.00
     Exponent=  3.5000000000D-01 Coefficients=  1.0000000000D+00
 ****
 Centers:       2      3      6     10
 Def2TZVP
 ****
 Centers:       5      7      8      9
 Def2TZVP
 ****
 Centers:       4
 Def2TZVP
 ****
 ======================================================================================================
                                       Pseudopotential Parameters
 ======================================================================================================
  Center     Atomic      Valence      Angular      Power
  Number     Number     Electrons     Momentum     of R      Exponent        Coefficient   SO-Coeffient
 ======================================================================================================
    1         91           31
                                      H and up 
                                                     2        1.0000000        0.00000000    0.00000000
                                      S - H
                                                     2       15.2691737      475.47573283    0.00000000
                                      P - H
                                                     2        9.9577370      207.66485962    0.00000000
                                      D - H
                                                     2        8.9431413      156.67411988    0.00000000
                                      F - H
                                                     2        7.0104666       67.98223685    0.00000000
                                      G - H
                                                     2       12.2010560      -57.63059989    0.00000000
    2          8
                                   No pseudopotential on this center.
    3          8
                                   No pseudopotential on this center.
    4         17
                                   No pseudopotential on this center.
    5          1
                                   No pseudopotential on this center.
    6          8
                                   No pseudopotential on this center.
    7          1
                                   No pseudopotential on this center.
    8          1
                                   No pseudopotential on this center.
    9          1
                                   No pseudopotential on this center.
   10          8
                                   No pseudopotential on this center.
 ======================================================================================================
 Ernie: Thresh=  0.10000D-02 Tol=  0.10000D-05 Strict=F.
 AO basis set in the form of general basis input (Overlap normalization):
      1 0
 S   3 1.00       0.000000000000
      0.1204737600D+05  0.2857094961D-01
      0.1811684100D+04  0.2270769386D+00
      0.3477010400D+03  0.8325326273D+00
 S   3 1.00       0.000000000000
      0.5750737600D+02  0.9569327984D-01
      0.3350260100D+02 -0.4399944619D+00
      0.1955445100D+02  0.1335352847D+01
 S   1 1.00       0.000000000000
      0.9867801000D+02  0.1000000000D+01
 S   1 1.00       0.000000000000
      0.9716421000D+01  0.1000000000D+01
 S   1 1.00       0.000000000000
      0.2692096000D+01  0.1000000000D+01
 S   1 1.00       0.000000000000
      0.1453847000D+01  0.1000000000D+01
 S   1 1.00       0.000000000000
      0.5743520000D+00  0.1000000000D+01
 S   1 1.00       0.000000000000
      0.2634680000D+00  0.1000000000D+01
 S   1 1.00       0.000000000000
      0.5655700000D-01  0.1000000000D+01
 S   1 1.00       0.000000000000
      0.2316900000D-01  0.1000000000D+01
 P   5 1.00       0.000000000000
      0.2903367600D+04  0.2594222647D-02
      0.6448635600D+03  0.1519473264D-01
      0.2202589600D+03  0.9272492945D-01
      0.8027640100D+02  0.1821144298D+00
      0.2408021100D+02  0.8294100404D+00
 P   1 1.00       0.000000000000
      0.1407758000D+02  0.1000000000D+01
 P   1 1.00       0.000000000000
      0.8265846000D+01  0.1000000000D+01
 P   1 1.00       0.000000000000
      0.3594800000D+01  0.1000000000D+01
 P   1 1.00       0.000000000000
      0.1753111000D+01  0.1000000000D+01
 P   1 1.00       0.000000000000
      0.6577670000D+00  0.1000000000D+01
 P   1 1.00       0.000000000000
      0.2846390000D+00  0.1000000000D+01
 P   1 1.00       0.000000000000
      0.1005430000D+00  0.1000000000D+01
 P   1 1.00       0.000000000000
      0.3019000000D-01  0.1000000000D+01
 D   6 1.00       0.000000000000
      0.4481499100D+03  0.6556927566D-04
      0.1544614500D+03  0.5749921096D-03
      0.6092537700D+02  0.2279793277D-02
      0.1703209100D+02  0.6467904664D-01
      0.1001887700D+02 -0.2666929411D+00
      0.3409193000D+01  0.1128376621D+01
 D   1 1.00       0.000000000000
      0.1670213000D+01  0.1000000000D+01
 D   1 1.00       0.000000000000
      0.7410950000D+00  0.1000000000D+01
 D   1 1.00       0.000000000000
      0.2613930000D+00  0.1000000000D+01
 D   1 1.00       0.000000000000
      0.8281100000D-01  0.1000000000D+01
 F   5 1.00       0.000000000000
      0.8799132700D+02  0.4766318191D-03
      0.2834019500D+02  0.4899184583D-02
      0.1244099400D+02  0.9669720755D-02
      0.3957296000D+01  0.3310292343D+00
      0.1875944000D+01  0.7275531640D+00
 F   1 1.00       0.000000000000
      0.8275890000D+00  0.1000000000D+01
 F   1 1.00       0.000000000000
      0.3327480000D+00  0.1000000000D+01
 F   1 1.00       0.000000000000
      0.1146850000D+00  0.1000000000D+01
 G   1 1.00       0.000000000000
      0.3500000000D+00  0.1000000000D+01
 ****
      2 0
 S   6 1.00       0.000000000000
      0.2703238263D+05  0.5722733521D-03
      0.4052387139D+04  0.4435323349D-02
      0.9223272271D+03  0.2302010771D-01
      0.2612407099D+03  0.9282249067D-01
      0.8535464135D+02  0.2937850001D+00
      0.3103503524D+02  0.6740160450D+00
 S   2 1.00       0.000000000000
      0.1226086073D+02  0.6383993703D+00
      0.4998707601D+01  0.3953458713D+00
 S   1 1.00       0.000000000000
      0.1170310816D+01  0.1000000000D+01
 S   1 1.00       0.000000000000
      0.4647474099D+00  0.1000000000D+01
 S   1 1.00       0.000000000000
      0.1850453636D+00  0.1000000000D+01
 P   4 1.00       0.000000000000
      0.6327495480D+02  0.1201833222D-01
      0.1462704938D+02  0.8300542179D-01
      0.4450122346D+01  0.3199174393D+00
      0.1527579965D+01  0.7071554292D+00
 P   1 1.00       0.000000000000
      0.5293511794D+00  0.1000000000D+01
 P   1 1.00       0.000000000000
      0.1747842127D+00  0.1000000000D+01
 D   1 1.00       0.000000000000
      0.2314000000D+01  0.1000000000D+01
 D   1 1.00       0.000000000000
      0.6450000000D+00  0.1000000000D+01
 F   1 1.00       0.000000000000
      0.1428000000D+01  0.1000000000D+01
 ****
      3 0
 S   6 1.00       0.000000000000
      0.2703238263D+05  0.5722733521D-03
      0.4052387139D+04  0.4435323349D-02
      0.9223272271D+03  0.2302010771D-01
      0.2612407099D+03  0.9282249067D-01
      0.8535464135D+02  0.2937850001D+00
      0.3103503524D+02  0.6740160450D+00
 S   2 1.00       0.000000000000
      0.1226086073D+02  0.6383993703D+00
      0.4998707601D+01  0.3953458713D+00
 S   1 1.00       0.000000000000
      0.1170310816D+01  0.1000000000D+01
 S   1 1.00       0.000000000000
      0.4647474099D+00  0.1000000000D+01
 S   1 1.00       0.000000000000
      0.1850453636D+00  0.1000000000D+01
 P   4 1.00       0.000000000000
      0.6327495480D+02  0.1201833222D-01
      0.1462704938D+02  0.8300542179D-01
      0.4450122346D+01  0.3199174393D+00
      0.1527579965D+01  0.7071554292D+00
 P   1 1.00       0.000000000000
      0.5293511794D+00  0.1000000000D+01
 P   1 1.00       0.000000000000
      0.1747842127D+00  0.1000000000D+01
 D   1 1.00       0.000000000000
      0.2314000000D+01  0.1000000000D+01
 D   1 1.00       0.000000000000
      0.6450000000D+00  0.1000000000D+01
 F   1 1.00       0.000000000000
      0.1428000000D+01  0.1000000000D+01
 ****
      4 0
 S   7 1.00       0.000000000000
      0.6950799094D+05  0.5145738965D-03
      0.1042615688D+05  0.3978134481D-02
      0.2373233406D+04  0.2045617867D-01
      0.6715642007D+03  0.8014810289D-01
      0.2184199979D+03  0.2345477032D+00
      0.7757224971D+02  0.4454336858D+00
      0.2888881528D+02  0.3546684250D+00
 S   3 1.00       0.000000000000
      0.1271052718D+03  0.1129368805D+00
      0.3933958296D+02  0.4837351421D+00
      0.7674067999D+01 -0.1229229739D+01
 S   2 1.00       0.000000000000
      0.3874562763D+01  0.6729682164D+00
      0.1838583257D+01  0.3495605141D+00
 S   1 1.00       0.000000000000
      0.5022905754D+00  0.1000000000D+01
 S   1 1.00       0.000000000000
      0.1796272342D+00  0.1000000000D+01
 P   5 1.00       0.000000000000
      0.6665042328D+03  0.3350250820D-02
      0.1576424169D+03  0.2676397041D-01
      0.5026252098D+02  0.1236268236D+00
      0.1853607811D+02  0.3584578792D+00
      0.7294053278D+01  0.6167729635D+00
 P   1 1.00       0.000000000000
      0.2943324899D+01  0.1000000000D+01
 P   1 1.00       0.000000000000
      0.1040497082D+01  0.1000000000D+01
 P   1 1.00       0.000000000000
      0.3845641508D+00  0.1000000000D+01
 P   1 1.00       0.000000000000
      0.1306964273D+00  0.1000000000D+01
 D   2 1.00       0.000000000000
      0.4610000000D+01  0.1826583505D+00
      0.1011000000D+01  0.9132917523D+00
 D   1 1.00       0.000000000000
      0.3390000000D+00  0.1000000000D+01
 F   1 1.00       0.000000000000
      0.7060000000D+00  0.1000000000D+01
 ****
      5 0
 S   3 1.00       0.000000000000
      0.3406134100D+02  0.2543930721D-01
      0.5123574600D+01  0.1900859489D+00
      0.1164662600D+01  0.8524411301D+00
 S   1 1.00       0.000000000000
      0.3272304100D+00  0.1000000000D+01
 S   1 1.00       0.000000000000
      0.1030724100D+00  0.1000000000D+01
 P   1 1.00       0.000000000000
      0.8000000000D+00  0.1000000000D+01
 ****
      6 0
 S   6 1.00       0.000000000000
      0.2703238263D+05  0.5722733521D-03
      0.4052387139D+04  0.4435323349D-02
      0.9223272271D+03  0.2302010771D-01
      0.2612407099D+03  0.9282249067D-01
      0.8535464135D+02  0.2937850001D+00
      0.3103503524D+02  0.6740160450D+00
 S   2 1.00       0.000000000000
      0.1226086073D+02  0.6383993703D+00
      0.4998707601D+01  0.3953458713D+00
 S   1 1.00       0.000000000000
      0.1170310816D+01  0.1000000000D+01
 S   1 1.00       0.000000000000
      0.4647474099D+00  0.1000000000D+01
 S   1 1.00       0.000000000000
      0.1850453636D+00  0.1000000000D+01
 P   4 1.00       0.000000000000
      0.6327495480D+02  0.1201833222D-01
      0.1462704938D+02  0.8300542179D-01
      0.4450122346D+01  0.3199174393D+00
      0.1527579965D+01  0.7071554292D+00
 P   1 1.00       0.000000000000
      0.5293511794D+00  0.1000000000D+01
 P   1 1.00       0.000000000000
      0.1747842127D+00  0.1000000000D+01
 D   1 1.00       0.000000000000
      0.2314000000D+01  0.1000000000D+01
 D   1 1.00       0.000000000000
      0.6450000000D+00  0.1000000000D+01
 F   1 1.00       0.000000000000
      0.1428000000D+01  0.1000000000D+01
 ****
      7 0
 S   3 1.00       0.000000000000
      0.3406134100D+02  0.2543930721D-01
      0.5123574600D+01  0.1900859489D+00
      0.1164662600D+01  0.8524411301D+00
 S   1 1.00       0.000000000000
      0.3272304100D+00  0.1000000000D+01
 S   1 1.00       0.000000000000
      0.1030724100D+00  0.1000000000D+01
 P   1 1.00       0.000000000000
      0.8000000000D+00  0.1000000000D+01
 ****
      8 0
 S   3 1.00       0.000000000000
      0.3406134100D+02  0.2543930721D-01
      0.5123574600D+01  0.1900859489D+00
      0.1164662600D+01  0.8524411301D+00
 S   1 1.00       0.000000000000
      0.3272304100D+00  0.1000000000D+01
 S   1 1.00       0.000000000000
      0.1030724100D+00  0.1000000000D+01
 P   1 1.00       0.000000000000
      0.8000000000D+00  0.1000000000D+01
 ****
      9 0
 S   3 1.00       0.000000000000
      0.3406134100D+02  0.2543930721D-01
      0.5123574600D+01  0.1900859489D+00
      0.1164662600D+01  0.8524411301D+00
 S   1 1.00       0.000000000000
      0.3272304100D+00  0.1000000000D+01
 S   1 1.00       0.000000000000
      0.1030724100D+00  0.1000000000D+01
 P   1 1.00       0.000000000000
      0.8000000000D+00  0.1000000000D+01
 ****
     10 0
 S   6 1.00       0.000000000000
      0.2703238263D+05  0.5722733521D-03
      0.4052387139D+04  0.4435323349D-02
      0.9223272271D+03  0.2302010771D-01
      0.2612407099D+03  0.9282249067D-01
      0.8535464135D+02  0.2937850001D+00
      0.3103503524D+02  0.6740160450D+00
 S   2 1.00       0.000000000000
      0.1226086073D+02  0.6383993703D+00
      0.4998707601D+01  0.3953458713D+00
 S   1 1.00       0.000000000000
      0.1170310816D+01  0.1000000000D+01
 S   1 1.00       0.000000000000
      0.4647474099D+00  0.1000000000D+01
 S   1 1.00       0.000000000000
      0.1850453636D+00  0.1000000000D+01
 P   4 1.00       0.000000000000
      0.6327495480D+02  0.1201833222D-01
      0.1462704938D+02  0.8300542179D-01
      0.4450122346D+01  0.3199174393D+00
      0.1527579965D+01  0.7071554292D+00
 P   1 1.00       0.000000000000
      0.5293511794D+00  0.1000000000D+01
 P   1 1.00       0.000000000000
      0.1747842127D+00  0.1000000000D+01
 D   1 1.00       0.000000000000
      0.2314000000D+01  0.1000000000D+01
 D   1 1.00       0.000000000000
      0.6450000000D+00  0.1000000000D+01
 F   1 1.00       0.000000000000
      0.1428000000D+01  0.1000000000D+01
 ****

 AO basis set (Overlap normalization):
 Atom Pa1      Shell     1 S   3     bf    1 -     1          0.216680584408         -0.097731349308         -0.152380044071
      0.1204737600D+05  0.2857094961D-01
      0.1811684100D+04  0.2270769386D+00
      0.3477010400D+03  0.8325326273D+00
 Atom Pa1      Shell     2 S   3     bf    2 -     2          0.216680584408         -0.097731349308         -0.152380044071
      0.5750737600D+02  0.9569327984D-01
      0.3350260100D+02 -0.4399944619D+00
      0.1955445100D+02  0.1335352847D+01
 Atom Pa1      Shell     3 S   1     bf    3 -     3          0.216680584408         -0.097731349308         -0.152380044071
      0.9867801000D+02  0.1000000000D+01
 Atom Pa1      Shell     4 S   1     bf    4 -     4          0.216680584408         -0.097731349308         -0.152380044071
      0.9716421000D+01  0.1000000000D+01
 Atom Pa1      Shell     5 S   1     bf    5 -     5          0.216680584408         -0.097731349308         -0.152380044071
      0.2692096000D+01  0.1000000000D+01
 Atom Pa1      Shell     6 S   1     bf    6 -     6          0.216680584408         -0.097731349308         -0.152380044071
      0.1453847000D+01  0.1000000000D+01
 Atom Pa1      Shell     7 S   1     bf    7 -     7          0.216680584408         -0.097731349308         -0.152380044071
      0.5743520000D+00  0.1000000000D+01
 Atom Pa1      Shell     8 S   1     bf    8 -     8          0.216680584408         -0.097731349308         -0.152380044071
      0.2634680000D+00  0.1000000000D+01
 Atom Pa1      Shell     9 S   1     bf    9 -     9          0.216680584408         -0.097731349308         -0.152380044071
      0.5655700000D-01  0.1000000000D+01
 Atom Pa1      Shell    10 S   1     bf   10 -    10          0.216680584408         -0.097731349308         -0.152380044071
      0.2316900000D-01  0.1000000000D+01
 Atom Pa1      Shell    11 P   5     bf   11 -    13          0.216680584408         -0.097731349308         -0.152380044071
      0.2903367600D+04  0.2594222647D-02
      0.6448635600D+03  0.1519473264D-01
      0.2202589600D+03  0.9272492945D-01
      0.8027640100D+02  0.1821144298D+00
      0.2408021100D+02  0.8294100404D+00
 Atom Pa1      Shell    12 P   1     bf   14 -    16          0.216680584408         -0.097731349308         -0.152380044071
      0.1407758000D+02  0.1000000000D+01
 Atom Pa1      Shell    13 P   1     bf   17 -    19          0.216680584408         -0.097731349308         -0.152380044071
      0.8265846000D+01  0.1000000000D+01
 Atom Pa1      Shell    14 P   1     bf   20 -    22          0.216680584408         -0.097731349308         -0.152380044071
      0.3594800000D+01  0.1000000000D+01
 Atom Pa1      Shell    15 P   1     bf   23 -    25          0.216680584408         -0.097731349308         -0.152380044071
      0.1753111000D+01  0.1000000000D+01
 Atom Pa1      Shell    16 P   1     bf   26 -    28          0.216680584408         -0.097731349308         -0.152380044071
      0.6577670000D+00  0.1000000000D+01
 Atom Pa1      Shell    17 P   1     bf   29 -    31          0.216680584408         -0.097731349308         -0.152380044071
      0.2846390000D+00  0.1000000000D+01
 Atom Pa1      Shell    18 P   1     bf   32 -    34          0.216680584408         -0.097731349308         -0.152380044071
      0.1005430000D+00  0.1000000000D+01
 Atom Pa1      Shell    19 P   1     bf   35 -    37          0.216680584408         -0.097731349308         -0.152380044071
      0.3019000000D-01  0.1000000000D+01
 Atom Pa1      Shell    20 D   6     bf   38 -    42          0.216680584408         -0.097731349308         -0.152380044071
      0.4481499100D+03  0.6556927566D-04
      0.1544614500D+03  0.5749921096D-03
      0.6092537700D+02  0.2279793277D-02
      0.1703209100D+02  0.6467904664D-01
      0.1001887700D+02 -0.2666929411D+00
      0.3409193000D+01  0.1128376621D+01
 Atom Pa1      Shell    21 D   1     bf   43 -    47          0.216680584408         -0.097731349308         -0.152380044071
      0.1670213000D+01  0.1000000000D+01
 Atom Pa1      Shell    22 D   1     bf   48 -    52          0.216680584408         -0.097731349308         -0.152380044071
      0.7410950000D+00  0.1000000000D+01
 Atom Pa1      Shell    23 D   1     bf   53 -    57          0.216680584408         -0.097731349308         -0.152380044071
      0.2613930000D+00  0.1000000000D+01
 Atom Pa1      Shell    24 D   1     bf   58 -    62          0.216680584408         -0.097731349308         -0.152380044071
      0.8281100000D-01  0.1000000000D+01
 Atom Pa1      Shell    25 F   5     bf   63 -    69          0.216680584408         -0.097731349308         -0.152380044071
      0.8799132700D+02  0.4766318191D-03
      0.2834019500D+02  0.4899184583D-02
      0.1244099400D+02  0.9669720755D-02
      0.3957296000D+01  0.3310292343D+00
      0.1875944000D+01  0.7275531640D+00
 Atom Pa1      Shell    26 F   1     bf   70 -    76          0.216680584408         -0.097731349308         -0.152380044071
      0.8275890000D+00  0.1000000000D+01
 Atom Pa1      Shell    27 F   1     bf   77 -    83          0.216680584408         -0.097731349308         -0.152380044071
      0.3327480000D+00  0.1000000000D+01
 Atom Pa1      Shell    28 F   1     bf   84 -    90          0.216680584408         -0.097731349308         -0.152380044071
      0.1146850000D+00  0.1000000000D+01
 Atom Pa1      Shell    29 G   1     bf   91 -    99          0.216680584408         -0.097731349308         -0.152380044071
      0.3500000000D+00  0.1000000000D+01
 Atom O2       Shell    30 S   6     bf  100 -   100          0.522976863910          0.357180035677          3.847379186269
      0.2703238263D+05  0.5722733521D-03
      0.4052387139D+04  0.4435323349D-02
      0.9223272271D+03  0.2302010771D-01
      0.2612407099D+03  0.9282249067D-01
      0.8535464135D+02  0.2937850001D+00
      0.3103503524D+02  0.6740160450D+00
 Atom O2       Shell    31 S   2     bf  101 -   101          0.522976863910          0.357180035677          3.847379186269
      0.1226086073D+02  0.6383993703D+00
      0.4998707601D+01  0.3953458713D+00
 Atom O2       Shell    32 S   1     bf  102 -   102          0.522976863910          0.357180035677          3.847379186269
      0.1170310816D+01  0.1000000000D+01
 Atom O2       Shell    33 S   1     bf  103 -   103          0.522976863910          0.357180035677          3.847379186269
      0.4647474099D+00  0.1000000000D+01
 Atom O2       Shell    34 S   1     bf  104 -   104          0.522976863910          0.357180035677          3.847379186269
      0.1850453636D+00  0.1000000000D+01
 Atom O2       Shell    35 P   4     bf  105 -   107          0.522976863910          0.357180035677          3.847379186269
      0.6327495480D+02  0.1201833222D-01
      0.1462704938D+02  0.8300542179D-01
      0.4450122346D+01  0.3199174393D+00
      0.1527579965D+01  0.7071554292D+00
 Atom O2       Shell    36 P   1     bf  108 -   110          0.522976863910          0.357180035677          3.847379186269
      0.5293511794D+00  0.1000000000D+01
 Atom O2       Shell    37 P   1     bf  111 -   113          0.522976863910          0.357180035677          3.847379186269
      0.1747842127D+00  0.1000000000D+01
 Atom O2       Shell    38 D   1     bf  114 -   118          0.522976863910          0.357180035677          3.847379186269
      0.2314000000D+01  0.1000000000D+01
 Atom O2       Shell    39 D   1     bf  119 -   123          0.522976863910          0.357180035677          3.847379186269
      0.6450000000D+00  0.1000000000D+01
 Atom O2       Shell    40 F   1     bf  124 -   130          0.522976863910          0.357180035677          3.847379186269
      0.1428000000D+01  0.1000000000D+01
 Atom O3       Shell    41 S   6     bf  131 -   131          0.535150853964          3.835524418196         -0.519068481699
      0.2703238263D+05  0.5722733521D-03
      0.4052387139D+04  0.4435323349D-02
      0.9223272271D+03  0.2302010771D-01
      0.2612407099D+03  0.9282249067D-01
      0.8535464135D+02  0.2937850001D+00
      0.3103503524D+02  0.6740160450D+00
 Atom O3       Shell    42 S   2     bf  132 -   132          0.535150853964          3.835524418196         -0.519068481699
      0.1226086073D+02  0.6383993703D+00
      0.4998707601D+01  0.3953458713D+00
 Atom O3       Shell    43 S   1     bf  133 -   133          0.535150853964          3.835524418196         -0.519068481699
      0.1170310816D+01  0.1000000000D+01
 Atom O3       Shell    44 S   1     bf  134 -   134          0.535150853964          3.835524418196         -0.519068481699
      0.4647474099D+00  0.1000000000D+01
 Atom O3       Shell    45 S   1     bf  135 -   135          0.535150853964          3.835524418196         -0.519068481699
      0.1850453636D+00  0.1000000000D+01
 Atom O3       Shell    46 P   4     bf  136 -   138          0.535150853964          3.835524418196         -0.519068481699
      0.6327495480D+02  0.1201833222D-01
      0.1462704938D+02  0.8300542179D-01
      0.4450122346D+01  0.3199174393D+00
      0.1527579965D+01  0.7071554292D+00
 Atom O3       Shell    47 P   1     bf  139 -   141          0.535150853964          3.835524418196         -0.519068481699
      0.5293511794D+00  0.1000000000D+01
 Atom O3       Shell    48 P   1     bf  142 -   144          0.535150853964          3.835524418196         -0.519068481699
      0.1747842127D+00  0.1000000000D+01
 Atom O3       Shell    49 D   1     bf  145 -   149          0.535150853964          3.835524418196         -0.519068481699
      0.2314000000D+01  0.1000000000D+01
 Atom O3       Shell    50 D   1     bf  150 -   154          0.535150853964          3.835524418196         -0.519068481699
      0.6450000000D+00  0.1000000000D+01
 Atom O3       Shell    51 F   1     bf  155 -   161          0.535150853964          3.835524418196         -0.519068481699
      0.1428000000D+01  0.1000000000D+01
 Atom Cl4      Shell    52 S   7     bf  162 -   162         -4.932316025497          0.028451625944         -0.432623742673
      0.6950799094D+05  0.5145738965D-03
      0.1042615688D+05  0.3978134481D-02
      0.2373233406D+04  0.2045617867D-01
      0.6715642007D+03  0.8014810289D-01
      0.2184199979D+03  0.2345477032D+00
      0.7757224971D+02  0.4454336858D+00
      0.2888881528D+02  0.3546684250D+00
 Atom Cl4      Shell    53 S   3     bf  163 -   163         -4.932316025497          0.028451625944         -0.432623742673
      0.1271052718D+03  0.1129368805D+00
      0.3933958296D+02  0.4837351421D+00
      0.7674067999D+01 -0.1229229739D+01
 Atom Cl4      Shell    54 S   2     bf  164 -   164         -4.932316025497          0.028451625944         -0.432623742673
      0.3874562763D+01  0.6729682164D+00
      0.1838583257D+01  0.3495605141D+00
 Atom Cl4      Shell    55 S   1     bf  165 -   165         -4.932316025497          0.028451625944         -0.432623742673
      0.5022905754D+00  0.1000000000D+01
 Atom Cl4      Shell    56 S   1     bf  166 -   166         -4.932316025497          0.028451625944         -0.432623742673
      0.1796272342D+00  0.1000000000D+01
 Atom Cl4      Shell    57 P   5     bf  167 -   169         -4.932316025497          0.028451625944         -0.432623742673
      0.6665042328D+03  0.3350250820D-02
      0.1576424169D+03  0.2676397041D-01
      0.5026252098D+02  0.1236268236D+00
      0.1853607811D+02  0.3584578792D+00
      0.7294053278D+01  0.6167729635D+00
 Atom Cl4      Shell    58 P   1     bf  170 -   172         -4.932316025497          0.028451625944         -0.432623742673
      0.2943324899D+01  0.1000000000D+01
 Atom Cl4      Shell    59 P   1     bf  173 -   175         -4.932316025497          0.028451625944         -0.432623742673
      0.1040497082D+01  0.1000000000D+01
 Atom Cl4      Shell    60 P   1     bf  176 -   178         -4.932316025497          0.028451625944         -0.432623742673
      0.3845641508D+00  0.1000000000D+01
 Atom Cl4      Shell    61 P   1     bf  179 -   181         -4.932316025497          0.028451625944         -0.432623742673
      0.1306964273D+00  0.1000000000D+01
 Atom Cl4      Shell    62 D   2     bf  182 -   186         -4.932316025497          0.028451625944         -0.432623742673
      0.4610000000D+01  0.1826583505D+00
      0.1011000000D+01  0.9132917523D+00
 Atom Cl4      Shell    63 D   1     bf  187 -   191         -4.932316025497          0.028451625944         -0.432623742673
      0.3390000000D+00  0.1000000000D+01
 Atom Cl4      Shell    64 F   1     bf  192 -   198         -4.932316025497          0.028451625944         -0.432623742673
      0.7060000000D+00  0.1000000000D+01
 Atom H5       Shell    65 S   3     bf  199 -   199          0.599521513364          5.211427239902          0.682053641329
      0.3406134100D+02  0.2543930721D-01
      0.5123574600D+01  0.1900859489D+00
      0.1164662600D+01  0.8524411301D+00
 Atom H5       Shell    66 S   1     bf  200 -   200          0.599521513364          5.211427239902          0.682053641329
      0.3272304100D+00  0.1000000000D+01
 Atom H5       Shell    67 S   1     bf  201 -   201          0.599521513364          5.211427239902          0.682053641329
      0.1030724100D+00  0.1000000000D+01
 Atom H5       Shell    68 P   1     bf  202 -   204          0.599521513364          5.211427239902          0.682053641329
      0.8000000000D+00  0.1000000000D+01
 Atom O6       Shell    69 S   6     bf  205 -   205          4.864317896183         -0.062576741651         -0.978405747245
      0.2703238263D+05  0.5722733521D-03
      0.4052387139D+04  0.4435323349D-02
      0.9223272271D+03  0.2302010771D-01
      0.2612407099D+03  0.9282249067D-01
      0.8535464135D+02  0.2937850001D+00
      0.3103503524D+02  0.6740160450D+00
 Atom O6       Shell    70 S   2     bf  206 -   206          4.864317896183         -0.062576741651         -0.978405747245
      0.1226086073D+02  0.6383993703D+00
      0.4998707601D+01  0.3953458713D+00
 Atom O6       Shell    71 S   1     bf  207 -   207          4.864317896183         -0.062576741651         -0.978405747245
      0.1170310816D+01  0.1000000000D+01
 Atom O6       Shell    72 S   1     bf  208 -   208          4.864317896183         -0.062576741651         -0.978405747245
      0.4647474099D+00  0.1000000000D+01
 Atom O6       Shell    73 S   1     bf  209 -   209          4.864317896183         -0.062576741651         -0.978405747245
      0.1850453636D+00  0.1000000000D+01
 Atom O6       Shell    74 P   4     bf  210 -   212          4.864317896183         -0.062576741651         -0.978405747245
      0.6327495480D+02  0.1201833222D-01
      0.1462704938D+02  0.8300542179D-01
      0.4450122346D+01  0.3199174393D+00
      0.1527579965D+01  0.7071554292D+00
 Atom O6       Shell    75 P   1     bf  213 -   215          4.864317896183         -0.062576741651         -0.978405747245
      0.5293511794D+00  0.1000000000D+01
 Atom O6       Shell    76 P   1     bf  216 -   218          4.864317896183         -0.062576741651         -0.978405747245
      0.1747842127D+00  0.1000000000D+01
 Atom O6       Shell    77 D   1     bf  219 -   223          4.864317896183         -0.062576741651         -0.978405747245
      0.2314000000D+01  0.1000000000D+01
 Atom O6       Shell    78 D   1     bf  224 -   228          4.864317896183         -0.062576741651         -0.978405747245
      0.6450000000D+00  0.1000000000D+01
 Atom O6       Shell    79 F   1     bf  229 -   235          4.864317896183         -0.062576741651         -0.978405747245
      0.1428000000D+01  0.1000000000D+01
 Atom H7       Shell    80 S   3     bf  236 -   236          5.926040260291          1.417275813941         -1.109538698058
      0.3406134100D+02  0.2543930721D-01
      0.5123574600D+01  0.1900859489D+00
      0.1164662600D+01  0.8524411301D+00
 Atom H7       Shell    81 S   1     bf  237 -   237          5.926040260291          1.417275813941         -1.109538698058
      0.3272304100D+00  0.1000000000D+01
 Atom H7       Shell    82 S   1     bf  238 -   238          5.926040260291          1.417275813941         -1.109538698058
      0.1030724100D+00  0.1000000000D+01
 Atom H7       Shell    83 P   1     bf  239 -   241          5.926040260291          1.417275813941         -1.109538698058
      0.8000000000D+00  0.1000000000D+01
 Atom H8       Shell    84 S   3     bf  242 -   242          5.964015429087         -1.519521610875         -0.940610328514
      0.3406134100D+02  0.2543930721D-01
      0.5123574600D+01  0.1900859489D+00
      0.1164662600D+01  0.8524411301D+00
 Atom H8       Shell    85 S   1     bf  243 -   243          5.964015429087         -1.519521610875         -0.940610328514
      0.3272304100D+00  0.1000000000D+01
 Atom H8       Shell    86 S   1     bf  244 -   244          5.964015429087         -1.519521610875         -0.940610328514
      0.1030724100D+00  0.1000000000D+01
 Atom H8       Shell    87 P   1     bf  245 -   247          5.964015429087         -1.519521610875         -0.940610328514
      0.8000000000D+00  0.1000000000D+01
 Atom H9       Shell    88 S   3     bf  248 -   248          0.646151775419         -0.951763590420          5.110043790167
      0.3406134100D+02  0.2543930721D-01
      0.5123574600D+01  0.1900859489D+00
      0.1164662600D+01  0.8524411301D+00
 Atom H9       Shell    89 S   1     bf  249 -   249          0.646151775419         -0.951763590420          5.110043790167
      0.3272304100D+00  0.1000000000D+01
 Atom H9       Shell    90 S   1     bf  250 -   250          0.646151775419         -0.951763590420          5.110043790167
      0.1030724100D+00  0.1000000000D+01
 Atom H9       Shell    91 P   1     bf  251 -   253          0.646151775419         -0.951763590420          5.110043790167
      0.8000000000D+00  0.1000000000D+01
 Atom O10      Shell    92 S   6     bf  254 -   254          0.452018170210         -3.598570550545         -0.165000053453
      0.2703238263D+05  0.5722733521D-03
      0.4052387139D+04  0.4435323349D-02
      0.9223272271D+03  0.2302010771D-01
      0.2612407099D+03  0.9282249067D-01
      0.8535464135D+02  0.2937850001D+00
      0.3103503524D+02  0.6740160450D+00
 Atom O10      Shell    93 S   2     bf  255 -   255          0.452018170210         -3.598570550545         -0.165000053453
      0.1226086073D+02  0.6383993703D+00
      0.4998707601D+01  0.3953458713D+00
 Atom O10      Shell    94 S   1     bf  256 -   256          0.452018170210         -3.598570550545         -0.165000053453
      0.1170310816D+01  0.1000000000D+01
 Atom O10      Shell    95 S   1     bf  257 -   257          0.452018170210         -3.598570550545         -0.165000053453
      0.4647474099D+00  0.1000000000D+01
 Atom O10      Shell    96 S   1     bf  258 -   258          0.452018170210         -3.598570550545         -0.165000053453
      0.1850453636D+00  0.1000000000D+01
 Atom O10      Shell    97 P   4     bf  259 -   261          0.452018170210         -3.598570550545         -0.165000053453
      0.6327495480D+02  0.1201833222D-01
      0.1462704938D+02  0.8300542179D-01
      0.4450122346D+01  0.3199174393D+00
      0.1527579965D+01  0.7071554292D+00
 Atom O10      Shell    98 P   1     bf  262 -   264          0.452018170210         -3.598570550545         -0.165000053453
      0.5293511794D+00  0.1000000000D+01
 Atom O10      Shell    99 P   1     bf  265 -   267          0.452018170210         -3.598570550545         -0.165000053453
      0.1747842127D+00  0.1000000000D+01
 Atom O10      Shell   100 D   1     bf  268 -   272          0.452018170210         -3.598570550545         -0.165000053453
      0.2314000000D+01  0.1000000000D+01
 Atom O10      Shell   101 D   1     bf  273 -   277          0.452018170210         -3.598570550545         -0.165000053453
      0.6450000000D+00  0.1000000000D+01
 Atom O10      Shell   102 F   1     bf  278 -   284          0.452018170210         -3.598570550545         -0.165000053453
      0.1428000000D+01  0.1000000000D+01
 Effective core potential in the form of general ECP input:
      1 0
 Pa1-ECP   5 60
 H component
  1
  2        1.0000000        0.00000000    0.00000000
 S-H projection
  1
  2       15.2691737      475.47573283    0.00000000
 P-H projection
  1
  2        9.9577370      207.66485962    0.00000000
 D-H projection
  1
  2        8.9431413      156.67411988    0.00000000
 F-H projection
  1
  2        7.0104666       67.98223685    0.00000000
 G-H projection
  1
  2       12.2010560      -57.63059989    0.00000000
 
 There are   332 symmetry adapted cartesian basis functions of A   symmetry.
 There are   284 symmetry adapted basis functions of A   symmetry.
   284 basis functions,   513 primitive gaussians,   332 cartesian basis functions
    42 alpha electrons       42 beta electrons
       nuclear repulsion energy       549.3784618691 Hartrees.
 IExCor=  404 DFT=T Ex=B Corr=P86 ExCW=0 ScaHFX=  0.000000
 ScaDFX=  1.000000  1.000000  1.000000  1.000000 ScalE2=  1.000000  1.000000
 IRadAn=      5 IRanWt=     -1 IRanGd=            0 ICorTp=0 IEmpDi=  4
 NAtoms=   10 NActive=   10 NUniq=   10 SFac= 1.00D+00 NAtFMM=   60 NAOKFM=F Big=F
 Integral buffers will be    131072 words long.
 Raffenetti 2 integral format.
 Two-electron integral symmetry is turned on.
 Leave Link  301 at Tue Jul  4 10:46:02 2023, MaxMem=  2147483648 cpu:               1.1 elap:               0.2
 (Enter /home/pcmt/gaussian/g16.C.01/g16/l302.exe)
 NPDir=0 NMtPBC=     1 NCelOv=     1 NCel=       1 NClECP=     1 NCelD=      1
         NCelK=      1 NCelE2=     1 NClLst=     1 CellRange=     0.0.
 One-electron integrals computed using PRISM.
 One-electron integral symmetry used in STVInt
   1 Symmetry operations used in ECPInt.
 ECPInt:  NShTT=    5253 NPrTT=   15930 LenC2=    5008 LenP2D=   11548.
 LDataN:  DoStor=T MaxTD1= 9 Len=  602
 NBasis=   284 RedAO= T EigKep=  6.33D-04  NBF=   284
 NBsUse=   284 1.00D-06 EigRej= -1.00D+00 NBFU=   284
 Precomputing XC quadrature grid using
 IXCGrd= 4 IRadAn=           5 IRanWt=          -1 IRanGd=           0 AccXCQ= 0.00D+00.
 Defaulting to unpruned grid for atomic number  91.
 Generated NRdTot=       0 NPtTot=           0 NUsed=           0 NTot=          32
 NSgBfM=   327   327   327   327   327 MxSgAt=    10 MxSgA2=    10.
 Leave Link  302 at Tue Jul  4 10:46:03 2023, MaxMem=  2147483648 cpu:               6.7 elap:               1.0
 (Enter /home/pcmt/gaussian/g16.C.01/g16/l303.exe)
 DipDrv:  MaxL=1.
 Leave Link  303 at Tue Jul  4 10:46:03 2023, MaxMem=  2147483648 cpu:               0.6 elap:               0.1
 (Enter /home/pcmt/gaussian/g16.C.01/g16/l401.exe)
 ExpMin= 2.32D-02 ExpMax= 6.95D+04 ExpMxC= 1.20D+04 IAcc=3 IRadAn=         5 AccDes= 0.00D+00
 Harris functional with IExCor=  404 and IRadAn=       5 diagonalized for initial guess.
 HarFok:  IExCor=  404 AccDes= 0.00D+00 IRadAn=         5 IDoV= 1 UseB2=F ITyADJ=14
 ICtDFT=  3500011 ScaDFX=  1.000000  1.000000  1.000000  1.000000
 Defaulting to unpruned grid for atomic number  91.
 FoFCou: FMM=F IPFlag=           0 FMFlag=      100000 FMFlg1=           0
         NFxFlg=           0 DoJE=T BraDBF=F KetDBF=T FulRan=T
         wScrn=  0.000000 ICntrl=       500 IOpCl=  0 I1Cent=   200000004 NGrid=           0
         NMat0=    1 NMatS0=      1 NMatT0=    0 NMatD0=    1 NMtDS0=    0 NMtDT0=    0
 Petite list used in FoFCou.
 Harris En= -1206.97897322441    
 JPrj=0 DoOrth=F DoCkMO=F.
 Leave Link  401 at Tue Jul  4 10:46:05 2023, MaxMem=  2147483648 cpu:              14.2 elap:               1.9
 (Enter /home/pcmt/gaussian/g16.C.01/g16/l502.exe)
 Keep J ints in memory in canonical form, NReq=837395215.
 FoFCou: FMM=F IPFlag=           0 FMFlag=           0 FMFlg1=           0
         NFxFlg=           0 DoJE=F BraDBF=F KetDBF=F FulRan=T
         wScrn=  0.000000 ICntrl=       600 IOpCl=  0 I1Cent=           0 NGrid=           0
         NMat0=    1 NMatS0=  40470 NMatT0=    0 NMatD0=    1 NMtDS0=    0 NMtDT0=    0
 Symmetry not used in FoFCou.
 Two-electron integral symmetry not used.
 Closed shell SCF:
 Using DIIS extrapolation, IDIIS=  1040.
 NGot=  2147483648 LenX=  1328326775 LenY=  1328216110
 Requested convergence on RMS density matrix=1.00D-08 within 100 cycles.
 Requested convergence on MAX density matrix=1.00D-06.
 Requested convergence on             energy=1.00D-06.
 No special actions if energy rises.

 Cycle   1  Pass 1  IDiag  1:
 Defaulting to unpruned grid for atomic number  91.
 Defaulting to unpruned grid for atomic number  91.
 Defaulting to unpruned grid for atomic number  91.
 Defaulting to unpruned grid for atomic number  91.
 Defaulting to unpruned grid for atomic number  91.
 Defaulting to unpruned grid for atomic number  91.
 Defaulting to unpruned grid for atomic number  91.
 Defaulting to unpruned grid for atomic number  91.
 E= -1204.57454266867    
 DIIS: error= 4.68D-02 at cycle   1 NSaved=   1.
 NSaved= 1 IEnMin= 1 EnMin= -1204.57454266867     IErMin= 1 ErrMin= 4.68D-02
 ErrMax= 4.68D-02  0.00D+00 EMaxC= 1.00D-01 BMatC= 1.49D+00 BMatP= 1.49D+00
 IDIUse=3 WtCom= 5.32D-01 WtEn= 4.68D-01
 Coeff-Com:  0.100D+01
 Coeff-En:   0.100D+01
 Coeff:      0.100D+01
 Gap=     0.110 Goal=   None    Shift=    0.000
 GapD=    0.110 DampG=1.000 DampE=0.250 DampFc=0.2500 IDamp=-1.
 Damping current iteration by 2.50D-01
 RMSDP=1.37D-02 MaxDP=1.29D+00              OVMax= 9.89D-01

 Cycle   2  Pass 1  IDiag  1:
 E= -1202.48052228494     Delta-E=        2.094020383724 Rises=F Damp=T
 DIIS: error= 3.71D-02 at cycle   2 NSaved=   2.
 NSaved= 2 IEnMin= 1 EnMin= -1204.57454266867     IErMin= 2 ErrMin= 3.71D-02
 ErrMax= 3.71D-02  0.00D+00 EMaxC= 1.00D-01 BMatC= 1.38D+00 BMatP= 1.49D+00
 IDIUse=3 WtCom= 6.29D-01 WtEn= 3.71D-01
 Coeff-Com:  0.488D+00 0.512D+00
 Coeff-En:   0.734D+00 0.266D+00
 Coeff:      0.579D+00 0.421D+00
 Gap=     0.006 Goal=   None    Shift=    0.000
 RMSDP=8.23D-03 MaxDP=6.84D-01 DE= 2.09D+00 OVMax= 9.31D-01

 Cycle   3  Pass 1  IDiag  1:
 E= -1204.11374176883     Delta-E=       -1.633219483886 Rises=F Damp=F
 DIIS: error= 6.37D-02 at cycle   3 NSaved=   3.
 NSaved= 3 IEnMin= 1 EnMin= -1204.57454266867     IErMin= 2 ErrMin= 3.71D-02
 ErrMax= 6.37D-02  0.00D+00 EMaxC= 1.00D-01 BMatC= 1.53D+00 BMatP= 1.38D+00
 IDIUse=2 WtCom= 0.00D+00 WtEn= 1.00D+00
 EnCoef did     2 forward-backward iterations
 Coeff-En:   0.528D+00 0.182D+00 0.289D+00
 Coeff:      0.528D+00 0.182D+00 0.289D+00
 Gap=     0.013 Goal=   None    Shift=    0.000
 RMSDP=1.03D-02 MaxDP=6.84D-01 DE=-1.63D+00 OVMax= 9.11D-01

 Cycle   4  Pass 1  IDiag  1:
 E= -1179.80121851263     Delta-E=       24.312523256200 Rises=F Damp=F
 DIIS: error= 3.11D-01 at cycle   4 NSaved=   4.
 NSaved= 4 IEnMin= 1 EnMin= -1204.57454266867     IErMin= 2 ErrMin= 3.71D-02
 ErrMax= 3.11D-01  0.00D+00 EMaxC= 1.00D-01 BMatC= 4.66D+01 BMatP= 1.38D+00
 IDIUse=2 WtCom= 0.00D+00 WtEn= 1.00D+00
 EnCoef did   100 forward-backward iterations
 Coeff-En:   0.602D+00 0.850D-02 0.304D+00 0.850D-01
 Coeff:      0.602D+00 0.850D-02 0.304D+00 0.850D-01
 Gap=     0.018 Goal=   None    Shift=    0.000
 RMSDP=5.04D-03 MaxDP=2.90D-01 DE= 2.43D+01 OVMax= 8.67D-01

 Cycle   5  Pass 1  IDiag  1:
 E= -1204.45723202479     Delta-E=      -24.656013512159 Rises=F Damp=F
 DIIS: error= 7.82D-02 at cycle   5 NSaved=   5.
 NSaved= 5 IEnMin= 1 EnMin= -1204.57454266867     IErMin= 2 ErrMin= 3.71D-02
 ErrMax= 7.82D-02  0.00D+00 EMaxC= 1.00D-01 BMatC= 2.04D+00 BMatP= 1.38D+00
 IDIUse=2 WtCom= 0.00D+00 WtEn= 1.00D+00
 EnCoef did     1 forward-backward iterations
 Coeff-En:   0.487D+00 0.000D+00 0.588D-01 0.000D+00 0.454D+00
 Coeff:      0.487D+00 0.000D+00 0.588D-01 0.000D+00 0.454D+00
 Gap=     0.180 Goal=   None    Shift=    0.000
 RMSDP=2.74D-03 MaxDP=1.66D-01 DE=-2.47D+01 OVMax= 2.65D-01

 Cycle   6  Pass 1  IDiag  1:
 E= -1205.52371224296     Delta-E=       -1.066480218166 Rises=F Damp=F
 DIIS: error= 1.36D-02 at cycle   6 NSaved=   6.
 NSaved= 6 IEnMin= 6 EnMin= -1205.52371224296     IErMin= 6 ErrMin= 1.36D-02
 ErrMax= 1.36D-02  0.00D+00 EMaxC= 1.00D-01 BMatC= 9.82D-02 BMatP= 1.38D+00
 IDIUse=3 WtCom= 8.64D-01 WtEn= 1.36D-01
 Coeff-Com:  0.142D+00 0.125D+00-0.693D-02-0.190D-01 0.176D+00 0.583D+00
 Coeff-En:   0.000D+00 0.000D+00 0.000D+00 0.000D+00 0.122D+00 0.878D+00
 Coeff:      0.123D+00 0.108D+00-0.598D-02-0.165D-01 0.169D+00 0.623D+00
 Gap=     0.150 Goal=   None    Shift=    0.000
 RMSDP=1.08D-03 MaxDP=3.57D-02 DE=-1.07D+00 OVMax= 8.51D-02

 Cycle   7  Pass 1  IDiag  1:
 E= -1205.56991102382     Delta-E=       -0.046198780859 Rises=F Damp=F
 DIIS: error= 7.83D-03 at cycle   7 NSaved=   7.
 NSaved= 7 IEnMin= 7 EnMin= -1205.56991102382     IErMin= 7 ErrMin= 7.83D-03
 ErrMax= 7.83D-03  0.00D+00 EMaxC= 1.00D-01 BMatC= 5.98D-02 BMatP= 9.82D-02
 IDIUse=3 WtCom= 9.22D-01 WtEn= 7.83D-02
 EnCoef did     4 forward-backward iterations
 Coeff-Com:  0.192D-01 0.689D-01-0.198D-01-0.781D-02 0.950D-01 0.431D+00
 Coeff-Com:  0.414D+00
 Coeff-En:   0.000D+00 0.000D+00 0.000D+00 0.000D+00 0.580D-01 0.274D+00
 Coeff-En:   0.668D+00
 Coeff:      0.177D-01 0.635D-01-0.182D-01-0.719D-02 0.921D-01 0.418D+00
 Coeff:      0.434D+00
 Gap=     0.118 Goal=   None    Shift=    0.000
 RMSDP=5.49D-04 MaxDP=1.94D-02 DE=-4.62D-02 OVMax= 4.82D-02

 Cycle   8  Pass 1  IDiag  1:
 E= -1205.60401976556     Delta-E=       -0.034108741749 Rises=F Damp=F
 DIIS: error= 4.05D-03 at cycle   8 NSaved=   8.
 NSaved= 8 IEnMin= 8 EnMin= -1205.60401976556     IErMin= 8 ErrMin= 4.05D-03
 ErrMax= 4.05D-03  0.00D+00 EMaxC= 1.00D-01 BMatC= 1.17D-02 BMatP= 5.98D-02
 IDIUse=3 WtCom= 9.59D-01 WtEn= 4.05D-02
 Coeff-Com: -0.182D-01 0.243D-01-0.182D-01-0.204D-02 0.459D-01 0.200D+00
 Coeff-Com:  0.335D+00 0.434D+00
 Coeff-En:   0.000D+00 0.000D+00 0.000D+00 0.000D+00 0.000D+00 0.000D+00
 Coeff-En:   0.152D+00 0.848D+00
 Coeff:     -0.174D-01 0.234D-01-0.175D-01-0.196D-02 0.441D-01 0.192D+00
 Coeff:      0.327D+00 0.451D+00
 Gap=     0.110 Goal=   None    Shift=    0.000
 RMSDP=2.84D-04 MaxDP=1.30D-02 DE=-3.41D-02 OVMax= 2.83D-02

 Cycle   9  Pass 1  IDiag  1:
 E= -1205.61227700964     Delta-E=       -0.008257244074 Rises=F Damp=F
 DIIS: error= 1.96D-03 at cycle   9 NSaved=   9.
 NSaved= 9 IEnMin= 9 EnMin= -1205.61227700964     IErMin= 9 ErrMin= 1.96D-03
 ErrMax= 1.96D-03  0.00D+00 EMaxC= 1.00D-01 BMatC= 2.24D-03 BMatP= 1.17D-02
 IDIUse=3 WtCom= 9.80D-01 WtEn= 1.96D-02
 Coeff-Com: -0.128D-01 0.269D-02 0.105D-02 0.193D-03 0.986D-02-0.980D-02
 Coeff-Com:  0.106D+00 0.321D+00 0.581D+00
 Coeff-En:   0.000D+00 0.000D+00 0.000D+00 0.000D+00 0.000D+00 0.000D+00
 Coeff-En:   0.000D+00 0.789D-01 0.921D+00
 Coeff:     -0.126D-01 0.264D-02 0.103D-02 0.189D-03 0.967D-02-0.961D-02
 Coeff:      0.104D+00 0.317D+00 0.588D+00
 Gap=     0.105 Goal=   None    Shift=    0.000
 RMSDP=1.91D-04 MaxDP=1.10D-02 DE=-8.26D-03 OVMax= 1.98D-02

 Cycle  10  Pass 1  IDiag  1:
 E= -1205.61453194017     Delta-E=       -0.002254930536 Rises=F Damp=F
 DIIS: error= 9.53D-04 at cycle  10 NSaved=  10.
 NSaved=10 IEnMin=10 EnMin= -1205.61453194017     IErMin=10 ErrMin= 9.53D-04
 ErrMax= 9.53D-04  0.00D+00 EMaxC= 1.00D-01 BMatC= 9.94D-04 BMatP= 2.24D-03
 IDIUse=3 WtCom= 9.90D-01 WtEn= 9.53D-03
 Coeff-Com: -0.440D-02-0.443D-02 0.430D-02 0.350D-03 0.116D-02-0.393D-01
 Coeff-Com:  0.237D-01 0.179D+00 0.448D+00 0.393D+00
 Coeff-En:   0.000D+00 0.000D+00 0.000D+00 0.000D+00 0.000D+00 0.000D+00
 Coeff-En:   0.000D+00 0.000D+00 0.000D+00 0.100D+01
 Coeff:     -0.436D-02-0.439D-02 0.426D-02 0.347D-03 0.115D-02-0.389D-01
 Coeff:      0.234D-01 0.177D+00 0.443D+00 0.398D+00
 Gap=     0.105 Goal=   None    Shift=    0.000
 RMSDP=1.44D-04 MaxDP=8.62D-03 DE=-2.25D-03 OVMax= 1.73D-02

 Cycle  11  Pass 1  IDiag  1:
 E= -1205.61543051239     Delta-E=       -0.000898572212 Rises=F Damp=F
 DIIS: error= 1.63D-03 at cycle  11 NSaved=  11.
 NSaved=11 IEnMin=11 EnMin= -1205.61543051239     IErMin=10 ErrMin= 9.53D-04
 ErrMax= 1.63D-03  0.00D+00 EMaxC= 1.00D-01 BMatC= 1.53D-03 BMatP= 9.94D-04
 IDIUse=3 WtCom= 9.90D-01 WtEn= 9.53D-03
 Coeff-Com: -0.127D-02-0.464D-02 0.511D-02 0.333D-03-0.697D-03-0.347D-01
 Coeff-Com:  0.197D-01 0.151D+00 0.376D+00 0.301D+00 0.187D+00
 Coeff-En:   0.000D+00 0.000D+00 0.000D+00 0.000D+00 0.000D+00 0.000D+00
 Coeff-En:   0.000D+00 0.000D+00 0.000D+00 0.000D+00 0.100D+01
 Coeff:     -0.126D-02-0.459D-02 0.506D-02 0.330D-03-0.691D-03-0.344D-01
 Coeff:      0.195D-01 0.150D+00 0.373D+00 0.298D+00 0.195D+00
 Gap=     0.104 Goal=   None    Shift=    0.000
 RMSDP=3.42D-05 MaxDP=2.14D-03 DE=-8.99D-04 OVMax= 4.92D-03

 Cycle  12  Pass 1  IDiag  1:
 E= -1205.61560047895     Delta-E=       -0.000169966563 Rises=F Damp=F
 DIIS: error= 1.81D-03 at cycle  12 NSaved=  12.
 NSaved=12 IEnMin=12 EnMin= -1205.61560047895     IErMin=10 ErrMin= 9.53D-04
 ErrMax= 1.81D-03  0.00D+00 EMaxC= 1.00D-01 BMatC= 1.63D-03 BMatP= 9.94D-04
 IDIUse=3 WtCom= 9.90D-01 WtEn= 9.53D-03
 Coeff-Com:  0.391D-02 0.856D-03 0.152D-02 0.225D-03-0.450D-02 0.285D-01
 Coeff-Com:  0.873D-01 0.185D+00 0.304D+00-0.581D+00-0.350D+01 0.447D+01
 Coeff-En:   0.000D+00 0.000D+00 0.000D+00 0.000D+00 0.000D+00 0.000D+00
 Coeff-En:   0.000D+00 0.000D+00 0.000D+00 0.000D+00 0.000D+00 0.100D+01
 Coeff:      0.387D-02 0.848D-03 0.150D-02 0.223D-03-0.446D-02 0.282D-01
 Coeff:      0.864D-01 0.184D+00 0.302D+00-0.575D+00-0.347D+01 0.444D+01
 Gap=     0.108 Goal=   None    Shift=    0.000
 RMSDP=1.08D-04 MaxDP=1.43D-02 DE=-1.70D-04 OVMax= 5.44D-03

 Cycle  13  Pass 1  IDiag  1:
 E= -1205.61603740296     Delta-E=       -0.000436924011 Rises=F Damp=F
 DIIS: error= 5.92D-04 at cycle  13 NSaved=  13.
 NSaved=13 IEnMin=13 EnMin= -1205.61603740296     IErMin=13 ErrMin= 5.92D-04
 ErrMax= 5.92D-04  0.00D+00 EMaxC= 1.00D-01 BMatC= 3.07D-04 BMatP= 9.94D-04
 IDIUse=3 WtCom= 9.94D-01 WtEn= 5.92D-03
 Coeff-Com:  0.719D-02-0.104D-02-0.317D-02 0.454D-03-0.136D-01 0.420D-01
 Coeff-Com:  0.354D-01 0.147D-01-0.323D-01-0.880D+00-0.452D+01 0.552D+01
 Coeff-Com:  0.831D+00
 Coeff-En:   0.000D+00 0.000D+00 0.000D+00 0.000D+00 0.000D+00 0.000D+00
 Coeff-En:   0.000D+00 0.000D+00 0.000D+00 0.000D+00 0.000D+00 0.483D-01
 Coeff-En:   0.952D+00
 Coeff:      0.715D-02-0.104D-02-0.315D-02 0.452D-03-0.135D-01 0.418D-01
 Coeff:      0.352D-01 0.146D-01-0.321D-01-0.875D+00-0.449D+01 0.548D+01
 Coeff:      0.832D+00
 Gap=     0.108 Goal=   None    Shift=    0.000
 RMSDP=4.03D-04 MaxDP=2.32D-02 DE=-4.37D-04 OVMax= 5.19D-02

 Cycle  14  Pass 1  IDiag  1:
 E= -1205.61440280029     Delta-E=        0.001634602670 Rises=F Damp=F
 DIIS: error= 1.98D-03 at cycle  14 NSaved=  14.
 NSaved=14 IEnMin=13 EnMin= -1205.61603740296     IErMin=13 ErrMin= 5.92D-04
 ErrMax= 1.98D-03  0.00D+00 EMaxC= 1.00D-01 BMatC= 2.67D-03 BMatP= 3.07D-04
 IDIUse=3 WtCom= 9.94D-01 WtEn= 5.92D-03
 Coeff-Com: -0.778D-03-0.624D-03-0.132D-02 0.162D-03-0.191D-02-0.295D-03
 Coeff-Com:  0.159D-01 0.613D-01 0.172D+00-0.114D+00-0.187D+01 0.182D+01
 Coeff-Com:  0.699D+00 0.211D+00
 Coeff-En:   0.000D+00 0.000D+00 0.000D+00 0.000D+00 0.000D+00 0.000D+00
 Coeff-En:   0.000D+00 0.000D+00 0.000D+00 0.000D+00 0.000D+00 0.000D+00
 Coeff-En:   0.706D+00 0.294D+00
 Coeff:     -0.773D-03-0.620D-03-0.131D-02 0.161D-03-0.190D-02-0.294D-03
 Coeff:      0.158D-01 0.610D-01 0.171D+00-0.113D+00-0.185D+01 0.181D+01
 Coeff:      0.699D+00 0.212D+00
 Gap=     0.134 Goal=   None    Shift=    0.000
 RMSDP=3.39D-04 MaxDP=1.94D-02 DE= 1.63D-03 OVMax= 4.91D-02

 Cycle  15  Pass 1  IDiag  1:
 E= -1205.61653545395     Delta-E=       -0.002132653662 Rises=F Damp=F
 DIIS: error= 4.86D-04 at cycle  15 NSaved=  15.
 NSaved=15 IEnMin=15 EnMin= -1205.61653545395     IErMin=15 ErrMin= 4.86D-04
 ErrMax= 4.86D-04  0.00D+00 EMaxC= 1.00D-01 BMatC= 1.96D-04 BMatP= 3.07D-04
 IDIUse=3 WtCom= 9.95D-01 WtEn= 4.86D-03
 Coeff-Com:  0.273D-03-0.592D-03-0.365D-03 0.102D-03-0.172D-02-0.396D-02
 Coeff-Com: -0.343D-02 0.229D-02 0.362D-01-0.494D-01-0.767D+00 0.749D+00
 Coeff-Com:  0.359D+00 0.197D+00 0.482D+00
 Coeff-En:   0.000D+00 0.000D+00 0.000D+00 0.000D+00 0.000D+00 0.000D+00
 Coeff-En:   0.000D+00 0.000D+00 0.000D+00 0.000D+00 0.000D+00 0.000D+00
 Coeff-En:   0.000D+00 0.208D+00 0.792D+00
 Coeff:      0.271D-03-0.589D-03-0.363D-03 0.101D-03-0.171D-02-0.394D-02
 Coeff:     -0.342D-02 0.227D-02 0.360D-01-0.492D-01-0.763D+00 0.745D+00
 Coeff:      0.358D+00 0.197D+00 0.484D+00
 Gap=     0.106 Goal=   None    Shift=    0.000
 RMSDP=1.07D-04 MaxDP=6.11D-03 DE=-2.13D-03 OVMax= 1.45D-02

 Cycle  16  Pass 1  IDiag  1:
 E= -1205.61697259588     Delta-E=       -0.000437141930 Rises=F Damp=F
 DIIS: error= 1.67D-04 at cycle  16 NSaved=  16.
 NSaved=16 IEnMin=16 EnMin= -1205.61697259588     IErMin=16 ErrMin= 1.67D-04
 ErrMax= 1.67D-04  0.00D+00 EMaxC= 1.00D-01 BMatC= 2.40D-05 BMatP= 1.96D-04
 IDIUse=3 WtCom= 9.98D-01 WtEn= 1.67D-03
 Coeff-Com: -0.177D-03-0.156D-03-0.134D-04 0.542D-05 0.331D-03-0.307D-02
 Coeff-Com: -0.438D-02-0.894D-02-0.531D-02-0.721D-02-0.111D+00-0.595D-02
 Coeff-Com:  0.101D+00 0.850D-01 0.286D+00 0.674D+00
 Coeff-En:   0.000D+00 0.000D+00 0.000D+00 0.000D+00 0.000D+00 0.000D+00
 Coeff-En:   0.000D+00 0.000D+00 0.000D+00 0.000D+00 0.000D+00 0.000D+00
 Coeff-En:   0.000D+00 0.000D+00 0.000D+00 0.100D+01
 Coeff:     -0.176D-03-0.155D-03-0.134D-04 0.541D-05 0.330D-03-0.306D-02
 Coeff:     -0.438D-02-0.893D-02-0.530D-02-0.720D-02-0.111D+00-0.594D-02
 Coeff:      0.101D+00 0.849D-01 0.286D+00 0.674D+00
 Gap=     0.104 Goal=   None    Shift=    0.000
 RMSDP=3.14D-05 MaxDP=1.83D-03 DE=-4.37D-04 OVMax= 4.56D-03

 Cycle  17  Pass 1  IDiag  1:
 E= -1205.61697171962     Delta-E=        0.000000876261 Rises=F Damp=F
 DIIS: error= 1.94D-04 at cycle  17 NSaved=  17.
 NSaved=17 IEnMin=16 EnMin= -1205.61697259588     IErMin=16 ErrMin= 1.67D-04
 ErrMax= 1.94D-04  0.00D+00 EMaxC= 1.00D-01 BMatC= 2.42D-05 BMatP= 2.40D-05
 IDIUse=3 WtCom= 9.98D-01 WtEn= 1.67D-03
 Coeff-Com: -0.416D-03-0.871D-05 0.680D-04-0.876D-05 0.615D-03-0.189D-02
 Coeff-Com: -0.103D-02-0.158D-02 0.197D-02 0.454D-02-0.357D-01-0.788D-01
 Coeff-Com:  0.560D-01 0.133D-01 0.152D+00 0.356D+00 0.535D+00
 Coeff-En:   0.000D+00 0.000D+00 0.000D+00 0.000D+00 0.000D+00 0.000D+00
 Coeff-En:   0.000D+00 0.000D+00 0.000D+00 0.000D+00 0.000D+00 0.000D+00
 Coeff-En:   0.000D+00 0.000D+00 0.000D+00 0.521D+00 0.479D+00
 Coeff:     -0.415D-03-0.869D-05 0.679D-04-0.875D-05 0.614D-03-0.189D-02
 Coeff:     -0.103D-02-0.158D-02 0.197D-02 0.454D-02-0.357D-01-0.787D-01
 Coeff:      0.559D-01 0.133D-01 0.152D+00 0.356D+00 0.535D+00
 Gap=     0.105 Goal=   None    Shift=    0.000
 RMSDP=1.64D-05 MaxDP=1.25D-03 DE= 8.76D-07 OVMax= 1.97D-03

 Cycle  18  Pass 1  IDiag  1:
 E= -1205.61698717645     Delta-E=       -0.000015456829 Rises=F Damp=F
 DIIS: error= 3.24D-05 at cycle  18 NSaved=  18.
 NSaved=18 IEnMin=18 EnMin= -1205.61698717645     IErMin=18 ErrMin= 3.24D-05
 ErrMax= 3.24D-05  0.00D+00 EMaxC= 1.00D-01 BMatC= 6.49D-07 BMatP= 2.40D-05
 IDIUse=1 WtCom= 1.00D+00 WtEn= 0.00D+00
 Coeff-Com: -0.151D-03 0.464D-04 0.168D-04-0.858D-05 0.239D-03-0.292D-03
 Coeff-Com:  0.832D-05 0.397D-03 0.789D-03 0.342D-02-0.255D-01-0.165D-01
 Coeff-Com:  0.234D-01-0.556D-02 0.360D-01 0.573D-01 0.189D+00 0.737D+00
 Coeff:     -0.151D-03 0.464D-04 0.168D-04-0.858D-05 0.239D-03-0.292D-03
 Coeff:      0.832D-05 0.397D-03 0.789D-03 0.342D-02-0.255D-01-0.165D-01
 Coeff:      0.234D-01-0.556D-02 0.360D-01 0.573D-01 0.189D+00 0.737D+00
 Gap=     0.105 Goal=   None    Shift=    0.000
 RMSDP=3.81D-06 MaxDP=3.56D-04 DE=-1.55D-05 OVMax= 3.91D-04

 Cycle  19  Pass 1  IDiag  1:
 E= -1205.61698744085     Delta-E=       -0.000000264398 Rises=F Damp=F
 DIIS: error= 1.17D-05 at cycle  19 NSaved=  19.
 NSaved=19 IEnMin=19 EnMin= -1205.61698744085     IErMin=19 ErrMin= 1.17D-05
 ErrMax= 1.17D-05  0.00D+00 EMaxC= 1.00D-01 BMatC= 7.65D-08 BMatP= 6.49D-07
 IDIUse=1 WtCom= 1.00D+00 WtEn= 0.00D+00
 Coeff-Com: -0.440D-04 0.710D-05 0.117D-04-0.158D-05 0.445D-04-0.159D-04
 Coeff-Com:  0.819D-04 0.509D-03 0.192D-03 0.194D-02-0.106D-01 0.513D-02
 Coeff-Com:  0.536D-02-0.153D-02-0.222D-02-0.129D-01 0.151D-01 0.360D+00
 Coeff-Com:  0.639D+00
 Coeff:     -0.440D-04 0.710D-05 0.117D-04-0.158D-05 0.445D-04-0.159D-04
 Coeff:      0.819D-04 0.509D-03 0.192D-03 0.194D-02-0.106D-01 0.513D-02
 Coeff:      0.536D-02-0.153D-02-0.222D-02-0.129D-01 0.151D-01 0.360D+00
 Coeff:      0.639D+00
 Gap=     0.105 Goal=   None    Shift=    0.000
 RMSDP=3.74D-07 MaxDP=2.25D-05 DE=-2.64D-07 OVMax= 4.34D-05

 Cycle  20  Pass 1  IDiag  1:
 E= -1205.61698746254     Delta-E=       -0.000000021686 Rises=F Damp=F
 DIIS: error= 6.54D-06 at cycle  20 NSaved=  20.
 NSaved=20 IEnMin=20 EnMin= -1205.61698746254     IErMin=20 ErrMin= 6.54D-06
 ErrMax= 6.54D-06  0.00D+00 EMaxC= 1.00D-01 BMatC= 3.42D-08 BMatP= 7.65D-08
 IDIUse=1 WtCom= 1.00D+00 WtEn= 0.00D+00
 Coeff-Com: -0.364D-05 0.184D-05 0.246D-05-0.281D-06 0.273D-05 0.682D-05
 Coeff-Com: -0.204D-04 0.557D-04-0.301D-03 0.493D-03-0.270D-02 0.364D-02
 Coeff-Com:  0.352D-03 0.821D-03-0.362D-02-0.611D-02-0.613D-03 0.102D+00
 Coeff-Com:  0.270D+00 0.636D+00
 Coeff:     -0.364D-05 0.184D-05 0.246D-05-0.281D-06 0.273D-05 0.682D-05
 Coeff:     -0.204D-04 0.557D-04-0.301D-03 0.493D-03-0.270D-02 0.364D-02
 Coeff:      0.352D-03 0.821D-03-0.362D-02-0.611D-02-0.613D-03 0.102D+00
 Coeff:      0.270D+00 0.636D+00
 Gap=     0.105 Goal=   None    Shift=    0.000
 RMSDP=9.27D-07 MaxDP=5.09D-05 DE=-2.17D-08 OVMax= 1.22D-04

 Cycle  21  Pass 1  IDiag  1:
 E= -1205.61698749504     Delta-E=       -0.000000032502 Rises=F Damp=F
 DIIS: error= 4.18D-07 at cycle  21 NSaved=  20.
 NSaved=20 IEnMin=20 EnMin= -1205.61698749504     IErMin=20 ErrMin= 4.18D-07
 ErrMax= 4.18D-07  0.00D+00 EMaxC= 1.00D-01 BMatC= 1.29D-10 BMatP= 3.42D-08
 IDIUse=1 WtCom= 1.00D+00 WtEn= 0.00D+00
 Coeff-Com: -0.732D-06-0.102D-06 0.185D-06 0.445D-06-0.243D-06-0.195D-04
 Coeff-Com:  0.477D-05-0.156D-03 0.136D-03-0.945D-03 0.156D-02-0.152D-04
 Coeff-Com:  0.483D-03-0.138D-02-0.209D-02-0.138D-02 0.336D-01 0.101D+00
 Coeff-Com:  0.315D+00 0.554D+00
 Coeff:     -0.732D-06-0.102D-06 0.185D-06 0.445D-06-0.243D-06-0.195D-04
 Coeff:      0.477D-05-0.156D-03 0.136D-03-0.945D-03 0.156D-02-0.152D-04
 Coeff:      0.483D-03-0.138D-02-0.209D-02-0.138D-02 0.336D-01 0.101D+00
 Coeff:      0.315D+00 0.554D+00
 Gap=     0.105 Goal=   None    Shift=    0.000
 RMSDP=3.78D-08 MaxDP=1.98D-06 DE=-3.25D-08 OVMax= 3.99D-06

 Cycle  22  Pass 1  IDiag  1:
 E= -1205.61698749489     Delta-E=        0.000000000152 Rises=F Damp=F
 DIIS: error= 6.62D-07 at cycle  22 NSaved=  20.
 NSaved=20 IEnMin=19 EnMin= -1205.61698749504     IErMin=19 ErrMin= 4.18D-07
 ErrMax= 6.62D-07  0.00D+00 EMaxC= 1.00D-01 BMatC= 2.94D-10 BMatP= 1.29D-10
 IDIUse=1 WtCom= 1.00D+00 WtEn= 0.00D+00
 Coeff-Com:  0.209D-06-0.111D-06 0.186D-08-0.244D-05-0.798D-05 0.609D-06
 Coeff-Com: -0.269D-04 0.309D-04-0.225D-03 0.368D-03 0.262D-04 0.737D-04
 Coeff-Com: -0.151D-03-0.655D-03-0.134D-02 0.661D-02 0.201D-01 0.876D-01
 Coeff-Com:  0.232D+00 0.656D+00
 Coeff:      0.209D-06-0.111D-06 0.186D-08-0.244D-05-0.798D-05 0.609D-06
 Coeff:     -0.269D-04 0.309D-04-0.225D-03 0.368D-03 0.262D-04 0.737D-04
 Coeff:     -0.151D-03-0.655D-03-0.134D-02 0.661D-02 0.201D-01 0.876D-01
 Coeff:      0.232D+00 0.656D+00
 Gap=     0.105 Goal=   None    Shift=    0.000
 RMSDP=6.73D-08 MaxDP=3.76D-06 DE= 1.52D-10 OVMax= 8.88D-06

 Cycle  23  Pass 1  IDiag  1:
 E= -1205.61698749512     Delta-E=       -0.000000000232 Rises=F Damp=F
 DIIS: error= 1.46D-07 at cycle  23 NSaved=  20.
 NSaved=20 IEnMin=20 EnMin= -1205.61698749512     IErMin=20 ErrMin= 1.46D-07
 ErrMax= 1.46D-07  0.00D+00 EMaxC= 1.00D-01 BMatC= 1.33D-11 BMatP= 1.29D-10
 IDIUse=1 WtCom= 1.00D+00 WtEn= 0.00D+00
 Coeff-Com:  0.884D-07 0.121D-07-0.146D-05-0.258D-05 0.166D-05-0.293D-05
 Coeff-Com:  0.126D-04-0.771D-04 0.110D-03 0.276D-04 0.927D-06 0.745D-05
 Coeff-Com: -0.292D-03-0.747D-03 0.184D-02 0.521D-02 0.279D-01 0.780D-01
 Coeff-Com:  0.318D+00 0.570D+00
 Coeff:      0.884D-07 0.121D-07-0.146D-05-0.258D-05 0.166D-05-0.293D-05
 Coeff:      0.126D-04-0.771D-04 0.110D-03 0.276D-04 0.927D-06 0.745D-05
 Coeff:     -0.292D-03-0.747D-03 0.184D-02 0.521D-02 0.279D-01 0.780D-01
 Coeff:      0.318D+00 0.570D+00
 Gap=     0.105 Goal=   None    Shift=    0.000
 RMSDP=1.77D-08 MaxDP=9.73D-07 DE=-2.32D-10 OVMax= 2.33D-06

 Cycle  24  Pass 1  IDiag  1:
 E= -1205.61698749516     Delta-E=       -0.000000000044 Rises=F Damp=F
 DIIS: error= 9.72D-09 at cycle  24 NSaved=  20.
 NSaved=20 IEnMin=20 EnMin= -1205.61698749516     IErMin=20 ErrMin= 9.72D-09
 ErrMax= 9.72D-09  0.00D+00 EMaxC= 1.00D-01 BMatC= 5.26D-14 BMatP= 1.33D-11
 IDIUse=1 WtCom= 1.00D+00 WtEn= 0.00D+00
 Coeff-Com:  0.249D-07-0.364D-06-0.404D-06 0.685D-06-0.267D-06 0.148D-05
 Coeff-Com: -0.251D-04 0.329D-04 0.109D-04-0.276D-05 0.116D-04-0.834D-04
 Coeff-Com: -0.250D-03 0.195D-03 0.689D-03 0.614D-02 0.163D-01 0.814D-01
 Coeff-Com:  0.279D+00 0.617D+00
 Coeff:      0.249D-07-0.364D-06-0.404D-06 0.685D-06-0.267D-06 0.148D-05
 Coeff:     -0.251D-04 0.329D-04 0.109D-04-0.276D-05 0.116D-04-0.834D-04
 Coeff:     -0.250D-03 0.195D-03 0.689D-03 0.614D-02 0.163D-01 0.814D-01
 Coeff:      0.279D+00 0.617D+00
 Gap=     0.105 Goal=   None    Shift=    0.000
 RMSDP=9.97D-10 MaxDP=9.19D-08 DE=-4.41D-11 OVMax= 9.99D-08

 SCF Done:  E(RB-P86) =  -1205.61698750     A.U. after   24 cycles
            NFock= 24  Conv=0.10D-08     -V/T= 2.2991
 KE= 9.280248992860D+02 PE=-3.834700747906D+03 EE= 1.151680399256D+03
 Leave Link  502 at Tue Jul  4 10:47:57 2023, MaxMem=  2147483648 cpu:             602.6 elap:             111.2
 (Enter /home/pcmt/gaussian/g16.C.01/g16/l601.exe)
 Copying SCF densities to generalized density rwf, IOpCl= 0 IROHF=0.

 **********************************************************************

            Population analysis using the SCF Density.

 **********************************************************************

 Orbital symmetries:
       Occupied  (A) (A) (A) (A) (A) (A) (A) (A) (A) (A) (A) (A)
                 (A) (A) (A) (A) (A) (A) (A) (A) (A) (A) (A) (A)
                 (A) (A) (A) (A) (A) (A) (A) (A) (A) (A) (A) (A)
                 (A) (A) (A) (A) (A) (A)
       Virtual   (A) (A) (A) (A) (A) (A) (A) (A) (A) (A) (A) (A)
                 (A) (A) (A) (A) (A) (A) (A) (A) (A) (A) (A) (A)
                 (A) (A) (A) (A) (A) (A) (A) (A) (A) (A) (A) (A)
                 (A) (A) (A) (A) (A) (A) (A) (A) (A) (A) (A) (A)
                 (A) (A) (A) (A) (A) (A) (A) (A) (A) (A) (A) (A)
                 (A) (A) (A) (A) (A) (A) (A) (A) (A) (A) (A) (A)
                 (A) (A) (A) (A) (A) (A) (A) (A) (A) (A) (A) (A)
                 (A) (A) (A) (A) (A) (A) (A) (A) (A) (A) (A) (A)
                 (A) (A) (A) (A) (A) (A) (A) (A) (A) (A) (A) (A)
                 (A) (A) (A) (A) (A) (A) (A) (A) (A) (A) (A) (A)
                 (A) (A) (A) (A) (A) (A) (A) (A) (A) (A) (A) (A)
                 (A) (A) (A) (A) (A) (A) (A) (A) (A) (A) (A) (A)
                 (A) (A) (A) (A) (A) (A) (A) (A) (A) (A) (A) (A)
                 (A) (A) (A) (A) (A) (A) (A) (A) (A) (A) (A) (A)
                 (A) (A) (A) (A) (A) (A) (A) (A) (A) (A) (A) (A)
                 (A) (A) (A) (A) (A) (A) (A) (A) (A) (A) (A) (A)
                 (A) (A) (A) (A) (A) (A) (A) (A) (A) (A) (A) (A)
                 (A) (A) (A) (A) (A) (A) (A) (A) (A) (A) (A) (A)
                 (A) (A) (A) (A) (A) (A) (A) (A) (A) (A) (A) (A)
                 (A) (A) (A) (A) (A) (A) (A) (A) (A) (A) (A) (A)
                 (A) (A)
 The electronic state is 1-A.
 Alpha  occ. eigenvalues -- -100.64025 -18.87641 -18.77788 -18.75735 -18.73896
 Alpha  occ. eigenvalues --  -11.08138  -9.10509  -7.15116  -7.15000  -7.13295
 Alpha  occ. eigenvalues --   -6.92245  -6.92101  -6.92005  -3.50946  -3.50891
 Alpha  occ. eigenvalues --   -3.50037  -3.49915  -3.49264  -1.71006  -1.03440
 Alpha  occ. eigenvalues --   -0.97630  -0.91792  -0.88175  -0.83190  -0.79334
 Alpha  occ. eigenvalues --   -0.67639  -0.65611  -0.58732  -0.46691  -0.43724
 Alpha  occ. eigenvalues --   -0.41323  -0.37501  -0.31903  -0.30793  -0.28530
 Alpha  occ. eigenvalues --   -0.28172  -0.28038  -0.27558  -0.25202  -0.24821
 Alpha  occ. eigenvalues --   -0.23214  -0.22191
 Alpha virt. eigenvalues --   -0.11697  -0.10573  -0.10195  -0.10130  -0.09115
 Alpha virt. eigenvalues --   -0.07590  -0.06790  -0.05792  -0.02178  -0.01166
 Alpha virt. eigenvalues --   -0.00776   0.00986   0.01140   0.02582   0.05554
 Alpha virt. eigenvalues --    0.05614   0.06596   0.07494   0.09468   0.09792
 Alpha virt. eigenvalues --    0.12083   0.19049   0.21813   0.23957   0.25901
 Alpha virt. eigenvalues --    0.25962   0.26300   0.26653   0.27775   0.28845
 Alpha virt. eigenvalues --    0.29261   0.31329   0.31936   0.33250   0.35957
 Alpha virt. eigenvalues --    0.37341   0.38037   0.38657   0.39587   0.41411
 Alpha virt. eigenvalues --    0.41829   0.43859   0.45283   0.45901   0.46044
 Alpha virt. eigenvalues --    0.48404   0.50057   0.51181   0.52880   0.55141
 Alpha virt. eigenvalues --    0.56146   0.58166   0.58926   0.62050   0.63085
 Alpha virt. eigenvalues --    0.64464   0.65751   0.67327   0.68207   0.69443
 Alpha virt. eigenvalues --    0.72560   0.74025   0.79354   0.84123   0.91079
 Alpha virt. eigenvalues --    0.98910   1.02521   1.03566   1.05069   1.07033
 Alpha virt. eigenvalues --    1.09746   1.10863   1.11022   1.12562   1.13517
 Alpha virt. eigenvalues --    1.15394   1.16660   1.18811   1.20051   1.21108
 Alpha virt. eigenvalues --    1.23278   1.24545   1.26008   1.29348   1.30887
 Alpha virt. eigenvalues --    1.36310   1.39736   1.40835   1.42859   1.44739
 Alpha virt. eigenvalues --    1.47047   1.52142   1.54884   1.55371   1.59052
 Alpha virt. eigenvalues --    1.59638   1.61324   1.64064   1.66802   1.68371
 Alpha virt. eigenvalues --    1.71855   1.72738   1.74723   1.76877   1.79693
 Alpha virt. eigenvalues --    1.82769   1.83442   1.86722   1.87805   1.90129
 Alpha virt. eigenvalues --    1.90826   1.91501   1.93165   1.96355   1.98842
 Alpha virt. eigenvalues --    2.06257   2.07134   2.07770   2.08156   2.09234
 Alpha virt. eigenvalues --    2.10011   2.12383   2.14504   2.15295   2.15909
 Alpha virt. eigenvalues --    2.21211   2.21972   2.22866   2.23861   2.24844
 Alpha virt. eigenvalues --    2.27152   2.30136   2.31023   2.32833   2.41900
 Alpha virt. eigenvalues --    2.45975   2.47114   2.47330   2.52543   2.54085
 Alpha virt. eigenvalues --    2.60466   2.62556   2.64866   2.66124   2.69743
 Alpha virt. eigenvalues --    2.81658   2.86410   2.88963   2.95378   3.00581
 Alpha virt. eigenvalues --    3.17298   3.36480   3.47843   3.59793   3.68658
 Alpha virt. eigenvalues --    3.69124   3.70885   3.74034   3.82048   3.84603
 Alpha virt. eigenvalues --    3.86121   3.88338   4.02674   4.08475   4.27770
 Alpha virt. eigenvalues --    4.91079   5.00066   5.00701   5.02158   5.02643
 Alpha virt. eigenvalues --    5.04141   5.04977   5.05895   5.08211   5.10720
 Alpha virt. eigenvalues --    5.11844   5.13029   5.14404   5.15714   5.17073
 Alpha virt. eigenvalues --    5.19042   5.21064   5.22681   5.28219   5.30213
 Alpha virt. eigenvalues --    5.31292   5.34025   5.38532   5.43522   5.78303
 Alpha virt. eigenvalues --    5.99662   6.04825   6.10132   6.12095   6.13989
 Alpha virt. eigenvalues --    6.15621   6.16005   6.19709   6.21449   6.22661
 Alpha virt. eigenvalues --    6.29074   6.33940   6.37288   6.41904   6.48170
 Alpha virt. eigenvalues --    6.58299   6.60511   6.66902   6.69924   6.74957
 Alpha virt. eigenvalues --    6.79925   6.81341   6.91792   6.98634   7.13200
 Alpha virt. eigenvalues --    7.25066   7.48131   8.11775   8.17946   8.21703
 Alpha virt. eigenvalues --    8.53267   8.91880  10.58608  10.59245  10.80291
 Alpha virt. eigenvalues --   24.92371  29.31486  29.32576  29.49358  42.97828
 Alpha virt. eigenvalues --   43.18579  43.38808  43.54867  54.08587  70.23115
 Alpha virt. eigenvalues --   70.23349  70.33474 142.61803 142.62715 142.81231
 Alpha virt. eigenvalues --  202.59838 626.11375
     Molecular Orbital Coefficients:
                           1         2         3         4         5
                           O         O         O         O         O
     Eigenvalues --  -100.64025 -18.87641 -18.77788 -18.75735 -18.73896
   1 1   Pa 1S         -0.00000  -0.00000  -0.00000  -0.00000  -0.00000
   2        2S         -0.00001  -0.00001  -0.00017  -0.00006  -0.00016
   3        3S          0.00000   0.00000   0.00001   0.00000   0.00001
   4        4S          0.00001   0.00003   0.00038   0.00013   0.00036
   5        5S         -0.00003  -0.00010  -0.00147  -0.00051  -0.00153
   6        6S          0.00002   0.00016   0.00288   0.00100   0.00333
[...]
     9  H    0.322692
    10  O   -0.429614
 Sum of Mulliken charges =  -0.00000
 Mulliken charges with hydrogens summed into heavy atoms:
               1
     1  Pa   1.317544
     2  O   -0.286719
     3  O   -0.258172
     4  Cl  -0.451052
     6  O    0.108013
    10  O   -0.429614
 Electronic spatial extent (au):  <R**2>=           1256.8614
 Charge=             -0.0000 electrons
 Dipole moment (field-independent basis, Debye):
    X=              9.4446    Y=              1.8776    Z=             -0.9804  Tot=              9.6792
 Quadrupole moment (field-independent basis, Debye-Ang):
   XX=            -66.5799   YY=            -76.7983   ZZ=            -70.3295
   XY=              0.4256   XZ=             -3.9861   YZ=             -0.5948
 Traceless Quadrupole moment (field-independent basis, Debye-Ang):
   XX=              4.6560   YY=             -5.5624   ZZ=              0.9064
   XY=              0.4256   XZ=             -3.9861   YZ=             -0.5948
 Octapole moment (field-independent basis, Debye-Ang**2):
  XXX=            127.8062  YYY=             27.1331  ZZZ=             -0.6682  XYY=             16.9446
  XXY=             -3.1149  XXZ=            -10.0571  XZZ=             11.2604  YZZ=            -11.9730
  YYZ=              8.1545  XYZ=             -0.7414
 Hexadecapole moment (field-independent basis, Debye-Ang**3):
 XXXX=           -745.7011 YYYY=           -361.6982 ZZZZ=           -224.3565 XXXY=             -3.4204
 XXXZ=            -53.5355 YYYX=              8.4347 YYYZ=             23.7201 ZZZX=             -2.0188
 ZZZY=            -27.3264 XXYY=           -195.4562 XXZZ=           -200.9244 YYZZ=           -107.2030
 XXYZ=             -1.2739 YYXZ=             -3.6035 ZZXY=             -2.9887
 N-N= 5.493784618691D+02 E-N=-3.834700746061D+03  KE= 9.280248992860D+02
 Orbital energies and kinetic energies (alpha):
                                 1                 2
   1         O              -100.640251        137.103938
   2         O               -18.876412         29.113277
   3         O               -18.777884         29.111832
   4         O               -18.757352         29.113901
   5         O               -18.738955         29.110330
   6         O               -11.081380          4.703460
   7         O                -9.105091         21.459754
   8         O                -7.151155          5.035977
   9         O                -7.150001          5.036141
  10         O                -7.132950          5.032426
  11         O                -6.922448         20.545818
  12         O                -6.921008         20.548060
  13         O                -6.920055         20.549466
  14         O                -3.509455          6.834606
  15         O                -3.508909          6.835074
  16         O                -3.500367          6.830090
  17         O                -3.499151          6.830701
  18         O                -3.492643          6.825648
  19         O                -1.710063          6.349044
  20         O                -1.034402          2.677850
  21         O                -0.976295          2.277710
  22         O                -0.917916          2.421823
  23         O                -0.881749          3.036585
  24         O                -0.831905          2.164717
  25         O                -0.793344          2.558304
  26         O                -0.676394          3.257055
  27         O                -0.656115          3.243471
  28         O                -0.587323          1.871052
  29         O                -0.466911          2.536352
  30         O                -0.437236          2.450988
  31         O                -0.413227          3.548388
  32         O                -0.375010          2.305572
  33         O                -0.319027          2.541003
  34         O                -0.307931          2.070165
  35         O                -0.285300          2.335958
  36         O                -0.281720          2.442228
  37         O                -0.280383          3.181861
  38         O                -0.275585          4.542076
  39         O                -0.252021          3.011516
  40         O                -0.248208          7.209160
  41         O                -0.232145          2.377388
  42         O                -0.221910          2.981686
  43         V                -0.116968         89.678520
  44         V                -0.105730          5.486889
  45         V                -0.101952          5.083906
  46         V                -0.101302          5.737156
  47         V                -0.091153         88.827176
  48         V                -0.075900         26.233105
  49         V                -0.067901        154.507390
  50         V                -0.057923         16.320087
  51         V                -0.021782         12.093103
  52         V                -0.011660          7.241397
  53         V                -0.007758          3.178984
  54         V                 0.009863          2.046049
  55         V                 0.011404          1.399656
  56         V                 0.025820          1.580513
  57         V                 0.055537          1.964869
  58         V                 0.056137          1.250037
  59         V                 0.065956          5.913622
  60         V                 0.074939          3.628880
  61         V                 0.094679          2.753886
  62         V                 0.097923         16.324731
  63         V                 0.120833          1.035487
  64         V                 0.190490          0.951258
  65         V                 0.218132          1.409957
  66         V                 0.239572          1.546926
  67         V                 0.259013          1.472802
  68         V                 0.259617          1.375766
  69         V                 0.262999          1.206283
  70         V                 0.266528          1.226105
  71         V                 0.277748          1.513873
  72         V                 0.288445          1.310857
  73         V                 0.292607          1.554606
  74         V                 0.313289          1.423803
  75         V                 0.319357          1.260240
  76         V                 0.332499          2.012052
  77         V                 0.359570          2.113575
  78         V                 0.373410          1.454124
  79         V                 0.380370          1.625749
  80         V                 0.386566          1.720763
  81         V                 0.395870          1.625217
  82         V                 0.414111          1.974982
  83         V                 0.418286          1.829599
  84         V                 0.438587          1.654933
  85         V                 0.452832          1.715350
  86         V                 0.459012          1.648577
  87         V                 0.460440          1.694631
  88         V                 0.484039          1.913321
  89         V                 0.500568          1.634280
  90         V                 0.511810          2.233010
  91         V                 0.528798          1.649346
  92         V                 0.551411          1.949681
  93         V                 0.561462          1.837692
  94         V                 0.581661          1.802065
  95         V                 0.589265          1.607539
  96         V                 0.620496          1.933376
  97         V                 0.630852          2.096965
  98         V                 0.644639          2.441075
  99         V                 0.657511          2.448367
 100         V                 0.673271          2.481759
 101         V                 0.682069          1.922756
 102         V                 0.694433          1.711116
 103         V                 0.725597          1.482878
 104         V                 0.740245          1.749897
 105         V                 0.793538          1.880554
 106         V                 0.841228          1.900704
 107         V                 0.910794          3.308950
 108         V                 0.989096          3.170411
 109         V                 1.025206          2.472141
 110         V                 1.035662          2.374849
 111         V                 1.050687          2.709365
 112         V                 1.070328          2.910812
 113         V                 1.097458          2.596760
 114         V                 1.108634          2.907129
 115         V                 1.110221          3.155447
 116         V                 1.125622          3.149473
 117         V                 1.135168          3.053928
 118         V                 1.153937          2.909660
 119         V                 1.166597          2.854408
 120         V                 1.188111          2.679852
 121         V                 1.200514          2.962273
 122         V                 1.211080          2.926322
 123         V                 1.232785          2.997257
 124         V                 1.245454          2.878427
 125         V                 1.260077          2.821402
 126         V                 1.293479          3.016511
 127         V                 1.308867          2.527909
 128         V                 1.363101          2.439057
 129         V                 1.397357          2.678627
 130         V                 1.408351          3.370222
 131         V                 1.428590          2.723358
 132         V                 1.447385          3.296701
 133         V                 1.470467          3.295268
 134         V                 1.521418          3.113569
 135         V                 1.548844          3.157615
 136         V                 1.553706          3.395462
 137         V                 1.590516          3.073724
 138         V                 1.596380          3.443842
 139         V                 1.613238          3.649099
 140         V                 1.640639          3.351400
 141         V                 1.668023          3.198905
 142         V                 1.683705          3.209394
 143         V                 1.718548          3.319816
 144         V                 1.727381          3.662078
 145         V                 1.747229          4.544015
 146         V                 1.768774          4.386105
 147         V                 1.796929          3.991636
 148         V                 1.827693          3.842538
 149         V                 1.834422          3.523913
 150         V                 1.867217          4.005111
 151         V                 1.878047          3.776958
 152         V                 1.901292          4.226457
 153         V                 1.908259          3.984340
 154         V                 1.915005          4.147280
 155         V                 1.931649          3.482316
 156         V                 1.963555          2.937733
 157         V                 1.988423          3.818049
 158         V                 2.062571          3.638720
 159         V                 2.071339          3.208502
 160         V                 2.077697          3.640255
 161         V                 2.081555          3.295168
 162         V                 2.092342          3.470491
 163         V                 2.100108          3.730692
 164         V                 2.123829          3.436774
 165         V                 2.145043          3.652368
 166         V                 2.152952          3.990544
 167         V                 2.159092          4.039932
 168         V                 2.212105          5.102142
 169         V                 2.219721          4.370727
 170         V                 2.228661          6.431986
 171         V                 2.238609          5.461112
 172         V                 2.248437          4.375258
 173         V                 2.271522          4.437831
 174         V                 2.301361          4.938678
 175         V                 2.310225          5.089203
 176         V                 2.328332          5.791860
 177         V                 2.418998          4.018087
 178         V                 2.459747          4.383753
 179         V                 2.471141          6.625824
 180         V                 2.473303          4.421862
 181         V                 2.525432          4.860921
 182         V                 2.540855          5.979579
 183         V                 2.604661          6.775637
 184         V                 2.625563          6.862277
 185         V                 2.648660          6.114968
 186         V                 2.661238          6.094321
 187         V                 2.697432          6.676570
 188         V                 2.816582          7.005484
 189         V                 2.864101          6.776793
 190         V                 2.889628          6.669119
 191         V                 2.953777          6.832386
 192         V                 3.005809          7.425719
 193         V                 3.172975          7.450665
 194         V                 3.364796          8.168709
 195         V                 3.478427          6.336001
 196         V                 3.597931          8.336577
 197         V                 3.686581          7.071001
 198         V                 3.691239          7.916517
 199         V                 3.708851          8.506226
 200         V                 3.740340          8.247411
 201         V                 3.820483          9.544728
 202         V                 3.846026          9.498953
 203         V                 3.861208          8.765173
 204         V                 3.883384          9.075213
 205         V                 4.026738          9.580063
 206         V                 4.084746          9.919610
 207         V                 4.277701          9.078347
 208         V                 4.910790          6.537016
 209         V                 5.000659          6.451974
 210         V                 5.007005          6.497124
 211         V                 5.021576          6.449424
 212         V                 5.026430          6.541062
 213         V                 5.041413          6.456072
 214         V                 5.049773          6.467351
 215         V                 5.058946          6.707505
 216         V                 5.082112          6.815858
 217         V                 5.107198          6.595834
 218         V                 5.118440          6.707967
 219         V                 5.130290          6.750276
 220         V                 5.144036          6.740447
 221         V                 5.157136          6.837606
 222         V                 5.170733          6.904811
 223         V                 5.190420          6.828158
 224         V                 5.210638          6.919351
 225         V                 5.226809          6.954141
 226         V                 5.282192          7.095304
 227         V                 5.302126          7.383321
 228         V                 5.312918          6.951550
 229         V                 5.340247          7.448140
 230         V                 5.385325          7.334980
 231         V                 5.435221          7.212696
 232         V                 5.783034          8.515133
 233         V                 5.996617          9.099771
 234         V                 6.048252         10.030259
 235         V                 6.101324          9.197504
 236         V                 6.120954         10.410847
 237         V                 6.139889          9.340213
 238         V                 6.156209          9.462129
 239         V                 6.160050          9.376148
 240         V                 6.197093          9.408552
 241         V                 6.214491          9.399640
 242         V                 6.226607          9.399592
 243         V                 6.290736          9.400508
 244         V                 6.339402          9.440319
 245         V                 6.372885          9.748336
 246         V                 6.419042          9.623209
 247         V                 6.481703          9.993608
 248         V                 6.582994          9.743735
 249         V                 6.605108          9.699649
 250         V                 6.669016         10.579949
 251         V                 6.699244          9.562048
 252         V                 6.749574         10.082844
 253         V                 6.799250         10.427737
 254         V                 6.813405         10.099704
 255         V                 6.917919          9.829784
 256         V                 6.986338         10.359884
 257         V                 7.131996         13.690839
 258         V                 7.250661         13.164608
 259         V                 7.481312         13.727942
 260         V                 8.117750         15.810850
 261         V                 8.179456         15.822331
 262         V                 8.217026         15.814094
 263         V                 8.532672         16.081510
 264         V                 8.918804         16.235240
 265         V                10.586081         33.478773
 266         V                10.592454         33.479310
 267         V                10.802911         33.463360
 268         V                24.923712         44.415282
 269         V                29.314859         36.024689
 270         V                29.325760         36.030137
 271         V                29.493577         36.177360
 272         V                42.978277        108.457042
 273         V                43.185795        108.540256
 274         V                43.388078        108.738202
 275         V                43.548668        108.888177
 276         V                54.085866         39.965679
 277         V                70.231146         83.944202
 278         V                70.233487         83.952650
 279         V                70.334741         84.124545
 280         V               142.618027        242.419712
 281         V               142.627148        242.430507
 282         V               142.812306        242.660997
 283         V               202.598383        130.071529
 284         V               626.113748       1034.487425
 Total kinetic energy from orbitals= 9.280248992860D+02
 No NMR shielding tensors so no spin-rotation constants.
 Leave Link  601 at Tue Jul  4 10:47:57 2023, MaxMem=  2147483648 cpu:               3.2 elap:               0.5
 (Enter /home/pcmt/gaussian/g16.C.01/g16/l9999.exe)

 Test job not archived.
 1\1\GINC-U-0-0\SP\RBP86\Gen\Cl1H4O4Pa1\ROOT\04-Jul-2023\0\\#p BP86/GEN
  Pseudo=Read GFInput GFPrint IOP(6/7=3) Symm=(Loose) Int=(UltraFine) G
 uess=(Harris) Scf=(NoVarAcc,MaxCycle=100,conver=8)\\pao_oh2_cl_h2o-bp8
 6-cosmors-deftzvp-gp.com SGP in PCM calculation\\0,1\Pa,0,-0.168052972
 3,0.0713502877,0.81068248\O,0,1.106865753,1.5154642303,-0.1130360955\O
 ,0,-1.7508609375,0.8061609533,-0.3525061931\Cl,0,-0.8789165659,1.57242
 62607,2.9767982765\H,0,-1.8399053532,1.551565135,-0.9621979006\O,0,0.0
 35900002,-1.6318122116,-1.0053077648\H,0,-0.454015618,-1.64013079,-1.8
 381609657\H,0,0.7209541884,-2.3102638826,-1.067481605\H,0,2.0618004609
 ,1.607759217,-0.0126977997\O,0,1.1777814317,-0.8617499907,1.6856692456
 \\Version=ES64L-G16RevC.01\State=1-A\HF=-1205.6169875\RMSD=9.975e-10\D
 ipole=-0.0164842,-2.0594457,-3.2031062\Quadrupole=-2.1558539,2.427843,
 -0.2719891,2.2219594,-0.3011185,3.6759056\PG=C01 [X(Cl1H4O4Pa1)]\\@


 IN-LAWS ARE LIKE SEEDS. YOU DON'T NEED THEM
 BUT THEY COME WITH THE TOMATO.
 Job cpu time:       0 days  0 hours 10 minutes 31.2 seconds.
 Elapsed time:       0 days  0 hours  1 minutes 55.3 seconds.
 File lengths (MBytes):  RWF=     34 Int=      0 D2E=      0 Chk=      6 Scr=      1
 Normal termination of Gaussian 16 at Tue Jul  4 10:47:57 2023.
