

 Parallel Execution: Process Information
 ==============================================================================
 Rank   Node Name                              NodeID   MyNodeRank  NodeMaster
    0   u-0-8.local                               0          0          0
    1   u-0-8.local                               0          1         -1
    2   u-0-8.local                               1          0          1
    3   u-0-8.local                               1          1         -1
    4   u-0-8.local                               2          0          2
    5   u-0-8.local                               2          1         -1
    6   u-0-8.local                               3          0          3
    7   u-0-8.local                               3          1         -1
 ==============================================================================


May use up to 31228MB of RAM as shared memory on node 0
May use up to 31250MB of RAM as shared memory on node 1
May use up to 31250MB of RAM as shared memory on node 2
May use up to 31250MB of RAM as shared memory on node 3

 *******************************************************************************
 *                                                                             *
 *  --------------------------------                                           *
 *   Amsterdam Modeling Suite (AMS)              2022.103                      *
 *  --------------------------------                                           *
 *                                               r104886 2022-06-17            *
 *                                                                             *
 *                                                                             *
 *                              =================                              *
 *                              |               |                              *
 *                              |     A M S     |                              *
 *                              |               |                              *
 *                              =================                              *
 *                                                                             *
 *                                                                             *
 *   Online information and documentation:  https://www.scm.com/support/       *
 *   E-mail:  support@scm.com   info@scm.com                                   *
 *                                                                             *
 *   Scientific publications using AMS results must be properly referenced     *
 *   See the User Manuals (or the web site) for recommended citations          *
 *   The terms and conditions of the End User License Agreement apply to       *
 *   the use of AMS, https://www.scm.com/license-terms/                        *
 *                                                                             *
 **********************  x86_64_linux_intel / intelmpi  ************************
 
 Licensed to: Dr. Val?rie Vallet / Laboratoire PhLAM UMR 8523 / Villeneuve d'Ascq Cedex / FRANCE 2023-02-21 11:49:39
 SCM User ID: u10325
  
 AMS 2022.103  RunTime: Feb22-2023 21:56:45  ShM Nodes: 4  Procs: 8

 AMS jobname: ams
 AMS jobid  : 417666897

 Start   directory: /home/shaaban/ams/PhD/thiocyanate/bnN/pa_oh4_N/gp/B22/
 Results directory: /home/shaaban/ams/PhD/thiocyanate/bnN/pa_oh4_N/gp/B22/pa_oh4_N.SR.b3lyp.tz2p.opt-freq-B22.results/
 Scratch directory: /state/partition2/shaaban/929339.phlam-s-sakura/amstmp_ams_kid0.417666897/


 Communication costs MPI_COMM_WORLD:      2.855 usec per message,   0.0093 usec per 8-byte item
 Communication costs for intra-node:      0.512 usec per message,   0.0025 usec per 8-byte item

 RNG seed: 2026151641 1639716320 545211835 -1401956164 -11221987 -1291548787 927292442 960470630



                      ************************************************************************
                      *  ADF 2022.103  RunTime: Feb22-2023 21:56:46  ShM Nodes: 4  Procs: 8  *
                      ************************************************************************
  
       ***************************
       *  GEOMETRY OPTIMIZATION  *
       ***************************

Optimization Method                    Quasi Newton
Optimization Coordinates               Delocalized Coordinates
Optimize lattice                       F
 
 ------------------------------------------------------
 Convergence criteria (Hartree,Angstrom)
 ------------------------------------------------------
 Maximum gradient               0.000100000000
 Maximum rms gradient           0.000066666667
 Maximum step allowed           0.001000000000
 Maximum rms step allowed       0.000666666667
 Maximum energy change allowe   0.000012000000
 Maximum stress energy allowe   0.000500000000
 
Initial model Hessian                  Automatic Hessian
 
------------------------------------
Quasi-Newton Optimizer Parameters
------------------------------------
Hessian Update Method                  BFGS
Maximum number of steps                  250
First GDIIS cycle                          0
Maximum GDIIS vectors                      0
Trust radius (bohr)                        0.200000
Trust radius varies                        T
Constraints converged at all steps         T
Use projector                              T
 
 Rigid motions settings for: old optimizer
 Atomic rotations (x,y,z):     T T T
 Atomic translations (x,y,z):  T T T
 Tolerance:                   1.000000000000000E-006
 
--------
Geometry
--------
Formula: CH4NO4PaS
Atoms
  Index Symbol   x (angstrom)   y (angstrom)   z (angstrom)
      1     Pa     0.34601472    -0.07416228     0.03577287
      2      N     1.19508621     1.56346377    -1.33800240
      3      H    -1.96464694     1.85289063     0.46970094
      4      O    -1.31883582     1.14631278     0.42477540
      5      H     2.58473464    -0.23251484     1.96808979
      6      O     0.18639990    -1.35865954    -1.61665480
      7      H     0.15735988    -1.87462938    -2.42324305
      8      O    -0.37137603    -1.54781318     1.33768875
      9      H    -0.97669755    -2.15542285     1.76754294
     10      O     2.10237134     0.07657093     1.19788308
     11      C     1.70246910     2.70592662    -2.80845854
     12      S     2.28817809     3.77145637    -3.81741410
 
Total System Charge             0.00000
Bonding info available!
 
 
----------------
ADF Engine Input
----------------
 
 Basis
 Type TZ2P
 Core None
 End
 XC
 Hybrid B3LYP
 End
 NumericalQuality Good
 

 Title: *** (NO TITLE) ***

Bad geometry: could not add a dihedral for atom    7
 Using automatic Hessian for delocalized coordinates.
 *** GO1_GOStep1 ***



 ======================
 RI Hartree-Fock Scheme
 ======================
  
 Fit Set Quality     : GOOD
 Threshold Quality   : GOOD
 Integration Quality : GOOD
 Response Quality    : DEFAULT
 Is Range Separated  :  F
 
 RIHartreeFock Dependency: number of modified vectors:           6
  
 Hartree-Fock exchange energy:   -537.020382747365     

 Energy gradients wrt nuclear displacements
 ==========================================

     Atom      Cartesian (a.u./angstrom)
                 X         Y         Z
 ----------------------------------------
     1 Pa   -0.014410 -0.043408  0.046210
     2 N    -0.052408 -0.112646  0.149263
     3 H    -0.001605 -0.000402  0.001195
     4 O     0.001382  0.005781 -0.003393
     5 H     0.000117 -0.000103  0.000280
     6 O     0.002168  0.001952 -0.006174
     7 H    -0.000600 -0.000827  0.000289
     8 O    -0.000823 -0.000833  0.001095
     9 H    -0.001313 -0.001212  0.000866
    10 O    -0.000854  0.002230 -0.003105
    11 C     0.035126  0.090167 -0.131272
    12 S     0.033220  0.059300 -0.055252
 ----------------------------------------
 Mulliken charges used for AMS results%charges...
 
----------------------------------------------------------------------
Geometry Convergence after Step   1       (Hartree/Angstrom,Angstrom)
----------------------------------------------------------------------
current energy                               -3.18624502 Hartree
energy change                      -3.18624502     0.00001200    F
constrained gradient max            0.14927606     0.00010000    F
constrained gradient rms            0.04604714     0.00006667    F
gradient max                        0.14927550
gradient rms                        0.04604714
cart. step max                      0.09740723     0.00100000    F
cart. step rms                      0.02900207     0.00066667    F
 
 
--------
Geometry
--------
Formula: CH4NO4PaS
Atoms
  Index Symbol   x (angstrom)   y (angstrom)   z (angstrom)
      1     Pa     0.35394672    -0.05254602     0.01985947
      2      N     1.20586785     1.57711454    -1.33105991
      3      H    -1.96070275     1.86533663     0.46121550
      4      O    -1.31449314     1.15959517     0.41454672
      5      H     2.58646330    -0.22328042     1.95912145
      6      O     0.19490266    -1.33549858    -1.63226631
      7      H     0.16707028    -1.84994051    -2.43978342
      8      O    -0.35981910    -1.53188762     1.31555946
      9      H    -0.96335700    -2.14206739     1.74284712
     10      O     2.10709126     0.09024368     1.18896656
     11      C     1.67515834     2.64230040    -2.74399440
     12      S     2.23892913     3.67404915    -3.75733135
 
Total System Charge             0.00000
Bonding info available!
 
 *** GO1_GOStep2 ***



 ======================
 RI Hartree-Fock Scheme
 ======================
  
 Fit Set Quality     : GOOD
 Threshold Quality   : GOOD
 Integration Quality : GOOD
 Response Quality    : DEFAULT
 Is Range Separated  :  F
 
 RIHartreeFock Dependency: number of modified vectors:           6
  
 Hartree-Fock exchange energy:   -537.062830504536     

 Energy gradients wrt nuclear displacements
 ==========================================

     Atom      Cartesian (a.u./angstrom)
                 X         Y         Z
 ----------------------------------------
     1 Pa   -0.014146 -0.036138  0.036820
     2 N    -0.063443 -0.141993  0.194711
     3 H    -0.001052 -0.000626  0.000915
     4 O     0.002071  0.004026 -0.002731
     5 H     0.000178  0.000005  0.000170
     6 O     0.001909  0.002193 -0.003513
     7 H    -0.000464 -0.000553  0.000176
     8 O    -0.000032  0.000306  0.000031
     9 H    -0.000559 -0.000243  0.000090
    10 O    -0.001142  0.001646 -0.002663
    11 C     0.060796  0.144632 -0.200869
    12 S     0.015884  0.026745 -0.023138
 ----------------------------------------
 Mulliken charges used for AMS results%charges...

 dE(predicted):    -0.20623E-01, dE(actual):    -0.29983E-01, Trust radius:    0.400000, all in a.u.
 
----------------------------------------------------------------------
Geometry Convergence after Step   2       (Hartree/Angstrom,Angstrom)
----------------------------------------------------------------------
current energy                               -3.21622840 Hartree
energy change                      -0.02998338     0.00001200    F
constrained gradient max            0.20088040     0.00010000    F
constrained gradient rms            0.06043603     0.00006667    F
gradient max                        0.20088117
gradient rms                        0.06043603
cart. step max                      0.15452873     0.00100000    F
cart. step rms                      0.05210898     0.00066667    F
 
 
--------
Geometry
--------
Formula: CH4NO4PaS
Atoms
  Index Symbol   x (angstrom)   y (angstrom)   z (angstrom)
      1     Pa     0.36943622    -0.01948998    -0.00875068
      2      N     1.21771496     1.59556570    -1.33609304
      3      H    -1.94858824     1.89198424     0.43720831
      4      O    -1.30244635     1.18632767     0.38991534
      5      H     2.59637839    -0.20139707     1.93734791
      6      O     0.21035451    -1.30160457    -1.66080582
      7      H     0.18336746    -1.81484837    -2.46900542
      8      O    -0.34371066    -1.50384772     1.28214539
      9      H    -0.94635941    -2.11614733     1.70745710
     10      O     2.12023367     0.11621992     1.16701102
     11      C     1.61989259     2.52113613    -2.60557801
     12      S     2.15478440     3.51952042    -3.64317120
 
Total System Charge             0.00000
Bonding info available!
 
 *** GO1_GOStep3 ***



 ======================
 RI Hartree-Fock Scheme
 ======================
  
 Fit Set Quality     : GOOD
 Threshold Quality   : GOOD
 Integration Quality : GOOD
 Response Quality    : DEFAULT
 Is Range Separated  :  F
 
 RIHartreeFock Dependency: number of modified vectors:           6
  
 Hartree-Fock exchange energy:   -537.149076046121     

 Energy gradients wrt nuclear displacements
 ==========================================

     Atom      Cartesian (a.u./angstrom)
                 X         Y         Z
 ----------------------------------------
     1 Pa   -0.008860 -0.018056  0.016928
     2 N    -0.084547 -0.198250  0.280255
     3 H    -0.000399 -0.000552  0.000419
     4 O     0.001096  0.002054 -0.001100
     5 H    -0.000009  0.000079 -0.000100
     6 O     0.001019  0.000905 -0.001251
     7 H    -0.000213 -0.000026  0.000120
     8 O     0.000954  0.001366 -0.000929
     9 H    -0.000253  0.000290 -0.000416
    10 O     0.000311  0.000922 -0.000669
    11 C     0.089527  0.213519 -0.303214
    12 S     0.001374 -0.002252  0.009957
 ----------------------------------------
 Mulliken charges used for AMS results%charges...

 dE(predicted):    -0.53969E-01, dE(actual):    -0.71693E-01, Trust radius:    0.800000, all in a.u.
 
----------------------------------------------------------------------
Geometry Convergence after Step   3       (Hartree/Angstrom,Angstrom)
----------------------------------------------------------------------
current energy                               -3.28792160 Hartree
energy change                      -0.07169320     0.00001200    F
constrained gradient max            0.30327458     0.00010000    F
constrained gradient rms            0.08681909     0.00006667    F
gradient max                        0.30327492
gradient rms                        0.08681909
cart. step max                      0.21128203     0.00100000    F
cart. step rms                      0.07109799     0.00066667    F
 
 
--------
Geometry
--------
Formula: CH4NO4PaS
Atoms
  Index Symbol   x (angstrom)   y (angstrom)   z (angstrom)
      1     Pa     0.39082145     0.01983555    -0.04739123
      2      N     1.23206899     1.62388374    -1.36406671
      3      H    -1.92848989     1.92958614     0.39865716
      4      O    -1.28258937     1.22347957     0.35187898
      5      H     2.61298398    -0.16971124     1.90367231
      6      O     0.23074566    -1.26320993    -1.69856221
      7      H     0.20397995    -1.77691391    -2.50654443
      8      O    -0.32563855    -1.46666396     1.24241100
      9      H    -0.92852944    -2.07953991     1.66726961
     10      O     2.13947452     0.15045288     1.13265486
     11      C     1.54503320     2.35635408    -2.39429597
     12      S     2.04119703     3.32586604    -3.48800247
 
Total System Charge             0.00000
Bonding info available!
 
 *** GO1_GOStep4 ***



 ======================
 RI Hartree-Fock Scheme
 ======================
  
 Fit Set Quality     : GOOD
 Threshold Quality   : GOOD
 Integration Quality : GOOD
 Response Quality    : DEFAULT
 Is Range Separated  :  F
 
 RIHartreeFock Dependency: number of modified vectors:           6
  
 Hartree-Fock exchange energy:   -537.357959039359     

 Energy gradients wrt nuclear displacements
 ==========================================

     Atom      Cartesian (a.u./angstrom)
                 X         Y         Z
 ----------------------------------------
     1 Pa    0.004157  0.013251 -0.014216
     2 N    -0.056451 -0.142946  0.212900
     3 H     0.000677 -0.000415 -0.000243
     4 O    -0.003551  0.000989  0.002208
     5 H    -0.000573 -0.000063 -0.000332
     6 O    -0.000889 -0.003985 -0.001175
     7 H     0.000178  0.000829  0.000400
     8 O     0.000221 -0.000442  0.000477
     9 H    -0.000006  0.000507 -0.000586
    10 O     0.004338 -0.000046  0.003622
    11 C     0.059278  0.154500 -0.240152
    12 S    -0.007379 -0.022181  0.037097
 ----------------------------------------
 Mulliken charges used for AMS results%charges...
 Rebuilding optimization coordinates
Bad geometry: could not add a dihedral for atom    7
Bad geometry: could not add a dihedral for atom   12

 dE(predicted):    -0.12373E+00, dE(actual):    -0.11513E+00, Trust radius:    1.000000, all in a.u.
 
----------------------------------------------------------------------
Geometry Convergence after Step   4       (Hartree/Angstrom,Angstrom)
----------------------------------------------------------------------
current energy                               -3.40304962 Hartree
energy change                      -0.11512802     0.00001200    F
constrained gradient max            0.24017881     0.00010000    F
constrained gradient rms            0.06591089     0.00006667    F
gradient max                        0.24017843
gradient rms                        0.06591089
cart. step max                      0.21227618     0.00100000    F
cart. step rms                      0.06366343     0.00066667    F
 
 
--------
Geometry
--------
Formula: CH4NO4PaS
Atoms
  Index Symbol   x (angstrom)   y (angstrom)   z (angstrom)
      1     Pa     0.40719458     0.04035261    -0.07167706
      2      N     1.24260552     1.64667135    -1.39645076
      3      H    -1.89892557     1.96968626     0.35115418
      4      O    -1.25705430     1.25868616     0.31088723
      5      H     2.63395665    -0.13920121     1.87194384
      6      O     0.25338953    -1.22822371    -1.73238199
      7      H     0.22767705    -1.73766421    -2.54375171
      8      O    -0.31987346    -1.44297245     1.21727270
      9      H    -0.92555177    -2.05411392     1.64198250
     10      O     2.15633037     0.17696639     1.10132933
     11      C     1.48990597     2.22230986    -2.18201980
     12      S     1.92140297     3.16092192    -3.37060758
 
Total System Charge             0.00000
Bonding info available!
 
 *** GO1_GOStep5 ***



 ======================
 RI Hartree-Fock Scheme
 ======================
  
 Fit Set Quality     : GOOD
 Threshold Quality   : GOOD
 Integration Quality : GOOD
 Response Quality    : DEFAULT
 Is Range Separated  :  F
 
 RIHartreeFock Dependency: number of modified vectors:           7
  
 Hartree-Fock exchange energy:   -537.695463735086     

 Energy gradients wrt nuclear displacements
 ==========================================

     Atom      Cartesian (a.u./angstrom)
                 X         Y         Z
 ----------------------------------------
     1 Pa    0.020353  0.045131 -0.042938
     2 N     0.293983  0.677054 -0.920455
     3 H     0.001554 -0.000035 -0.000752
     4 O    -0.008788  0.000619  0.005237
     5 H    -0.001552 -0.000572 -0.000338
     6 O    -0.002887 -0.009372 -0.002778
     7 H     0.000459  0.001351  0.000668
     8 O    -0.001260 -0.003533  0.003156
     9 H    -0.000136  0.000454 -0.000535
    10 O     0.007997 -0.000441  0.006912
    11 C    -0.295029 -0.673699  0.899907
    12 S    -0.014695 -0.036958  0.051917
 ----------------------------------------
 Mulliken charges used for AMS results%charges...

 dE(predicted):    -0.81970E-01, dE(actual):     0.77640E-01, Trust radius:    0.144480, all in a.u.
 
----------------------------------------------------------------------
Geometry Convergence after Step   5       (Hartree/Angstrom,Angstrom)
----------------------------------------------------------------------
current energy                               -3.32540970 Hartree
energy change                       0.07763991     0.00001200    F
constrained gradient max            0.92041256     0.00010000    F
constrained gradient rms            0.27647258     0.00006667    F
gradient max                        0.92041648
gradient rms                        0.27647258
cart. step max                      0.04827458     0.00100000    F
cart. step rms                      0.01709276     0.00066667    F
 
 
--------
Geometry
--------
Formula: CH4NO4PaS
Atoms
  Index Symbol   x (angstrom)   y (angstrom)   z (angstrom)
      1     Pa     0.40331591     0.03169401    -0.06133485
      2      N     1.24078605     1.64100701    -1.38574899
      3      H    -1.90211744     1.96155870     0.36091556
      4      O    -1.26039905     1.25035695     0.32056639
      5      H     2.62866924    -0.14977479     1.88327621
      6      O     0.25072850    -1.23457765    -1.72347150
      7      H     0.22559496    -1.74313045    -2.53548843
      8      O    -0.32512632    -1.45240249     1.22551434
      9      H    -0.93126286    -2.06378839     1.64924355
     10      O     2.15135885     0.16697942     1.11265677
     11      C     1.50808631     2.26181179    -2.22956599
     12      S     1.94142339     3.20368493    -3.41888215
 
Total System Charge             0.00000
Bonding info available!
 
 *** GO1_GOStep6 ***



 ======================
 RI Hartree-Fock Scheme
 ======================
  
 Fit Set Quality     : GOOD
 Threshold Quality   : GOOD
 Integration Quality : GOOD
 Response Quality    : DEFAULT
 Is Range Separated  :  F
 
 RIHartreeFock Dependency: number of modified vectors:           7
  
 Hartree-Fock exchange energy:   -537.580828451059     

 Energy gradients wrt nuclear displacements
 ==========================================

     Atom      Cartesian (a.u./angstrom)
                 X         Y         Z
 ----------------------------------------
     1 Pa    0.015538  0.034636 -0.033280
     2 N     0.132634  0.302530 -0.408445
     3 H     0.001080  0.000101 -0.000548
     4 O    -0.006945  0.000627  0.004148
     5 H    -0.001276 -0.000579 -0.000133
     6 O    -0.002222 -0.007310 -0.002187
     7 H     0.000367  0.000980  0.000373
     8 O    -0.000719 -0.002595  0.002443
     9 H    -0.000282  0.000290 -0.000412
    10 O     0.006684 -0.000031  0.005435
    11 C    -0.137263 -0.307785  0.401943
    12 S    -0.007596 -0.020865  0.030663
 ----------------------------------------
 Mulliken charges used for AMS results%charges...

 dE(predicted):    -0.92846E-01, dE(actual):    -0.66664E-01, Trust radius:    0.144480, all in a.u.
 
----------------------------------------------------------------------
Geometry Convergence after Step   6       (Hartree/Angstrom,Angstrom)
----------------------------------------------------------------------
current energy                               -3.39207323 Hartree
energy change                      -0.06666353     0.00001200    F
constrained gradient max            0.40839681     0.00010000    F
constrained gradient rms            0.12419497     0.00006667    F
gradient max                        0.40840010
gradient rms                        0.12419497
cart. step max                      0.04970283     0.00100000    F
cart. step rms                      0.01712710     0.00066667    F
 
 
--------
Geometry
--------
Formula: CH4NO4PaS
Atoms
  Index Symbol   x (angstrom)   y (angstrom)   z (angstrom)
      1     Pa     0.39682288     0.01116821    -0.04326818
      2      N     1.23720243     1.63297743    -1.37953895
      3      H    -1.89380417     1.96052232     0.35438374
      4      O    -1.25637115     1.24483283     0.32070255
      5      H     2.63144004    -0.15585060     1.88985436
      6      O     0.25201255    -1.23835134    -1.71554719
      7      H     0.22766145    -1.74141713    -2.53133854
      8      O    -0.33849305    -1.46879203     1.24214647
      9      H    -0.94586640    -2.07859562     1.66638941
     10      O     2.14645965     0.15434774     1.12112900
     11      C     1.53008463     2.30579066    -2.25864680
     12      S     1.94390868     3.24678658    -3.46858498
 
Total System Charge             0.00000
Bonding info available!
 
 *** GO1_GOStep7 ***



 ======================
 RI Hartree-Fock Scheme
 ======================
  
 Fit Set Quality     : GOOD
 Threshold Quality   : GOOD
 Integration Quality : GOOD
 Response Quality    : DEFAULT
 Is Range Separated  :  F
 
 RIHartreeFock Dependency: number of modified vectors:           6
  
 Hartree-Fock exchange energy:   -537.490595491793     

 Energy gradients wrt nuclear displacements
 ==========================================

     Atom      Cartesian (a.u./angstrom)
                 X         Y         Z
 ----------------------------------------
     1 Pa    0.008778  0.018338 -0.018199
     2 N     0.043489  0.099292 -0.130459
     3 H     0.000485  0.000300 -0.000327
     4 O    -0.004170  0.000863  0.002150
     5 H    -0.001248 -0.000809  0.000157
     6 O    -0.001221 -0.003826 -0.001625
     7 H     0.000183  0.000402 -0.000056
     8 O     0.000048 -0.001294  0.001558
     9 H    -0.000459  0.000268 -0.000471
    10 O     0.004570  0.001167  0.002395
    11 C    -0.049178 -0.110667  0.140084
    12 S    -0.001278 -0.004033  0.004793
 ----------------------------------------
 Mulliken charges used for AMS results%charges...

 dE(predicted):    -0.18788E-01, dE(actual):    -0.24428E-01, Trust radius:    0.288960, all in a.u.
 
----------------------------------------------------------------------
Geometry Convergence after Step   7       (Hartree/Angstrom,Angstrom)
----------------------------------------------------------------------
current energy                               -3.41650154 Hartree
energy change                      -0.02442832     0.00001200    F
constrained gradient max            0.14013995     0.00010000    F
constrained gradient rms            0.04213774     0.00006667    F
gradient max                        0.14014027
gradient rms                        0.04213774
cart. step max                      0.05388438     0.00100000    F
cart. step rms                      0.01484311     0.00066667    F
 
 
--------
Geometry
--------
Formula: CH4NO4PaS
Atoms
  Index Symbol   x (angstrom)   y (angstrom)   z (angstrom)
      1     Pa     0.38994522    -0.00610385    -0.03596855
      2      N     1.22606911     1.62320735    -1.39371295
      3      H    -1.88911599     1.95694660     0.34182173
      4      O    -1.25419067     1.23873055     0.31403583
      5      H     2.63962641    -0.15242787     1.88180492
      6      O     0.24665707    -1.25276567    -1.70729766
      7      H     0.21987804    -1.75716314    -2.52223911
      8      O    -0.34646264    -1.47588773     1.25870005
      9      H    -0.95179983    -2.08270001     1.69012496
     10      O     2.14348486     0.14678306     1.11567920
     11      C     1.53832522     2.33412880    -2.28081729
     12      S     1.96864073     3.30067096    -3.46445025
 
Total System Charge             0.00000
Bonding info available!
 
 *** GO1_GOStep8 ***



 ======================
 RI Hartree-Fock Scheme
 ======================
  
 Fit Set Quality     : GOOD
 Threshold Quality   : GOOD
 Integration Quality : GOOD
 Response Quality    : DEFAULT
 Is Range Separated  :  F
 
 RIHartreeFock Dependency: number of modified vectors:           6
  
 Hartree-Fock exchange energy:   -537.449462230714     

 Energy gradients wrt nuclear displacements
 ==========================================

     Atom      Cartesian (a.u./angstrom)
                 X         Y         Z
 ----------------------------------------
     1 Pa    0.003912  0.006950 -0.008013
     2 N     0.010272  0.022694 -0.026477
     3 H     0.000306  0.000217 -0.000208
     4 O    -0.002027  0.000870  0.000732
     5 H    -0.001183 -0.001002  0.000399
     6 O    -0.000539 -0.001436 -0.001055
     7 H     0.000094  0.000201 -0.000061
     8 O     0.000653 -0.000390  0.001010
     9 H    -0.000594  0.000188 -0.000486
    10 O     0.002892  0.001782  0.000343
    11 C    -0.014207 -0.030170  0.034053
    12 S     0.000419  0.000095 -0.000237
 ----------------------------------------
 Mulliken charges used for AMS results%charges...

 dE(predicted):    -0.35315E-02, dE(actual):    -0.43495E-02, Trust radius:    0.288960, all in a.u.
 
----------------------------------------------------------------------
Geometry Convergence after Step   8       (Hartree/Angstrom,Angstrom)
----------------------------------------------------------------------
current energy                               -3.42085103 Hartree
energy change                      -0.00434949     0.00001200    F
constrained gradient max            0.03409785     0.00010000    F
constrained gradient rms            0.01020189     0.00006667    F
gradient max                        0.03409795
gradient rms                        0.01020189
cart. step max                      0.03372631     0.00100000    F
cart. step rms                      0.01069987     0.00066667    F
 
 
--------
Geometry
--------
Formula: CH4NO4PaS
Atoms
  Index Symbol   x (angstrom)   y (angstrom)   z (angstrom)
      1     Pa     0.38422579    -0.01344034    -0.03607491
      2      N     1.21945077     1.61753786    -1.40887577
      3      H    -1.89246090     1.95123551     0.33617705
      4      O    -1.25686431     1.23351288     0.30988399
      5      H     2.64627549    -0.14582372     1.87110337
      6      O     0.23928623    -1.26505028    -1.70169881
      7      H     0.20946896    -1.77365187    -2.51393873
      8      O    -0.34879067    -1.47693152     1.26691461
      9      H    -0.94973922    -2.08278870     1.70567487
     10      O     2.14046301     0.14408168     1.10774098
     11      C     1.54716400     2.35034027    -2.28885657
     12      S     1.99257837     3.33439727    -3.45036920
 
Total System Charge             0.00000
Bonding info available!
 
 *** GO1_GOStep9 ***



 ======================
 RI Hartree-Fock Scheme
 ======================
  
 Fit Set Quality     : GOOD
 Threshold Quality   : GOOD
 Integration Quality : GOOD
 Response Quality    : DEFAULT
 Is Range Separated  :  F
 
 RIHartreeFock Dependency: number of modified vectors:           6
  
 Hartree-Fock exchange energy:   -537.435583634665     

 Energy gradients wrt nuclear displacements
 ==========================================

     Atom      Cartesian (a.u./angstrom)
                 X         Y         Z
 ----------------------------------------
     1 Pa    0.001297  0.002379 -0.003825
     2 N     0.000041 -0.000920  0.003664
     3 H     0.000240  0.000205 -0.000187
     4 O    -0.000952  0.000437  0.000245
     5 H    -0.001150 -0.001018  0.000439
     6 O    -0.000284 -0.000502 -0.000553
     7 H     0.000043  0.000138 -0.000064
     8 O     0.000844 -0.000189  0.000896
     9 H    -0.000635  0.000168 -0.000487
    10 O     0.002184  0.001816 -0.000321
    11 C    -0.001953 -0.002658  0.000374
    12 S     0.000325  0.000145 -0.000181
 ----------------------------------------
 Mulliken charges used for AMS results%charges...

 dE(predicted):    -0.39352E-03, dE(actual):    -0.44530E-03, Trust radius:    0.288960, all in a.u.
 
----------------------------------------------------------------------
Geometry Convergence after Step   9       (Hartree/Angstrom,Angstrom)
----------------------------------------------------------------------
current energy                               -3.42129633 Hartree
energy change                      -0.00044530     0.00001200    F
constrained gradient max            0.00383028     0.00010000    F
constrained gradient rms            0.00131550     0.00006667    F
gradient max                        0.00383028
gradient rms                        0.00131550
cart. step max                      0.02063353     0.00100000    F
cart. step rms                      0.00775145     0.00066667    F
 
 
--------
Geometry
--------
Formula: CH4NO4PaS
Atoms
  Index Symbol   x (angstrom)   y (angstrom)   z (angstrom)
      1     Pa     0.38018417    -0.01613181    -0.03833550
      2      N     1.21482345     1.61354536    -1.42143006
      3      H    -1.89742325     1.94656260     0.33417755
      4      O    -1.26028799     1.23019080     0.30752649
      5      H     2.65199943    -0.13895204     1.86160025
      6      O     0.23320015    -1.27414433    -1.69805849
      7      H     0.20111073    -1.78702923    -2.50752495
      8      O    -0.34955773    -1.47589915     1.27032729
      9      H    -0.94614173    -2.08172811     1.71493945
     10      O     2.13821139     0.14344845     1.10079453
     11      C     1.55357247     2.35852570    -2.29049207
     12      S     2.01136646     3.35503080    -3.43584360
 
Total System Charge             0.00000
Bonding info available!
 
 *** GO1_GOStep10 ***



 ======================
 RI Hartree-Fock Scheme
 ======================
  
 Fit Set Quality     : GOOD
 Threshold Quality   : GOOD
 Integration Quality : GOOD
 Response Quality    : DEFAULT
 Is Range Separated  :  F
 
 RIHartreeFock Dependency: number of modified vectors:           6
  
 Hartree-Fock exchange energy:   -537.432320176836     

 Energy gradients wrt nuclear displacements
 ==========================================

     Atom      Cartesian (a.u./angstrom)
                 X         Y         Z
 ----------------------------------------
     1 Pa    0.000174  0.001036 -0.002423
     2 N    -0.001937 -0.005451  0.008955
     3 H     0.000229  0.000211 -0.000198
     4 O    -0.000559  0.000048  0.000167
     5 H    -0.001098 -0.000998  0.000457
     6 O    -0.000228 -0.000272 -0.000257
     7 H     0.000021  0.000118 -0.000075
     8 O     0.000850 -0.000255  0.000915
     9 H    -0.000629  0.000168 -0.000483
    10 O     0.001913  0.001681 -0.000456
    11 C     0.001083  0.003804 -0.006772
    12 S     0.000181 -0.000089  0.000172
 ----------------------------------------
 Mulliken charges used for AMS results%charges...

 dE(predicted):    -0.49524E-04, dE(actual):    -0.63856E-04, Trust radius:    0.288960, all in a.u.
 
----------------------------------------------------------------------
Geometry Convergence after Step  10       (Hartree/Angstrom,Angstrom)
----------------------------------------------------------------------
current energy                               -3.42136019 Hartree
energy change                      -0.00006386     0.00001200    F
constrained gradient max            0.00896253     0.00010000    F
constrained gradient rms            0.00232297     0.00006667    F
gradient max                        0.00896254
gradient rms                        0.00232297
cart. step max                      0.03558304     0.00100000    F
cart. step rms                      0.01451213     0.00066667    F
 
 
--------
Geometry
--------
Formula: CH4NO4PaS
Atoms
  Index Symbol   x (angstrom)   y (angstrom)   z (angstrom)
      1     Pa     0.37276342    -0.02022823    -0.04331411
      2      N     1.20509758     1.60484777    -1.44622929
      3      H    -1.90700708     1.93868540     0.33135577
      4      O    -1.26663060     1.22521748     0.30319649
      5      H     2.66478293    -0.12357650     1.84202351
      6      O     0.22232228    -1.29094330    -1.69164203
      7      H     0.18650132    -1.81222830    -2.49557720
      8      O    -0.35191764    -1.47322088     1.27491167
      9      H    -0.93942813    -2.07935766     1.73083707
     10      O     2.13408831     0.14286848     1.08720702
     11      C     1.56448474     2.37074094    -2.29031102
     12      S     2.04600040     3.39061384    -3.40477699
 
Total System Charge             0.00000
Bonding info available!
 
 *** GO1_GOStep11 ***



 ======================
 RI Hartree-Fock Scheme
 ======================
  
 Fit Set Quality     : GOOD
 Threshold Quality   : GOOD
 Integration Quality : GOOD
 Response Quality    : DEFAULT
 Is Range Separated  :  F
 
 RIHartreeFock Dependency: number of modified vectors:           6
  
 Hartree-Fock exchange energy:   -537.429878591873     

 Energy gradients wrt nuclear displacements
 ==========================================

     Atom      Cartesian (a.u./angstrom)
                 X         Y         Z
 ----------------------------------------
     1 Pa   -0.001245 -0.000469 -0.000514
     2 N    -0.002849 -0.007321  0.010139
     3 H     0.000210  0.000234 -0.000219
     4 O    -0.000097 -0.000598  0.000125
     5 H    -0.001001 -0.000954  0.000494
     6 O    -0.000186 -0.000023  0.000176
     7 H    -0.000010  0.000093 -0.000088
     8 O     0.000821 -0.000403  0.000930
     9 H    -0.000600  0.000172 -0.000463
    10 O     0.001457  0.001367 -0.000602
    11 C     0.003438  0.008331 -0.010535
    12 S     0.000063 -0.000429  0.000559
 ----------------------------------------
 Mulliken charges used for AMS results%charges...

 dE(predicted):    -0.64860E-04, dE(actual):    -0.84778E-04, Trust radius:    0.288960, all in a.u.
 
----------------------------------------------------------------------
Geometry Convergence after Step  11       (Hartree/Angstrom,Angstrom)
----------------------------------------------------------------------
current energy                               -3.42144496 Hartree
energy change                      -0.00008478     0.00001200    F
constrained gradient max            0.01055072     0.00010000    F
constrained gradient rms            0.00320009     0.00006667    F
gradient max                        0.01055073
gradient rms                        0.00320009
cart. step max                      0.03914776     0.00100000    F
cart. step rms                      0.01588618     0.00066667    F
 
 
--------
Geometry
--------
Formula: CH4NO4PaS
Atoms
  Index Symbol   x (angstrom)   y (angstrom)   z (angstrom)
      1     Pa     0.36532271    -0.02503934    -0.04894663
      2      N     1.19229915     1.59313448    -1.47427919
      3      H    -1.91522120     1.93254197     0.32796700
      4      O    -1.27157245     1.22207533     0.29765831
      5      H     2.68257538    -0.10360504     1.81817589
      6      O     0.21242008    -1.30958256    -1.68507506
      7      H     0.17357416    -1.84017292    -2.48275524
      8      O    -0.35767288    -1.46970861     1.27817295
      9      H    -0.93474450    -2.07600294     1.74682520
     10      O     2.13021400     0.14197303     1.07207227
     11      C     1.57363633     2.38074430    -2.28650537
     12      S     2.08022677     3.42706136    -3.36562923
 
Total System Charge             0.00000
Bonding info available!
 
 *** GO1_GOStep12 ***



 ======================
 RI Hartree-Fock Scheme
 ======================
  
 Fit Set Quality     : GOOD
 Threshold Quality   : GOOD
 Integration Quality : GOOD
 Response Quality    : DEFAULT
 Is Range Separated  :  F
 
 RIHartreeFock Dependency: number of modified vectors:           6
  
 Hartree-Fock exchange energy:   -537.429913102259     

 Energy gradients wrt nuclear displacements
 ==========================================

     Atom      Cartesian (a.u./angstrom)
                 X         Y         Z
 ----------------------------------------
     1 Pa   -0.001938 -0.001524  0.001177
     2 N    -0.001816 -0.004472  0.005559
     3 H     0.000185  0.000263 -0.000219
     4 O     0.000134 -0.001053  0.000098
     5 H    -0.000923 -0.000888  0.000505
     6 O    -0.000196  0.000173  0.000489
     7 H    -0.000029  0.000081 -0.000079
     8 O     0.000720 -0.000493  0.000863
     9 H    -0.000559  0.000184 -0.000433
    10 O     0.001018  0.001035 -0.000678
    11 C     0.003376  0.007353 -0.007638
    12 S     0.000028 -0.000659  0.000356
 ----------------------------------------
 Mulliken charges used for AMS results%charges...
 Rebuilding optimization coordinates
Bad geometry: could not add a dihedral for atom    7
Bad geometry: could not add a dihedral for atom   12

 dE(predicted):    -0.57197E-04, dE(actual):    -0.88721E-04, Trust radius:    0.577920, all in a.u.
 
----------------------------------------------------------------------
Geometry Convergence after Step  12       (Hartree/Angstrom,Angstrom)
----------------------------------------------------------------------
current energy                               -3.42153368 Hartree
energy change                      -0.00008872     0.00001200    F
constrained gradient max            0.00765754     0.00010000    F
constrained gradient rms            0.00232197     0.00006667    F
gradient max                        0.00765753
gradient rms                        0.00232197
cart. step max                      0.06492485     0.00100000    F
cart. step rms                      0.02269240     0.00066667    F
 
 
--------
Geometry
--------
Formula: CH4NO4PaS
Atoms
  Index Symbol   x (angstrom)   y (angstrom)   z (angstrom)
      1     Pa     0.35612679    -0.03382116    -0.05789316
      2      N     1.17169142     1.57458385    -1.51034669
      3      H    -1.92118588     1.92855229     0.31940810
      4      O    -1.27455229     1.22090833     0.28663095
      5      H     2.71093219    -0.07281698     1.78024829
      6      O     0.20151945    -1.33732227    -1.67772825
      7      H     0.15978627    -1.88068556    -2.46660355
      8      O    -0.36907972    -1.46333734     1.28247245
      9      H    -0.93205606    -2.06816185     1.76957355
     10      O     2.12654302     0.14053539     1.04908660
     11      C     1.58039646     2.38968715    -2.27646304
     12      S     2.12093588     3.47529720    -3.30070438
 
Total System Charge             0.00000
Bonding info available!
 
 *** GO1_GOStep13 ***



 ======================
 RI Hartree-Fock Scheme
 ======================
  
 Fit Set Quality     : GOOD
 Threshold Quality   : GOOD
 Integration Quality : GOOD
 Response Quality    : DEFAULT
 Is Range Separated  :  F
 
 RIHartreeFock Dependency: number of modified vectors:           6
  
 Hartree-Fock exchange energy:   -537.431869252033     

 Energy gradients wrt nuclear displacements
 ==========================================

     Atom      Cartesian (a.u./angstrom)
                 X         Y         Z
 ----------------------------------------
     1 Pa   -0.001860 -0.002730  0.002712
     2 N     0.000931  0.002472 -0.002336
     3 H     0.000143  0.000275 -0.000185
     4 O     0.000179 -0.001136  0.000013
     5 H    -0.000829 -0.000783  0.000474
     6 O    -0.000261  0.000406  0.000769
     7 H    -0.000027  0.000074 -0.000059
     8 O     0.000564 -0.000346  0.000679
     9 H    -0.000496  0.000197 -0.000393
    10 O     0.000619  0.000779 -0.000702
    11 C     0.000875  0.001309 -0.000765
    12 S     0.000162 -0.000518 -0.000208
 ----------------------------------------
 Mulliken charges used for AMS results%charges...

 dE(predicted):    -0.61812E-04, dE(actual):    -0.73698E-04, Trust radius:    0.577920, all in a.u.
 
----------------------------------------------------------------------
Geometry Convergence after Step  13       (Hartree/Angstrom,Angstrom)
----------------------------------------------------------------------
current energy                               -3.42160738 Hartree
energy change                      -0.00007370     0.00001200    F
constrained gradient max            0.00273990     0.00010000    F
constrained gradient rms            0.00106253     0.00006667    F
gradient max                        0.00273991
gradient rms                        0.00106253
cart. step max                      0.03655884     0.00100000    F
cart. step rms                      0.01175878     0.00066667    F
 
 
--------
Geometry
--------
Formula: CH4NO4PaS
Atoms
  Index Symbol   x (angstrom)   y (angstrom)   z (angstrom)
      1     Pa     0.35146566    -0.03919140    -0.06340082
      2      N     1.16108009     1.56510944    -1.52515973
      3      H    -1.92235047     1.92824402     0.31290049
      4      O    -1.27508577     1.22124304     0.27935000
      5      H     2.72519743    -0.05676668     1.75888979
      6      O     0.19661234    -1.35226864    -1.67534743
      7      H     0.15368240    -1.90200039    -2.45972083
      8      O    -0.37485787    -1.45942197     1.28534366
      9      H    -0.93088733    -2.06261923     1.78228705
     10      O     2.12511826     0.14009889     1.03598658
     11      C     1.58215627     2.39291610    -2.26930232
     12      S     2.13892653     3.49807587    -3.26414555
 
Total System Charge             0.00000
Bonding info available!
 
 *** GO1_GOStep14 ***



 ======================
 RI Hartree-Fock Scheme
 ======================
  
 Fit Set Quality     : GOOD
 Threshold Quality   : GOOD
 Integration Quality : GOOD
 Response Quality    : DEFAULT
 Is Range Separated  :  F
 
 RIHartreeFock Dependency: number of modified vectors:           6
  
 Hartree-Fock exchange energy:   -537.432562594220     

 Energy gradients wrt nuclear displacements
 ==========================================

     Atom      Cartesian (a.u./angstrom)
                 X         Y         Z
 ----------------------------------------
     1 Pa   -0.001697 -0.003287  0.002938
     2 N     0.001689  0.004548 -0.004146
     3 H     0.000129  0.000248 -0.000168
     4 O     0.000174 -0.000959 -0.000058
     5 H    -0.000772 -0.000746  0.000461
     6 O    -0.000278  0.000471  0.000847
     7 H    -0.000015  0.000065 -0.000059
     8 O     0.000578 -0.000130  0.000570
     9 H    -0.000487  0.000170 -0.000371
    10 O     0.000527  0.000746 -0.000677
    11 C    -0.000024 -0.000855  0.000976
    12 S     0.000175 -0.000271 -0.000315
 ----------------------------------------
 Mulliken charges used for AMS results%charges...

 dE(predicted):    -0.22057E-04, dE(actual):    -0.13060E-04, Trust radius:    0.577920, all in a.u.
 Residual max backtransformation error   0.1145E-03
 
----------------------------------------------------------------------
Geometry Convergence after Step  14       (Hartree/Angstrom,Angstrom)
----------------------------------------------------------------------
current energy                               -3.42162044 Hartree
energy change                      -0.00001306     0.00001200    F
constrained gradient max            0.00458893     0.00010000    F
constrained gradient rms            0.00140096     0.00006667    F
gradient max                        0.00458890
gradient rms                        0.00140096
cart. step max                      0.21090907     0.00100000    F
cart. step rms                      0.06331176     0.00066667    F
 
 
--------
Geometry
--------
Formula: CH4NO4PaS
Atoms
  Index Symbol   x (angstrom)   y (angstrom)   z (angstrom)
      1     Pa     0.32391085    -0.06449839    -0.09450369
      2      N     1.10512736     1.51571405    -1.59765100
      3      H    -1.93169759     1.92870385     0.27980157
      4      O    -1.28107822     1.22528181     0.24050123
      5      H     2.79690633     0.03750867     1.62878096
      6      O     0.17144009    -1.42705489    -1.66564718
      7      H     0.12348813    -2.00982467    -2.42538232
      8      O    -0.40240688    -1.43758967     1.29839801
      9      H    -0.91646586    -2.03265491     1.84731501
     10      O     2.11578277     0.14405527     0.96153546
     11      C     1.59178388     2.40061175    -2.22223067
     12      S     2.23426667     3.59316618    -3.05323648
 
Total System Charge             0.00000
Bonding info available!
 
 *** GO1_GOStep15 ***



 ======================
 RI Hartree-Fock Scheme
 ======================
  
 Fit Set Quality     : GOOD
 Threshold Quality   : GOOD
 Integration Quality : GOOD
 Response Quality    : DEFAULT
 Is Range Separated  :  F
 
 RIHartreeFock Dependency: number of modified vectors:           6
  
 Hartree-Fock exchange energy:   -537.435384397637     

 Energy gradients wrt nuclear displacements
 ==========================================

     Atom      Cartesian (a.u./angstrom)
                 X         Y         Z
 ----------------------------------------
     1 Pa   -0.000851 -0.004999  0.003311
     2 N     0.004136  0.011374 -0.008298
     3 H     0.000083  0.000056 -0.000129
     4 O     0.000231  0.000001 -0.000468
     5 H    -0.000469 -0.000592  0.000352
     6 O    -0.000271  0.000458  0.000908
     7 H     0.000027  0.000026 -0.000042
     8 O     0.000673  0.000898 -0.000090
     9 H    -0.000396  0.000057 -0.000344
    10 O     0.000087  0.000719 -0.000841
    11 C    -0.003808 -0.009405  0.005348
    12 S     0.000559  0.001408  0.000293
 ----------------------------------------
 Mulliken charges used for AMS results%charges...

 dE(predicted):    -0.12325E-03, dE(actual):     0.11623E-03, Trust radius:    0.050196, all in a.u.
 
----------------------------------------------------------------------
Geometry Convergence after Step  15       (Hartree/Angstrom,Angstrom)
----------------------------------------------------------------------
current energy                               -3.42150421 Hartree
energy change                       0.00011623     0.00001200    F
constrained gradient max            0.01137423     0.00010000    F
constrained gradient rms            0.00329466     0.00006667    F
gradient max                        0.01137302
gradient rms                        0.00329466
cart. step max                      0.06118114     0.00100000    F
cart. step rms                      0.01781099     0.00066667    F
 
 
--------
Geometry
--------
Formula: CH4NO4PaS
Atoms
  Index Symbol   x (angstrom)   y (angstrom)   z (angstrom)
      1     Pa     0.32936034    -0.05769666    -0.08553074
      2      N     1.11957794     1.52537424    -1.57396695
      3      H    -1.92882620     1.93179050     0.29256165
      4      O    -1.27950381     1.22715754     0.25317356
      5      H     2.78168936     0.01817414     1.66273691
      6      O     0.18032088    -1.40548205    -1.67057233
      7      H     0.13533472    -1.97900070    -2.43750492
      8      O    -0.39882857    -1.44572204     1.29285912
      9      H    -0.92192498    -2.04459357     1.82909581
     10      O     2.11653437     0.14351129     0.98258672
     11      C     1.58895578     2.39617455    -2.23334034
     12      S     2.20836771     3.56373179    -3.11441762
 
Total System Charge             0.00000
Bonding info available!
 
 *** GO1_GOStep16 ***



 ======================
 RI Hartree-Fock Scheme
 ======================
  
 Fit Set Quality     : GOOD
 Threshold Quality   : GOOD
 Integration Quality : GOOD
 Response Quality    : DEFAULT
 Is Range Separated  :  F
 
 RIHartreeFock Dependency: number of modified vectors:           6
  
 Hartree-Fock exchange energy:   -537.434261339366     

 Energy gradients wrt nuclear displacements
 ==========================================

     Atom      Cartesian (a.u./angstrom)
                 X         Y         Z
 ----------------------------------------
     1 Pa   -0.000915 -0.003418  0.002476
     2 N     0.002118  0.006544 -0.005358
     3 H     0.000100  0.000107 -0.000129
     4 O     0.000069 -0.000049 -0.000329
     5 H    -0.000406 -0.000616  0.000458
     6 O    -0.000208  0.000233  0.000467
     7 H     0.000017  0.000007 -0.000052
     8 O     0.000749  0.000642  0.000051
     9 H    -0.000474  0.000018 -0.000282
    10 O     0.000463  0.000777 -0.000769
    11 C    -0.001761 -0.005152  0.003560
    12 S     0.000247  0.000908 -0.000094
 ----------------------------------------
 Mulliken charges used for AMS results%charges...

 dE(predicted):    -0.66483E-04, dE(actual):    -0.91878E-04, Trust radius:    0.100392, all in a.u.
 
----------------------------------------------------------------------
Geometry Convergence after Step  16       (Hartree/Angstrom,Angstrom)
----------------------------------------------------------------------
current energy                               -3.42159609 Hartree
energy change                      -0.00009188     0.00001200    F
constrained gradient max            0.00654909     0.00010000    F
constrained gradient rms            0.00198461     0.00006667    F
gradient max                        0.00654857
gradient rms                        0.00198461
cart. step max                      0.05312987     0.00100000    F
cart. step rms                      0.01660127     0.00066667    F
 
 
--------
Geometry
--------
Formula: CH4NO4PaS
Atoms
  Index Symbol   x (angstrom)   y (angstrom)   z (angstrom)
      1     Pa     0.33105507    -0.04984032    -0.07782396
      2      N     1.13203909     1.53083860    -1.55055248
      3      H    -1.92908272     1.93636754     0.31091586
      4      O    -1.28019912     1.23156715     0.26800568
      5      H     2.77103275     0.01151523     1.68722846
      6      O     0.18955783    -1.38325070    -1.67713819
      7      H     0.14882914    -1.94842365    -2.45043078
      8      O    -0.39841412    -1.45492670     1.28411337
      9      H    -0.92419875    -2.05986648     1.81081590
     10      O     2.11350926     0.14572499     1.00143641
     11      C     1.58769718     2.38681059    -2.24134188
     12      S     2.18923193     3.52690280    -3.16754749
 
Total System Charge             0.00000
Bonding info available!
 
 *** GO1_GOStep17 ***



 ======================
 RI Hartree-Fock Scheme
 ======================
  
 Fit Set Quality     : GOOD
 Threshold Quality   : GOOD
 Integration Quality : GOOD
 Response Quality    : DEFAULT
 Is Range Separated  :  F
 
 RIHartreeFock Dependency: number of modified vectors:           6
  
 Hartree-Fock exchange energy:   -537.433485363481     

 Energy gradients wrt nuclear displacements
 ==========================================

     Atom      Cartesian (a.u./angstrom)
                 X         Y         Z
 ----------------------------------------
     1 Pa   -0.000767 -0.000526  0.000861
     2 N    -0.000299  0.000321 -0.001001
     3 H     0.000143  0.000147 -0.000137
     4 O    -0.000187 -0.000092 -0.000088
     5 H    -0.000433 -0.000565  0.000426
     6 O    -0.000062 -0.000122 -0.000206
     7 H    -0.000001  0.000019 -0.000023
     8 O     0.000752  0.000228  0.000298
     9 H    -0.000479  0.000063 -0.000270
    10 O     0.000985  0.000785 -0.000537
    11 C     0.000360 -0.000190  0.001066
    12 S    -0.000013 -0.000067 -0.000388
 ----------------------------------------
 Mulliken charges used for AMS results%charges...

 dE(predicted):    -0.43297E-04, dE(actual):    -0.66734E-04, Trust radius:    0.100392, all in a.u.
 
----------------------------------------------------------------------
Geometry Convergence after Step  17       (Hartree/Angstrom,Angstrom)
----------------------------------------------------------------------
current energy                               -3.42166283 Hartree
energy change                      -0.00006673     0.00001200    F
constrained gradient max            0.00108993     0.00010000    F
constrained gradient rms            0.00047074     0.00006667    F
gradient max                        0.00108986
gradient rms                        0.00047074
cart. step max                      0.01276207     0.00100000    F
cart. step rms                      0.00439931     0.00066667    F
 
 
--------
Geometry
--------
Formula: CH4NO4PaS
Atoms
  Index Symbol   x (angstrom)   y (angstrom)   z (angstrom)
      1     Pa     0.32777861    -0.05037387    -0.07975338
      2      N     1.12875240     1.52594651    -1.55331345
      3      H    -1.93062834     1.93776597     0.31465820
      4      O    -1.28102197     1.23385101     0.26858262
      5      H     2.77779865     0.02427730     1.67659882
      6      O     0.18945523    -1.38615320    -1.67777070
      7      H     0.14933024    -1.95357338    -2.44941401
      8      O    -0.40347183    -1.45526409     1.28161530
      9      H    -0.92286576    -2.06173475     1.81281188
     10      O     2.11016650     0.14658187     0.99853182
     11      C     1.58898282     2.38457252    -2.23838618
     12      S     2.19678099     3.52752315    -3.15648003
 
Total System Charge             0.00000
Bonding info available!
 
 *** GO1_GOStep18 ***



 ======================
 RI Hartree-Fock Scheme
 ======================
  
 Fit Set Quality     : GOOD
 Threshold Quality   : GOOD
 Integration Quality : GOOD
 Response Quality    : DEFAULT
 Is Range Separated  :  F
 
 RIHartreeFock Dependency: number of modified vectors:           6
  
 Hartree-Fock exchange energy:   -537.433495559782     

 Energy gradients wrt nuclear displacements
 ==========================================

     Atom      Cartesian (a.u./angstrom)
                 X         Y         Z
 ----------------------------------------
     1 Pa   -0.000380  0.000366  0.000222
     2 N    -0.000959 -0.001123  0.000132
     3 H     0.000135  0.000163 -0.000138
     4 O    -0.000254 -0.000073 -0.000022
     5 H    -0.000407 -0.000519  0.000383
     6 O    -0.000031 -0.000234 -0.000320
     7 H     0.000005  0.000023 -0.000012
     8 O     0.000666  0.000141  0.000340
     9 H    -0.000455  0.000059 -0.000261
    10 O     0.000978  0.000724 -0.000486
    11 C     0.000732  0.000616  0.000417
    12 S    -0.000029 -0.000141 -0.000257
 ----------------------------------------
 Mulliken charges used for AMS results%charges...

 dE(predicted):    -0.94940E-05, dE(actual):     0.30543E-05, Trust radius:    0.020000, all in a.u.
 
----------------------------------------------------------------------
Geometry Convergence after Step  18       (Hartree/Angstrom,Angstrom)
----------------------------------------------------------------------
current energy                               -3.42165977 Hartree
energy change                       0.00000305     0.00001200    T
constrained gradient max            0.00110059     0.00010000    F
constrained gradient rms            0.00044482     0.00006667    F
gradient max                        0.00110082
gradient rms                        0.00044482
cart. step max                      0.01005757     0.00100000    F
cart. step rms                      0.00296678     0.00066667    F
 
 
--------
Geometry
--------
Formula: CH4NO4PaS
Atoms
  Index Symbol   x (angstrom)   y (angstrom)   z (angstrom)
      1     Pa     0.32575337    -0.05028204    -0.08094785
      2      N     1.12806711     1.52369667    -1.55422302
      3      H    -1.93163819     1.93853364     0.32004269
      4      O    -1.28112284     1.23572168     0.27040662
      5      H     2.78223922     0.03433487     1.67055160
      6      O     0.18989935    -1.38708823    -1.67830164
      7      H     0.15015209    -1.95604352    -2.44880621
      8      O    -0.40834669    -1.45615988     1.27818674
      9      H    -0.92188339    -2.06473253     1.81254713
     10      O     2.10644608     0.14653232     0.99900296
     11      C     1.59021214     2.38265778    -2.23804277
     12      S     2.20127929     3.52624830    -3.15273537
 
Total System Charge             0.00000
Bonding info available!
 
 *** GO1_GOStep19 ***



 ======================
 RI Hartree-Fock Scheme
 ======================
  
 Fit Set Quality     : GOOD
 Threshold Quality   : GOOD
 Integration Quality : GOOD
 Response Quality    : DEFAULT
 Is Range Separated  :  F
 
 RIHartreeFock Dependency: number of modified vectors:           6
  
 Hartree-Fock exchange energy:   -537.433528154307     

 Energy gradients wrt nuclear displacements
 ==========================================

     Atom      Cartesian (a.u./angstrom)
                 X         Y         Z
 ----------------------------------------
     1 Pa    0.000094  0.001028 -0.000432
     2 N    -0.001342 -0.002003  0.000968
     3 H     0.000136  0.000177 -0.000140
     4 O    -0.000313 -0.000128  0.000080
     5 H    -0.000414 -0.000472  0.000318
     6 O    -0.000035 -0.000262 -0.000237
     7 H     0.000015  0.000042  0.000007
     8 O     0.000501 -0.000037  0.000480
     9 H    -0.000397  0.000079 -0.000275
    10 O     0.000828  0.000624 -0.000429
    11 C     0.000976  0.001198 -0.000300
    12 S    -0.000049 -0.000246 -0.000040
 ----------------------------------------
 Mulliken charges used for AMS results%charges...

 dE(predicted):    -0.12575E-04, dE(actual):     0.23530E-05, Trust radius:    0.020000, all in a.u.
 
----------------------------------------------------------------------
Geometry Convergence after Step  19       (Hartree/Angstrom,Angstrom)
----------------------------------------------------------------------
current energy                               -3.42165742 Hartree
energy change                       0.00000235     0.00001200    T
constrained gradient max            0.00198127     0.00010000    F
constrained gradient rms            0.00060816     0.00006667    F
gradient max                        0.00198150
gradient rms                        0.00060816
cart. step max                      0.00829725     0.00100000    F
cart. step rms                      0.00263722     0.00066667    F
 
 
--------
Geometry
--------
Formula: CH4NO4PaS
Atoms
  Index Symbol   x (angstrom)   y (angstrom)   z (angstrom)
      1     Pa     0.32466197    -0.05022618    -0.08138623
      2      N     1.12957594     1.52366737    -1.55329991
      3      H    -1.93175777     1.93900705     0.32615161
      4      O    -1.28026033     1.23740339     0.27274347
      5      H     2.78541546     0.04263212     1.66776342
      6      O     0.19081123    -1.38664637    -1.67885501
      7      H     0.15130746    -1.95652573    -2.44868763
      8      O    -0.41364934    -1.45763048     1.27416472
      9      H    -0.92152756    -2.06865507     1.81101336
     10      O     2.10238376     0.14539845     1.00217669
     11      C     1.59128863     2.38120282    -2.23932455
     12      S     2.20280808     3.52379169    -3.15477903
 
Total System Charge             0.00000
Bonding info available!
 
 *** GO1_GOStep20 ***



 ======================
 RI Hartree-Fock Scheme
 ======================
  
 Fit Set Quality     : GOOD
 Threshold Quality   : GOOD
 Integration Quality : GOOD
 Response Quality    : DEFAULT
 Is Range Separated  :  F
 
 RIHartreeFock Dependency: number of modified vectors:           5
  
 Hartree-Fock exchange energy:   -537.434661232746     

 Energy gradients wrt nuclear displacements
 ==========================================

     Atom      Cartesian (a.u./angstrom)
                 X         Y         Z
 ----------------------------------------
     1 Pa    0.000538  0.001259 -0.000966
     2 N    -0.001365 -0.002127  0.001316
     3 H     0.000353 -0.000084 -0.000143
     4 O    -0.000536  0.000065  0.000174
     5 H    -0.000474 -0.000423  0.000206
     6 O    -0.000071 -0.000425 -0.000320
     7 H     0.000037  0.000310  0.000372
     8 O     0.000239 -0.000311  0.000730
     9 H    -0.000271  0.000176 -0.000361
    10 O     0.000606  0.000518 -0.000356
    11 C     0.000995  0.001348 -0.000802
    12 S    -0.000051 -0.000306  0.000151
 ----------------------------------------
 Mulliken charges used for AMS results%charges...

 dE(predicted):    -0.14745E-04, dE(actual):    -0.19931E-03, Trust radius:    0.040000, all in a.u.
 
----------------------------------------------------------------------
Geometry Convergence after Step  20       (Hartree/Angstrom,Angstrom)
----------------------------------------------------------------------
current energy                               -3.42185673 Hartree
energy change                      -0.00019931     0.00001200    F
constrained gradient max            0.00210431     0.00010000    F
constrained gradient rms            0.00069914     0.00006667    F
gradient max                        0.00210451
gradient rms                        0.00069914
cart. step max                      0.01557375     0.00100000    F
cart. step rms                      0.00524114     0.00066667    F
 
 
--------
Geometry
--------
Formula: CH4NO4PaS
Atoms
  Index Symbol   x (angstrom)   y (angstrom)   z (angstrom)
      1     Pa     0.32278475    -0.05096836    -0.08119462
      2      N     1.13371652     1.52480766    -1.54985244
      3      H    -1.93111553     1.94062748     0.33692119
      4      O    -1.27769751     1.24081917     0.27668517
      5      H     2.79163999     0.05820586     1.66324357
      6      O     0.19283304    -1.38509189    -1.68016117
      7      H     0.15389888    -1.95644442    -2.44965436
      8      O    -0.42463924    -1.46101379     1.26666267
      9      H    -0.92134566    -2.07696917     1.80844415
     10      O     2.09450439     0.14215815     1.00975693
     11      C     1.59315355     2.37881043    -2.24151565
     12      S     2.20332434     3.51847792    -3.16165454
 
Total System Charge             0.00000
Bonding info available!
 
 *** GO1_GOStep21 ***



 ======================
 RI Hartree-Fock Scheme
 ======================
  
 Fit Set Quality     : GOOD
 Threshold Quality   : GOOD
 Integration Quality : GOOD
 Response Quality    : DEFAULT
 Is Range Separated  :  F
 
 RIHartreeFock Dependency: number of modified vectors:           5
  
 Hartree-Fock exchange energy:   -537.434221743139     

 Energy gradients wrt nuclear displacements
 ==========================================

     Atom      Cartesian (a.u./angstrom)
                 X         Y         Z
 ----------------------------------------
     1 Pa    0.001199  0.001071 -0.001363
     2 N    -0.001023 -0.001464  0.001184
     3 H    -0.000202  0.000516 -0.000083
     4 O    -0.000022 -0.000586  0.000239
     5 H    -0.000297 -0.000388  0.000288
     6 O    -0.000099  0.000398  0.000989
     7 H     0.000012 -0.000332 -0.000510
     8 O     0.000129 -0.000284  0.000732
     9 H    -0.000356 -0.000033 -0.000174
    10 O    -0.000058  0.000417 -0.000548
    11 C     0.000719  0.000980 -0.001073
    12 S    -0.000003 -0.000294  0.000319
 ----------------------------------------
 Mulliken charges used for AMS results%charges...

 dE(predicted):    -0.28405E-04, dE(actual):    -0.30107E-04, Trust radius:    0.080000, all in a.u.
 
----------------------------------------------------------------------
Geometry Convergence after Step  21       (Hartree/Angstrom,Angstrom)
----------------------------------------------------------------------
current energy                               -3.42188683 Hartree
energy change                      -0.00003011     0.00001200    F
constrained gradient max            0.00143990     0.00010000    F
constrained gradient rms            0.00065918     0.00006667    F
gradient max                        0.00144005
gradient rms                        0.00065918
cart. step max                      0.03401053     0.00100000    F
cart. step rms                      0.01029738     0.00066667    F
 
 
--------
Geometry
--------
Formula: CH4NO4PaS
Atoms
  Index Symbol   x (angstrom)   y (angstrom)   z (angstrom)
      1     Pa     0.31720959    -0.05368933    -0.08026150
      2      N     1.13965993     1.52426966    -1.54320962
      3      H    -1.92929049     1.94446952     0.35510340
      4      O    -1.27315911     1.24855603     0.28250954
      5      H     2.80504290     0.09221639     1.64758475
      6      O     0.19660848    -1.38310401    -1.68325747
      7      H     0.15902153    -1.95672325    -2.45105512
      8      O    -0.44679803    -1.46774755     1.25333307
      9      H    -0.91990945    -2.09275477     1.80553196
     10      O     2.07948066     0.13624660     1.02198114
     11      C     1.59715052     2.37348871    -2.24143099
     12      S     2.20604100     3.50819104    -3.16914826
 
Total System Charge             0.00000
Bonding info available!
 
 *** GO1_GOStep22 ***



 ======================
 RI Hartree-Fock Scheme
 ======================
  
 Fit Set Quality     : GOOD
 Threshold Quality   : GOOD
 Integration Quality : GOOD
 Response Quality    : DEFAULT
 Is Range Separated  :  F
 
 RIHartreeFock Dependency: number of modified vectors:           6
  
 Hartree-Fock exchange energy:   -537.433676727525     

 Energy gradients wrt nuclear displacements
 ==========================================

     Atom      Cartesian (a.u./angstrom)
                 X         Y         Z
 ----------------------------------------
     1 Pa    0.001868  0.000430 -0.001259
     2 N    -0.000566 -0.000459  0.000686
     3 H    -0.000326  0.000651 -0.000039
     4 O     0.000118 -0.000674  0.000274
     5 H    -0.000047 -0.000333  0.000399
     6 O    -0.000154  0.000726  0.001486
     7 H     0.000022 -0.000459 -0.000649
     8 O    -0.000329 -0.000506  0.000904
     9 H    -0.000053  0.000162 -0.000340
    10 O    -0.000916  0.000365 -0.000909
    11 C     0.000289  0.000269 -0.000810
    12 S     0.000094 -0.000173  0.000256
 ----------------------------------------
 Mulliken charges used for AMS results%charges...

 dE(predicted):    -0.41600E-04, dE(actual):     0.12778E-03, Trust radius:    0.020000, all in a.u.
 
----------------------------------------------------------------------
Geometry Convergence after Step  22       (Hartree/Angstrom,Angstrom)
----------------------------------------------------------------------
current energy                               -3.42175906 Hartree
energy change                       0.00012778     0.00001200    F
constrained gradient max            0.00187452     0.00010000    F
constrained gradient rms            0.00064573     0.00006667    F
gradient max                        0.00187443
gradient rms                        0.00064573
cart. step max                      0.00834997     0.00100000    F
cart. step rms                      0.00255310     0.00066667    F
 
 
--------
Geometry
--------
Formula: CH4NO4PaS
Atoms
  Index Symbol   x (angstrom)   y (angstrom)   z (angstrom)
      1     Pa     0.31514391    -0.05466249    -0.07948391
      2      N     1.14110664     1.52393847    -1.54064990
      3      H    -1.92907350     1.94548361     0.35795223
      4      O    -1.27252150     1.25070424     0.28294150
      5      H     2.80870354     0.10056636     1.64258810
      6      O     0.19739323    -1.38223458    -1.68455837
      7      H     0.16015735    -1.95580906    -2.45192225
      8      O    -0.45191291    -1.46945927     1.25091366
      9      H    -0.91895233    -2.09675976     1.80592469
     10      O     2.07617629     0.13455616     1.02480232
     11      C     1.59833474     2.37206812    -2.24010739
     12      S     2.20650207     3.50502725    -3.17071979
 
Total System Charge             0.00000
Bonding info available!
 
 *** GO1_GOStep23 ***



 ======================
 RI Hartree-Fock Scheme
 ======================
  
 Fit Set Quality     : GOOD
 Threshold Quality   : GOOD
 Integration Quality : GOOD
 Response Quality    : DEFAULT
 Is Range Separated  :  F
 
 RIHartreeFock Dependency: number of modified vectors:           6
  
 Hartree-Fock exchange energy:   -537.434106821717     

 Energy gradients wrt nuclear displacements
 ==========================================

     Atom      Cartesian (a.u./angstrom)
                 X         Y         Z
 ----------------------------------------
     1 Pa    0.001387  0.000158 -0.000912
     2 N    -0.000407 -0.000101  0.000316
     3 H     0.000127  0.000162 -0.000082
     4 O    -0.000256 -0.000134  0.000263
     5 H    -0.000240 -0.000297  0.000198
     6 O    -0.000159  0.000195  0.000684
     7 H     0.000047 -0.000014 -0.000041
     8 O    -0.000090 -0.000183  0.000618
     9 H    -0.000186 -0.000036 -0.000167
    10 O    -0.000513  0.000370 -0.000574
    11 C     0.000180  0.000005 -0.000404
    12 S     0.000110 -0.000124  0.000101
 ----------------------------------------
 Mulliken charges used for AMS results%charges...

 dE(predicted):    -0.10655E-04, dE(actual):    -0.25805E-04, Trust radius:    0.040000, all in a.u.
 
----------------------------------------------------------------------
Geometry Convergence after Step  23       (Hartree/Angstrom,Angstrom)
----------------------------------------------------------------------
current energy                               -3.42178486 Hartree
energy change                      -0.00002580     0.00001200    F
constrained gradient max            0.00139369     0.00010000    F
constrained gradient rms            0.00038702     0.00006667    F
gradient max                        0.00139360
gradient rms                        0.00038702
cart. step max                      0.01724101     0.00100000    F
cart. step rms                      0.00507015     0.00066667    F
 
 
--------
Geometry
--------
Formula: CH4NO4PaS
Atoms
  Index Symbol   x (angstrom)   y (angstrom)   z (angstrom)
      1     Pa     0.31068063    -0.05676584    -0.07825594
      2      N     1.14311690     1.52240026    -1.53640512
      3      H    -1.93003342     1.94713736     0.36238383
      4      O    -1.27196804     1.25454208     0.28281125
      5      H     2.81704443     0.11780737     1.62979652
      6      O     0.19843362    -1.38157635    -1.68681724
      7      H     0.16154843    -1.95588945    -2.45337504
      8      O    -0.46195725    -1.47205387     1.24698268
      9      H    -0.91644843    -2.10326190     1.80796076
     10      O     2.07024835     0.13127463     1.02870281
     11      C     1.60105035     2.36940105    -2.23638324
     12      S     2.20934195     3.50040370    -3.16972038
 
Total System Charge             0.00000
Bonding info available!
 
 *** GO1_GOStep24 ***



 ======================
 RI Hartree-Fock Scheme
 ======================
  
 Fit Set Quality     : GOOD
 Threshold Quality   : GOOD
 Integration Quality : GOOD
 Response Quality    : DEFAULT
 Is Range Separated  :  F
 
 RIHartreeFock Dependency: number of modified vectors:           6
  
 Hartree-Fock exchange energy:   -537.434289253726     

 Energy gradients wrt nuclear displacements
 ==========================================

     Atom      Cartesian (a.u./angstrom)
                 X         Y         Z
 ----------------------------------------
     1 Pa    0.000400 -0.000323 -0.000148
     2 N    -0.000211  0.000385 -0.000223
     3 H     0.000346 -0.000092 -0.000096
     4 O    -0.000317  0.000209  0.000159
     5 H    -0.000283 -0.000253  0.000105
     6 O    -0.000116 -0.000268 -0.000133
     7 H     0.000052  0.000224  0.000307
     8 O     0.000128  0.000172  0.000298
     9 H    -0.000184 -0.000074 -0.000138
    10 O    -0.000002  0.000434 -0.000210
    11 C     0.000080 -0.000346  0.000197
    12 S     0.000109 -0.000066 -0.000117
 ----------------------------------------
 Mulliken charges used for AMS results%charges...

 dE(predicted):    -0.17544E-04, dE(actual):    -0.37098E-04, Trust radius:    0.080000, all in a.u.
 
----------------------------------------------------------------------
Geometry Convergence after Step  24       (Hartree/Angstrom,Angstrom)
----------------------------------------------------------------------
current energy                               -3.42182196 Hartree
energy change                      -0.00003710     0.00001200    F
constrained gradient max            0.00042800     0.00010000    F
constrained gradient rms            0.00022498     0.00006667    F
gradient max                        0.00042856
gradient rms                        0.00022498
cart. step max                      0.03547222     0.00100000    F
cart. step rms                      0.01031437     0.00066667    F
 
 
--------
Geometry
--------
Formula: CH4NO4PaS
Atoms
  Index Symbol   x (angstrom)   y (angstrom)   z (angstrom)
      1     Pa     0.30265488    -0.06016837    -0.07738860
      2      N     1.14608969     1.51847795    -1.53123012
      3      H    -1.93311332     1.94887810     0.37333656
      4      O    -1.27108032     1.26114468     0.28363144
      5      H     2.83175174     0.15327959     1.60031509
      6      O     0.20019824    -1.38233580    -1.68941919
      7      H     0.16355496    -1.96009554    -2.45361306
      8      O    -0.48217034    -1.47593244     1.23853468
      9      H    -0.91111814    -2.11417961     1.81144689
     10      O     2.05825915     0.12521761     1.03464743
     11      C     1.60704423     2.36459593    -2.22996942
     12      S     2.21898678     3.49453694    -3.16261080
 
Total System Charge             0.00000
Bonding info available!
 
 *** GO1_GOStep25 ***



 ======================
 RI Hartree-Fock Scheme
 ======================
  
 Fit Set Quality     : GOOD
 Threshold Quality   : GOOD
 Integration Quality : GOOD
 Response Quality    : DEFAULT
 Is Range Separated  :  F
 
 RIHartreeFock Dependency: number of modified vectors:           6
  
 Hartree-Fock exchange energy:   -537.434497058049     

 Energy gradients wrt nuclear displacements
 ==========================================

     Atom      Cartesian (a.u./angstrom)
                 X         Y         Z
 ----------------------------------------
     1 Pa   -0.000024 -0.000829  0.000804
     2 N    -0.000123  0.000755 -0.000581
     3 H     0.000156  0.000080 -0.000051
     4 O     0.000076  0.000052  0.000042
     5 H    -0.000211 -0.000179  0.000024
     6 O    -0.000060 -0.000222 -0.000212
     7 H     0.000028  0.000023  0.000073
     8 O     0.000224  0.000596 -0.000117
     9 H    -0.000104 -0.000111 -0.000103
    10 O    -0.000084  0.000457 -0.000208
    11 C     0.000021 -0.000621  0.000549
    12 S     0.000101 -0.000001 -0.000222
 ----------------------------------------
 Mulliken charges used for AMS results%charges...
 Rebuilding optimization coordinates
Bad geometry: could not add a dihedral for atom    3
Bad geometry: could not add a dihedral for atom    5
Bad geometry: could not add a dihedral for atom    7
Bad geometry: could not add a dihedral for atom    9
Bad geometry: could not add a dihedral for atom   12

 dE(predicted):    -0.21811E-04, dE(actual):    -0.46182E-04, Trust radius:    0.160000, all in a.u.
 
----------------------------------------------------------------------
Geometry Convergence after Step  25       (Hartree/Angstrom,Angstrom)
----------------------------------------------------------------------
current energy                               -3.42186814 Hartree
energy change                      -0.00004618     0.00001200    F
constrained gradient max            0.00083737     0.00010000    F
constrained gradient rms            0.00032945     0.00006667    F
gradient max                        0.00083732
gradient rms                        0.00032945
cart. step max                      0.03801661     0.00100000    F
cart. step rms                      0.01121753     0.00066667    F
 
 
--------
Geometry
--------
Formula: CH4NO4PaS
Atoms
  Index Symbol   x (angstrom)   y (angstrom)   z (angstrom)
      1     Pa     0.29488655    -0.06233276    -0.07598288
      2      N     1.15211372     1.51578192    -1.52294447
      3      H    -1.93756368     1.94931698     0.38833232
      4      O    -1.27043124     1.26813000     0.28637652
      5      H     2.84377334     0.19129621     1.56899306
      6      O     0.20316467    -1.38050657    -1.69222826
      7      H     0.16643083    -1.96160610    -2.45404642
      8      O    -0.50409453    -1.48044995     1.22807355
      9      H    -0.90439430    -2.12647168     1.81275194
     10      O     2.04484275     0.11700800     1.04431940
     11      C     1.61423768     2.35869301    -2.22477271
     12      S     2.22809175     3.48455999    -3.16119114
 
Total System Charge             0.00000
Bonding info available!
 
 *** GO1_GOStep26 ***



 ======================
 RI Hartree-Fock Scheme
 ======================
  
 Fit Set Quality     : GOOD
 Threshold Quality   : GOOD
 Integration Quality : GOOD
 Response Quality    : DEFAULT
 Is Range Separated  :  F
 
 RIHartreeFock Dependency: number of modified vectors:           6
  
 Hartree-Fock exchange energy:   -537.434673315623     

 Energy gradients wrt nuclear displacements
[...]
 Index  Atom      ---- Displacements (x/y/z) ----
     1    Pa       0.013138  -0.004336   0.004684
     2     N      -0.182040   0.047652  -0.050195
     3     H      -0.122797  -0.167795   0.025764
     4     O       0.073880   0.085331  -0.129616
     5     H       0.069057   0.201128  -0.095504
     6     O      -0.021010   0.042746  -0.030765
     7     H      -0.179897   0.049835  -0.025245
     8     O      -0.026731   0.009434  -0.004901
     9     H       0.788065  -0.209823   0.285512
    10     O      -0.048567  -0.105468   0.134181
    11     C      -0.117796   0.027734  -0.032693
    12     S       0.022747  -0.011987   0.009960
 
 Mode:    17      Frequency (cm-1):      199.6966     Intensity (km/mol):       29.5307
 Index  Atom      ---- Displacements (x/y/z) ----
     1    Pa      -0.000452  -0.012680  -0.007113
     2     N      -0.011880   0.141689   0.122590
     3     H       0.022421  -0.037817   0.192932
     4     O       0.071489   0.067606  -0.044628
     5     H      -0.111506   0.069584   0.146220
     6     O      -0.081604  -0.148203   0.097475
     7     H       0.097309   0.203438  -0.205654
     8     O      -0.004487   0.019570   0.024413
     9     H       0.033163  -0.595357  -0.605317
    10     O      -0.000396   0.067702  -0.027829
    11     C      -0.001559   0.094246   0.069823
    12     S       0.015257   0.002212  -0.038354
 
 Mode:    18      Frequency (cm-1):      218.6546     Intensity (km/mol):        6.3321
 Index  Atom      ---- Displacements (x/y/z) ----
     1    Pa       0.013939   0.020073  -0.022196
     2     N      -0.086263  -0.103190   0.184331
     3     H      -0.227736  -0.298279   0.300002
     4     O       0.069256   0.121102  -0.103169
     5     H      -0.202011  -0.307452   0.389753
     6     O       0.044315   0.088507  -0.102371
     7     H      -0.133431  -0.327340   0.254412
     8     O      -0.011402   0.015221  -0.003886
     9     H      -0.051364  -0.054397  -0.101532
    10     O       0.082197   0.143208  -0.121087
    11     C      -0.088450  -0.131061   0.172960
    12     S      -0.102609  -0.203657   0.153532
 
 Mode:    19      Frequency (cm-1):      262.8950     Intensity (km/mol):      452.6393
 Index  Atom      ---- Displacements (x/y/z) ----
     1    Pa      -0.019214  -0.034890   0.033113
     2     N       0.037689   0.052849  -0.066157
     3     H      -0.324159  -0.416071   0.147026
     4     O       0.091585   0.099105  -0.094534
     5     H      -0.260593  -0.223784   0.415376
     6     O       0.043300   0.135372  -0.089835
     7     H       0.018475  -0.387578   0.342341
     8     O      -0.035094  -0.053469   0.033906
     9     H      -0.041257   0.010553   0.100456
    10     O       0.056054   0.105491  -0.131281
    11     C       0.038128   0.059499  -0.064410
    12     S       0.049214   0.095372  -0.076866
 
 Mode:    20      Frequency (cm-1):      269.4247     Intensity (km/mol):       19.6539
 Index  Atom      ---- Displacements (x/y/z) ----
     1    Pa      -0.001606  -0.003566   0.003199
     2     N       0.003356   0.004602  -0.005131
     3     H       0.267916   0.195496   0.474153
     4     O      -0.017077  -0.011562  -0.050312
     5     H       0.205197  -0.472406  -0.251305
     6     O       0.053537  -0.004470   0.002054
     7     H      -0.544809   0.150846  -0.083383
     8     O      -0.008442  -0.005311   0.000367
     9     H       0.008918   0.001322   0.018806
    10     O      -0.014206   0.056486   0.013462
    11     C       0.003343   0.005108  -0.004988
    12     S       0.003952   0.008187  -0.006764
 
 Mode:    21      Frequency (cm-1):      287.2611     Intensity (km/mol):       30.8804
 Index  Atom      ---- Displacements (x/y/z) ----
     1    Pa       0.004227  -0.003661  -0.000024
     2     N       0.025950  -0.018442  -0.008207
     3     H       0.184382   0.232148  -0.237405
     4     O      -0.045164  -0.088570   0.073655
     5     H      -0.176657   0.075629   0.280503
     6     O       0.026292   0.038288  -0.038965
     7     H      -0.277648  -0.042093   0.048191
     8     O      -0.130042   0.098552   0.025131
     9     H       0.604313  -0.477219  -0.115276
    10     O       0.033480   0.037117  -0.044483
    11     C       0.023552  -0.016252  -0.007379
    12     S      -0.003539   0.004580  -0.000376
 
 Mode:    22      Frequency (cm-1):      288.1563     Intensity (km/mol):       34.6606
 Index  Atom      ---- Displacements (x/y/z) ----
     1    Pa      -0.003423  -0.003518  -0.004270
     2     N      -0.014743  -0.011766  -0.025144
     3     H       0.139210   0.103362   0.235974
     4     O      -0.000138  -0.001468  -0.003115
     5     H       0.035435   0.268939  -0.122192
     6     O       0.046484   0.075889  -0.081704
     7     H      -0.034142  -0.303042   0.234744
     8     O       0.083128   0.073380   0.135176
     9     H      -0.392373  -0.329063  -0.598154
    10     O      -0.047403  -0.068939   0.060060
    11     C      -0.012913  -0.010305  -0.022264
    12     S       0.002923   0.003182   0.002851
 
 Mode:    23      Frequency (cm-1):      341.1862     Intensity (km/mol):      267.6508
 Index  Atom      ---- Displacements (x/y/z) ----
     1    Pa       0.002843  -0.002973  -0.001691
     2     N      -0.002076   0.002485   0.002005
     3     H      -0.034984  -0.023203  -0.158126
     4     O       0.008731  -0.013246   0.021969
     5     H       0.306091  -0.556927  -0.388754
     6     O      -0.053012   0.021272  -0.024347
     7     H       0.542388  -0.220260   0.132528
     8     O      -0.028675   0.030100   0.013100
     9     H       0.147765  -0.142766  -0.057308
    10     O      -0.025629   0.060614   0.039596
    11     C      -0.004057   0.005118   0.003737
    12     S       0.000908  -0.001194  -0.000366
 
 Mode:    24      Frequency (cm-1):      343.7334     Intensity (km/mol):      251.8599
 Index  Atom      ---- Displacements (x/y/z) ----
     1    Pa       0.002785   0.001091   0.002894
     2     N      -0.004228  -0.000759  -0.003506
     3     H       0.400247   0.319959   0.581758
     4     O      -0.037419  -0.033175  -0.058096
     5     H      -0.111860   0.177279   0.169477
     6     O      -0.052941   0.015102   0.003241
     7     H       0.504046  -0.136698   0.088525
     8     O      -0.023496  -0.012208  -0.028700
     9     H       0.103130   0.068121   0.137844
    10     O       0.023801  -0.010792  -0.014503
    11     C      -0.005599  -0.002331  -0.006214
    12     S       0.000651   0.000360   0.001195
 
 Mode:    25      Frequency (cm-1):      502.7900     Intensity (km/mol):        0.5511
 Index  Atom      ---- Displacements (x/y/z) ----
     1    Pa      -0.001109  -0.000048  -0.000478
     2     N      -0.395021   0.017636  -0.229384
     3     H       0.009341  -0.028804   0.044618
     4     O       0.017484  -0.005639  -0.020068
     5     H       0.052766   0.050478  -0.031890
     6     O      -0.004075   0.018573   0.002300
     7     H       0.016598  -0.016391   0.029777
     8     O       0.001354  -0.000468   0.001238
     9     H       0.013626   0.001070   0.010804
    10     O       0.016620  -0.014652   0.033819
    11     C       0.751960  -0.034843   0.437330
    12     S      -0.119818   0.006592  -0.070555
 
 Mode:    26      Frequency (cm-1):      503.8726     Intensity (km/mol):        0.8602
 Index  Atom      ---- Displacements (x/y/z) ----
     1    Pa       0.000044   0.001312  -0.000075
     2     N      -0.152141   0.318543   0.287340
     3     H      -0.014277  -0.049429  -0.002514
     4     O       0.029902   0.002470  -0.012524
     5     H       0.016295  -0.035049  -0.022836
     6     O      -0.013965  -0.033778  -0.009747
     7     H       0.026478   0.001012  -0.041477
     8     O      -0.001066  -0.003220   0.001745
     9     H      -0.002810  -0.002135   0.001790
    10     O      -0.004442   0.009498   0.003146
    11     C       0.293149  -0.609682  -0.552550
    12     S      -0.049739   0.095058   0.092827
 
 Mode:    27      Frequency (cm-1):      567.1889     Intensity (km/mol):      192.2228
 Index  Atom      ---- Displacements (x/y/z) ----
     1    Pa      -0.020409  -0.034039   0.031646
     2     N      -0.001909  -0.002946   0.002454
     3     H      -0.189594   0.100035   0.069318
     4     O      -0.152906   0.152239   0.020907
     5     H       0.172084  -0.010967   0.157837
     6     O      -0.002555  -0.125878  -0.183912
     7     H      -0.028081  -0.169530  -0.145088
     8     O       0.229250   0.397463  -0.368519
     9     H       0.224128   0.391682  -0.376490
    10     O       0.199941   0.030565   0.108957
    11     C       0.000575  -0.002504  -0.000602
    12     S       0.005528   0.011074  -0.008848
 
 Mode:    28      Frequency (cm-1):      594.2138     Intensity (km/mol):      301.0483
 Index  Atom      ---- Displacements (x/y/z) ----
     1    Pa      -0.055253   0.040031   0.007850
     2     N       0.029386  -0.019397  -0.004810
     3     H       0.437122  -0.359142  -0.107196
     4     O       0.432160  -0.367258  -0.089079
     5     H       0.263623   0.041767   0.187323
     6     O       0.008295  -0.159335  -0.180531
     7     H      -0.029243  -0.140787  -0.193312
     8     O       0.020114  -0.020277   0.000736
     9     H      -0.047502   0.029518   0.010140
    10     O       0.281023   0.009106   0.163985
    11     C      -0.018099   0.011352   0.002371
    12     S       0.002517  -0.002495   0.000210
 
 Mode:    29      Frequency (cm-1):      594.5220     Intensity (km/mol):      304.2553
 Index  Atom      ---- Displacements (x/y/z) ----
     1    Pa      -0.030456  -0.031334  -0.053324
     2     N       0.015525   0.015124   0.027883
     3     H      -0.054233   0.017211  -0.012172
     4     O      -0.024767   0.041781   0.026485
     5     H       0.401825   0.031018   0.243722
     6     O       0.034650   0.324918   0.403403
     7     H       0.008359   0.325091   0.405373
     8     O       0.010932   0.009518   0.025784
     9     H      -0.031317  -0.028640  -0.042222
    10     O       0.389151   0.044630   0.260355
    11     C      -0.009857  -0.008305  -0.016982
    12     S       0.001649   0.001510   0.002533
 
 Mode:    30      Frequency (cm-1):      653.3950     Intensity (km/mol):      155.2780
 Index  Atom      ---- Displacements (x/y/z) ----
     1    Pa      -0.007972  -0.013648   0.012293
     2     N       0.003011   0.011040  -0.002264
     3     H       0.260702  -0.224645  -0.056131
     4     O       0.260427  -0.216266  -0.058090
     5     H      -0.293716  -0.032567  -0.184613
     6     O       0.018728   0.222315   0.265519
     7     H       0.010025   0.216536   0.277152
     8     O       0.142811   0.248758  -0.230080
     9     H       0.142197   0.250088  -0.239253
    10     O      -0.286779  -0.022068  -0.187168
    11     C      -0.005580  -0.012796   0.008144
    12     S      -0.013008  -0.024444   0.020466
 
 Mode:    31      Frequency (cm-1):      923.2023     Intensity (km/mol):        8.6983
 Index  Atom      ---- Displacements (x/y/z) ----
     1    Pa       0.005145   0.009360  -0.008455
     2     N      -0.273621  -0.510805   0.434320
     3     H       0.028142  -0.004548  -0.015097
     4     O       0.015677  -0.018985  -0.000303
     5     H      -0.015036   0.009650  -0.024718
     6     O      -0.000778   0.011076   0.021030
     7     H       0.008136   0.027807   0.008916
     8     O       0.007142   0.012069  -0.011201
     9     H       0.006833   0.011362  -0.011835
    10     O      -0.021490  -0.005479  -0.008910
    11     C      -0.203764  -0.388417   0.317688
    12     S       0.157979   0.301129  -0.247325
 
 Mode:    32      Frequency (cm-1):     2044.9123     Intensity (km/mol):     2212.4421
 Index  Atom      ---- Displacements (x/y/z) ----
     1    Pa      -0.000268  -0.000481   0.000443
     2     N      -0.219552  -0.417673   0.344904
     3     H       0.012097  -0.014641   0.000105
     4     O       0.006497  -0.002320  -0.003173
     5     H      -0.016795  -0.002980  -0.007471
     6     O       0.001486   0.006503   0.003508
     7     H      -0.000772   0.009366   0.015912
     8     O       0.002769   0.004864  -0.004527
     9     H       0.005095   0.009001  -0.008002
    10     O      -0.004780   0.001547  -0.005758
    11     C       0.303973   0.578403  -0.476921
    12     S      -0.018971  -0.036009   0.029699
 
 Mode:    33      Frequency (cm-1):     3881.6493     Intensity (km/mol):      284.8992
 Index  Atom      ---- Displacements (x/y/z) ----
     1    Pa       0.000002   0.000003  -0.000002
     2     N      -0.000182  -0.000338   0.000288
     3     H      -0.071021   0.063953   0.013401
     4     O       0.004726  -0.004310  -0.000848
     5     H       0.051706   0.005169   0.032689
     6     O       0.000696   0.008471   0.010437
     7     H      -0.011298  -0.131678  -0.160061
     8     O       0.024731   0.040952  -0.038572
     9     H      -0.390542  -0.646296   0.607940
    10     O      -0.003580  -0.000391  -0.002200
    11     C       0.000220   0.000421  -0.000351
    12     S      -0.000032  -0.000064   0.000047
 
 Mode:    34      Frequency (cm-1):     3886.0253     Intensity (km/mol):      355.3845
 Index  Atom      ---- Displacements (x/y/z) ----
     1    Pa       0.000001  -0.000005  -0.000006
     2     N       0.000003   0.000037   0.000025
     3     H      -0.341248   0.306033   0.065115
     4     O       0.021568  -0.019342  -0.004058
     5     H       0.241795   0.023634   0.154369
     6     O      -0.002848  -0.033110  -0.040252
     7     H       0.045144   0.525599   0.638571
     8     O       0.002862   0.004840  -0.004394
     9     H      -0.045553  -0.075767   0.070399
    10     O      -0.015312  -0.001470  -0.009715
    11     C       0.000007   0.000007  -0.000019
    12     S       0.000003  -0.000002  -0.000004
 
 Mode:    35      Frequency (cm-1):     3888.4866     Intensity (km/mol):      358.9563
 Index  Atom      ---- Displacements (x/y/z) ----
     1    Pa       0.000006  -0.000002   0.000002
     2     N      -0.000052   0.000002  -0.000010
     3     H      -0.486132   0.435107   0.092041
     4     O       0.030650  -0.027499  -0.005809
     5     H      -0.623117  -0.059356  -0.396691
     6     O       0.000340   0.004212   0.005099
     7     H      -0.006406  -0.066486  -0.081224
     8     O      -0.001169  -0.001692   0.001587
     9     H       0.017024   0.027355  -0.025665
    10     O       0.039334   0.003801   0.025033
    11     C       0.000024   0.000009  -0.000007
    12     S       0.000004  -0.000003  -0.000000
 
 Mode:    36      Frequency (cm-1):     3910.9095     Intensity (km/mol):        1.5431
 Index  Atom      ---- Displacements (x/y/z) ----
     1    Pa      -0.000001  -0.000001   0.000001
     2     N      -0.000400  -0.000735   0.000646
     3     H      -0.429023   0.383826   0.081726
     4     O       0.027276  -0.024372  -0.005200
     5     H       0.504202   0.047934   0.321829
     6     O       0.001782   0.020443   0.024729
     7     H      -0.027720  -0.321234  -0.389554
     8     O      -0.005031  -0.008287   0.007836
     9     H       0.082679   0.136911  -0.128628
    10     O      -0.032029  -0.003025  -0.020461
    11     C       0.000361   0.000685  -0.000562
    12     S      -0.000051  -0.000101   0.000081

PES point character: Geometry corresponds to a local minimum on the PES.




 ============================
 Statistical Thermal Analysis  ***  ideal gas assumed  ***
 ============================
  
 Pressure:                  1.000000 atm.
 Temperature:             298.150000 K



 Moments of Inertia [amu*bohr^2] and principal axis
 ==================================================

         844.9377       4023.2121       4026.8101
 ------------------------------------------------
          -0.3800         -0.6979         -0.6071
          -0.6988         -0.2134          0.6827
           0.6060         -0.6837          0.4066


 The rotational contribution to the molecular entropy includes
 a term, dependent on the symmetry number sigma. The results 
 reported below were computed using sigma = 1, determined from
 the point group symmetry of the input geometry (NOSYM). 
 If this is not the correct symmetry, try symmetrizing the molecule before
 running the calculation (note: linear molecules should be aligned along one
 of the Cartesian axes).
 Contributions from frequencies below 20 1/cm are not included in vibrational sums.
 Their contributions, if any, are reported separately.


     Temp                                                        Transl      Rotat     Vibrat     Total
     ----                                                        ------      -----     ------     -----

     298.15   Entropy (cal/mol-K):                               43.512     30.993     52.670    127.175
              Nuclear Internal Energy (kcal/mol):                 0.889      0.889     43.602     45.379
              Constant Volume Heat Capacity (cal/mol-K):          2.981      2.981     40.164     46.126
          (c) Constant Volume Heat Capacity (cal/mol-K):          2.981      2.981     34.809     40.770

       Summary of energy terms
                                                   hartree              eV         kcal/mol           kJ/mol
                                      --------------------     -----------       ----------      -----------
      Energy from Engine:               -3.421906969612794        -93.1148         -2147.28         -8984.22
      Nuclear Internal Energy:           0.072316073485416          1.9678            45.38           189.87
  (c) Nuclear Internal Energy:           0.069596838803076          1.8938            43.67           182.73
      Internal Energy U:                -3.349590896127378        -91.1470         -2101.90         -8794.35
      pV/n = RT:                         0.000944186013486          0.0257             0.59             2.48
      Enthalpy H:                       -3.348646710113892        -91.1213         -2101.31         -8791.87
      -T*S:                             -0.060424752129869         -1.6442           -37.92          -158.65
  (c) -T*S:                             -0.057870665917516         -1.5747           -36.31          -151.94
      Gibbs free energy:                -3.409071462243761        -92.7656         -2139.22         -8950.52
 
 
 
  (c) The properties marked with this symbol have been corrected using 'low vibrational frequency free rotor
      interpolation corrections'. For those terms all positive frequencies are used (also ones below 20 1/cm),
      but the contribution to the partition function of small vibrational frequencies is modified as described
      in the following paper:
      S. Grimme, 'Supramolecular Binding Thermodynamics by Dispersion-Corrected Density Functional Theory'
      (Chem. Eur. J. 2012, 18, 9955-9964)
      Configuration: Dampener Frequency          :   100.000 1/cm
                     Dampener Alpha              :     4.000
                     Averaging Moment of Inertia : 1.000E-44 kg m2

--------------
Atomic charges
--------------
  Index   Atom    Charge
      1     Pa    2.8365
      2      N   -0.4436
      3      H    0.0155
      4      O   -0.5806
      5      H    0.0150
      6      O   -0.5812
      7      H    0.0151
      8      O   -0.5785
      9      H    0.0009
     10      O   -0.5804
     11      C    0.0716
     12      S   -0.1903


Dipole moment vector    (Debye):    -2.02710028   -3.62756099    3.22924721
              magnitude (Debye):     5.26273425


Final PES point is a local minimum. Geometry optimization successful!


AMS application finished. Exiting.
NORMAL TERMINATION
     Total cpu time:   92543.99
  Total system time:    1863.50
 Total elapsed time:   94403.97
