

 Parallel Execution: Process Information
 ==============================================================================
 Rank   Node Name                              NodeID   MyNodeRank  NodeMaster
    0   don-0-0.local                             0          0          0
    1   don-0-0.local                             1          0          1
    2   don-0-0.local                             2          0          2
    3   don-0-0.local                             3          0          3
    4   don-0-0.local                             4          0          4
    5   don-0-0.local                             5          0          5
    6   don-0-0.local                             6          0          6
    7   don-0-0.local                             7          0          7
 ==============================================================================


May use up to 7811MB of RAM as shared memory on node 0
May use up to 7812MB of RAM as shared memory on node 1
May use up to 7812MB of RAM as shared memory on node 4
May use up to 7812MB of RAM as shared memory on node 6
May use up to 7812MB of RAM as shared memory on node 7
May use up to 7812MB of RAM as shared memory on node 2
May use up to 7812MB of RAM as shared memory on node 3
May use up to 7812MB of RAM as shared memory on node 5

 *******************************************************************************
 *                                                                             *
 *  --------------------------------                                           *
 *   Amsterdam Modeling Suite (AMS)              2022.103                      *
 *  --------------------------------                                           *
 *                                               r104886 2022-06-17            *
 *                                                                             *
 *                                                                             *
 *                              =================                              *
 *                              |               |                              *
 *                              |     A M S     |                              *
 *                              |               |                              *
 *                              =================                              *
 *                                                                             *
 *                                                                             *
 *   Online information and documentation:  https://www.scm.com/support/       *
 *   E-mail:  support@scm.com   info@scm.com                                   *
 *                                                                             *
 *   Scientific publications using AMS results must be properly referenced     *
 *   See the User Manuals (or the web site) for recommended citations          *
 *   The terms and conditions of the End User License Agreement apply to       *
 *   the use of AMS, https://www.scm.com/license-terms/                        *
 *                                                                             *
 **********************  x86_64_linux_intel / intelmpi  ************************
 
 Licensed to: Dr. Val?rie Vallet / Laboratoire PhLAM UMR 8523 / Villeneuve d'Ascq Cedex / FRANCE 2023-02-21 11:49:39
 SCM User ID: u10325
  
 AMS 2022.103  RunTime: Mar14-2023 00:28:13  ShM Nodes: 8  Procs: 8

 AMS jobname: pao_oh2_N_h2o.SR.b3lyp.tz2p.opt-freq-A2-solvation
 AMS jobid  : 350152541

 Start   directory: /home/shaaban/ams/PhD/thiocyanate/bnN/pao_oh2_N_h2o/solvation/
 Results directory: /home/shaaban/ams/PhD/thiocyanate/bnN/pao_oh2_N_h2o/solvation/pao_oh2_N_h2o.SR.b3lyp.tz2p.opt-freq-A2-solvation.results/
 Scratch directory: /state/partition1/shaaban/934978.phlam-s-sakura/amstmp_pao_oh2_N_h2o.SR.b3lyp.tz2p.opt-freq-A2-solvation_kid0.350152541/


 Communication costs MPI_COMM_WORLD:      4.585 usec per message,   0.1131 usec per 8-byte item
 Communication costs for intra-node:      0.294 usec per message,   0.0016 usec per 8-byte item

 RNG seed: -1820154975 -210680020 572102483 466290094 956395396 -1012372602 -217792966 1553671154



                      ************************************************************************
                      *  ADF 2022.103  RunTime: Mar14-2023 00:28:14  ShM Nodes: 8  Procs: 8  *
                      ************************************************************************
  
       ***************************
       *  GEOMETRY OPTIMIZATION  *
       ***************************

Optimization Method                    Quasi Newton
Optimization Coordinates               Delocalized Coordinates
Optimize lattice                       F
 
 ------------------------------------------------------
 Convergence criteria (Hartree,Angstrom)
 ------------------------------------------------------
 Maximum gradient               0.000100000000
 Maximum rms gradient           0.000066666667
 Maximum step allowed           0.001000000000
 Maximum rms step allowed       0.000666666667
 Maximum energy change allowe   0.000012000000
 Maximum stress energy allowe   0.000500000000
 
Initial model Hessian                  Automatic Hessian
 
------------------------------------
Quasi-Newton Optimizer Parameters
------------------------------------
Hessian Update Method                  BFGS
Maximum number of steps                  250
First GDIIS cycle                          0
Maximum GDIIS vectors                      0
Trust radius (bohr)                        0.200000
Trust radius varies                        T
Constraints converged at all steps         T
Use projector                              T
 
 Rigid motions settings for: old optimizer
 Atomic rotations (x,y,z):     T T T
 Atomic translations (x,y,z):  T T T
 Tolerance:                   1.000000000000000E-006
 
--------
Geometry
--------
Formula: CH4NO4PaS
Atoms
  Index Symbol   x (angstrom)   y (angstrom)   z (angstrom)
      1     Pa    -0.19696929     0.06054024     0.82872573       adf.R=2.200
      2      O     1.11258836     1.46961294    -0.14218011       adf.R=1.517
      3      O    -1.79432074     0.80735024    -0.34577190       adf.R=1.517
      4      N    -0.76866686     1.44532079     2.62626424       adf.R=1.608
      5      H    -1.93978192     1.62812553    -0.83441570       adf.R=1.350
      6      O     0.05930024    -1.64719568    -1.00859677       adf.R=1.517
      7      H    -0.36448826    -1.61424860    -1.87613364       adf.R=1.350
      8      H     0.76748299    -2.30185692    -1.06225282       adf.R=1.350
      9      H     2.06441769     1.55221237    -0.01218808       adf.R=1.350
     10      O     1.14039643    -0.88479193     1.73322065       adf.R=1.517
     11      S    -3.83596784     2.84557536     3.03207904       adf.R=1.792
     12      C    -2.42689909     2.11365039     2.83507373       adf.R=1.700
 
Total System Charge             0.00000
Bonding info available!
 
 
----------------
ADF Engine Input
----------------
 
 Basis
 Type TZ2P
 Core None
 End
 XC
 Hybrid B3LYP
 End
 Solvation
 Surf Delley
 Solv name=Water cav0=0.0 cav1=0.0067639
 Charged method=CONJ
 C-Mat POT
 SCF VAR ALL
 CSMRSP
 End
 NumericalQuality Good
 

 Title: *** (NO TITLE) ***

Bad geometry: could not add a dihedral for atom   11
 Using automatic Hessian for delocalized coordinates.
 *** GO1_GOStep1 ***

 SOLVATION
-------------------------------------------

  The Delley construction of COSMO surface surface is calculated

       Division Level for Surface Triangles (NDIV)                  3
       Final Division Level for Triangles (NFDIV)                   1
       Radius of the Solvent (RSOL)                           1.93000 angstr
  Dielectric Constant (EPSL)                                 78.39000

       COSMO equation is solved iteratively-               conjugate-gradient

       Maximun of Iterations for Charges (NCIX)                  1000
       Criterion for Charge convergence (CCNV)                1.0E-08

  COSMO charges included variationally in SCF

       COSMO included at every SCF cycle

  Geometry-dependent empirical factor                         0.00000

  C-Matrix calculated in cspmtx

  In cspmtx, C-Matrix calculated using fitted potential

-------------------------------------------



 -------------------------------------------
  COSMO surface
  Area             =          618.900
  Volume           =         1021.158
  Number of Points =         1525
 -------------------------------------------



 ======================
 RI Hartree-Fock Scheme
 ======================
  
 Fit Set Quality     : GOOD
 Threshold Quality   : GOOD
 Integration Quality : GOOD
 Response Quality    : DEFAULT
 Is Range Separated  :  F
 
 RIHartreeFock Dependency: number of modified vectors:           5
 cosmo_calcen: 0.5 (esolb+esolc) (Hartrees) =   -0.073721

 Solvation energy (screening term,uncorrected) =    -46.260602 kcal/mol

 Solvation energy (dispersion and cavitation terms) =      1.157296 kcal/mol
 Solvation Energy Contributions (Hartrees)
          esola   esolb+esolc
     0.07372095   -0.14744191
 esol last cycle   -0.07372095
  
 Hartree-Fock exchange energy:   -537.114161179272     
 cosmo_calcen: 0.5 (esolb+esolc) (Hartrees) =   -0.073721

 Solvation energy (screening term,uncorrected) =    -46.260615 kcal/mol

 Solvation energy (dispersion and cavitation terms) =      1.157296 kcal/mol
 Solvation Energy Contributions (Hartrees)
          esola   esolb+esolc
     0.07372097   -0.14744195
 esol last cycle   -0.07372097

 Energy gradients wrt nuclear displacements
 ==========================================

     Atom      Cartesian (a.u./angstrom)
                 X         Y         Z
 ----------------------------------------
     1 Pa    0.020161 -0.013034 -0.002268
     2 O    -0.004106 -0.001956  0.001486
     3 O    -0.000066  0.002835  0.003491
     4 N     0.247388 -0.095294 -0.043928
     5 H    -0.000082  0.000834 -0.000489
     6 O    -0.000382  0.002192  0.001753
     7 H    -0.000091  0.000278  0.000126
     8 H     0.000030  0.000341  0.000382
     9 H     0.000248 -0.000079  0.000233
    10 O    -0.004795  0.000024 -0.004406
    11 S    -0.108122  0.058447  0.011198
    12 C    -0.150183  0.045411  0.032422
 ----------------------------------------
 Mulliken charges used for AMS results%charges...
 
----------------------------------------------------------------------
Geometry Convergence after Step   1       (Hartree/Angstrom,Angstrom)
----------------------------------------------------------------------
current energy                               -3.25942171 Hartree
energy change                      -3.25942171     0.00001200    F
constrained gradient max            0.24736800     0.00010000    F
constrained gradient rms            0.05622083     0.00006667    F
gradient max                        0.24736135
gradient rms                        0.05622084
cart. step max                      0.08494918     0.00100000    F
cart. step rms                      0.02770289     0.00066667    F
 
 
--------
Geometry
--------
Formula: CH4NO4PaS
Atoms
  Index Symbol   x (angstrom)   y (angstrom)   z (angstrom)
      1     Pa    -0.21894191     0.07698906     0.83587868       adf.R=2.200
      2      O     1.10040955     1.48174253    -0.13096996       adf.R=1.517
      3      O    -1.80815537     0.81842730    -0.35310991       adf.R=1.517
      4      N    -0.78600519     1.45548113     2.63668423       adf.R=1.608
      5      H    -1.95043039     1.63691030    -0.84595288       adf.R=1.350
      6      O     0.04609196    -1.63828146    -0.99480138       adf.R=1.517
      7      H    -0.37263299    -1.60789772    -1.86492770       adf.R=1.350
      8      H     0.75364820    -2.29417515    -1.04237828       adf.R=1.350
      9      H     2.05167473     1.56223158     0.00379889       adf.R=1.350
     10      O     1.11430529    -0.86760807     1.75037638       adf.R=1.517
     11      S    -3.75101866     2.77274096     2.97862115       adf.R=1.792
     12      C    -2.36185352     2.07773426     2.80060516       adf.R=1.700
 
Total System Charge             0.00000
Bonding info available!
 
 *** GO1_GOStep2 ***

 SOLVATION
-------------------------------------------

  The Delley construction of COSMO surface surface is calculated

       Division Level for Surface Triangles (NDIV)                  3
       Final Division Level for Triangles (NFDIV)                   1
       Radius of the Solvent (RSOL)                           1.93000 angstr
  Dielectric Constant (EPSL)                                 78.39000

       COSMO equation is solved iteratively-               conjugate-gradient

       Maximun of Iterations for Charges (NCIX)                  1000
       Criterion for Charge convergence (CCNV)                1.0E-08

  COSMO charges included variationally in SCF

       COSMO included at every SCF cycle

  Geometry-dependent empirical factor                         0.00000

  C-Matrix calculated in cspmtx

  In cspmtx, C-Matrix calculated using fitted potential

-------------------------------------------



 -------------------------------------------
  COSMO surface
  Area             =          615.575
  Volume           =         1016.692
  Number of Points =         1515
 -------------------------------------------



 ======================
 RI Hartree-Fock Scheme
 ======================
  
 Fit Set Quality     : GOOD
 Threshold Quality   : GOOD
 Integration Quality : GOOD
 Response Quality    : DEFAULT
 Is Range Separated  :  F
 
 RIHartreeFock Dependency: number of modified vectors:           5
 cosmo_calcen: 0.5 (esolb+esolc) (Hartrees) =   -0.072094

 Solvation energy (screening term,uncorrected) =    -45.239568 kcal/mol

 Solvation energy (dispersion and cavitation terms) =      1.151077 kcal/mol
 Solvation Energy Contributions (Hartrees)
          esola   esolb+esolc
     0.07209383   -0.14418767
 esol last cycle   -0.07209383
  
 Hartree-Fock exchange energy:   -537.163748447062     
 cosmo_calcen: 0.5 (esolb+esolc) (Hartrees) =   -0.072094

 Solvation energy (screening term,uncorrected) =    -45.239511 kcal/mol

 Solvation energy (dispersion and cavitation terms) =      1.151077 kcal/mol
 Solvation Energy Contributions (Hartrees)
          esola   esolb+esolc
     0.07209374   -0.14418749
 esol last cycle   -0.07209374

 Energy gradients wrt nuclear displacements
 ==========================================

     Atom      Cartesian (a.u./angstrom)
                 X         Y         Z
 ----------------------------------------
     1 Pa    0.013752 -0.009903 -0.002511
     2 O    -0.002827 -0.001330  0.001105
     3 O    -0.000091  0.002666  0.002472
     4 N     0.286850 -0.107809 -0.039469
     5 H     0.000058  0.000260 -0.000170
     6 O    -0.000475  0.002068  0.001705
     7 H    -0.000089  0.000255  0.000053
     8 H     0.000076  0.000232  0.000296
     9 H     0.000116 -0.000034  0.000103
    10 O    -0.002999 -0.000442 -0.002746
    11 S    -0.053022  0.029360  0.003715
    12 C    -0.241351  0.084678  0.035446
 ----------------------------------------
 Mulliken charges used for AMS results%charges...

 dE(predicted):    -0.24134E-01, dE(actual):    -0.33255E-01, Trust radius:    0.400000, all in a.u.
 
----------------------------------------------------------------------
Geometry Convergence after Step   2       (Hartree/Angstrom,Angstrom)
----------------------------------------------------------------------
current energy                               -3.29267715 Hartree
energy change                      -0.03325544     0.00001200    F
constrained gradient max            0.28682330     0.00010000    F
constrained gradient rms            0.06793983     0.00006667    F
gradient max                        0.28681714
gradient rms                        0.06793983
cart. step max                      0.14378201     0.00100000    F
cart. step rms                      0.04641041     0.00066667    F
 
 
--------
Geometry
--------
Formula: CH4NO4PaS
Atoms
  Index Symbol   x (angstrom)   y (angstrom)   z (angstrom)
      1     Pa    -0.26008749     0.09885641     0.84491894       adf.R=2.200
      2      O     1.07300387     1.50151896    -0.10957551       adf.R=1.517
      3      O    -1.83360987     0.83001603    -0.37124428       adf.R=1.517
      4      N    -0.84048964     1.47317091     2.64113553       adf.R=1.608
      5      H    -1.97088541     1.64546336    -0.87040960       adf.R=1.350
      6      O     0.03198322    -1.62553446    -0.97579076       adf.R=1.517
      7      H    -0.37497903    -1.59957772    -1.85165051       adf.R=1.350
      8      H     0.74072657    -2.28095350    -1.01122088       adf.R=1.350
      9      H     2.02240503     1.58234838     0.03722791       adf.R=1.350
     10      O     1.06384240    -0.84108119     1.78052063       adf.R=1.517
     11      S    -3.60723666     2.67752611     2.90833170       adf.R=1.792
     12      C    -2.22758128     2.01254143     2.75158121       adf.R=1.700
 
Total System Charge             0.00000
Bonding info available!
 
 *** GO1_GOStep3 ***

 SOLVATION
-------------------------------------------

  The Delley construction of COSMO surface surface is calculated

       Division Level for Surface Triangles (NDIV)                  3
       Final Division Level for Triangles (NFDIV)                   1
       Radius of the Solvent (RSOL)                           1.93000 angstr
  Dielectric Constant (EPSL)                                 78.39000

       COSMO equation is solved iteratively-               conjugate-gradient

       Maximun of Iterations for Charges (NCIX)                  1000
       Criterion for Charge convergence (CCNV)                1.0E-08

  COSMO charges included variationally in SCF

       COSMO included at every SCF cycle

  Geometry-dependent empirical factor                         0.00000

  C-Matrix calculated in cspmtx

  In cspmtx, C-Matrix calculated using fitted potential

-------------------------------------------



 -------------------------------------------
  COSMO surface
  Area             =          605.344
  Volume           =         1002.920
  Number of Points =         1507
 -------------------------------------------



 ======================
 RI Hartree-Fock Scheme
 ======================
  
 Fit Set Quality     : GOOD
 Threshold Quality   : GOOD
 Integration Quality : GOOD
 Response Quality    : DEFAULT
 Is Range Separated  :  F
 
 RIHartreeFock Dependency: number of modified vectors:           5
 cosmo_calcen: 0.5 (esolb+esolc) (Hartrees) =   -0.066101

 Solvation energy (screening term,uncorrected) =    -41.478833 kcal/mol

 Solvation energy (dispersion and cavitation terms) =      1.131947 kcal/mol
 Solvation Energy Contributions (Hartrees)
          esola   esolb+esolc
     0.06610072   -0.13220144
 esol last cycle   -0.06610072
  
 Hartree-Fock exchange energy:   -537.270785511547     
 cosmo_calcen: 0.5 (esolb+esolc) (Hartrees) =   -0.066101

 Solvation energy (screening term,uncorrected) =    -41.478825 kcal/mol

 Solvation energy (dispersion and cavitation terms) =      1.131947 kcal/mol
 Solvation Energy Contributions (Hartrees)
          esola   esolb+esolc
     0.06610071   -0.13220142
 esol last cycle   -0.06610071

 Energy gradients wrt nuclear displacements
 ==========================================

     Atom      Cartesian (a.u./angstrom)
                 X         Y         Z
 ----------------------------------------
     1 Pa   -0.000909 -0.000581  0.003566
     2 O     0.000674  0.000606 -0.000663
     3 O    -0.001961  0.002574 -0.000687
     4 N     0.336947 -0.125327 -0.032642
     5 H     0.000126 -0.000245  0.000113
     6 O    -0.000221  0.001223  0.000924
     7 H    -0.000019  0.000186  0.000025
     8 H     0.000053  0.000093  0.000041
     9 H    -0.000157  0.000090 -0.000094
    10 O     0.001769 -0.002491  0.001114
    11 S     0.017534 -0.004413 -0.003456
    12 C    -0.353836  0.128287  0.031759
 ----------------------------------------
 Mulliken charges used for AMS results%charges...

 dE(predicted):    -0.60810E-01, dE(actual):    -0.73536E-01, Trust radius:    0.800000, all in a.u.
 
----------------------------------------------------------------------
Geometry Convergence after Step   3       (Hartree/Angstrom,Angstrom)
----------------------------------------------------------------------
current energy                               -3.36621286 Hartree
energy change                      -0.07353571     0.00001200    F
constrained gradient max            0.35384876     0.00010000    F
constrained gradient rms            0.08713799     0.00006667    F
gradient max                        0.35385332
gradient rms                        0.08713799
cart. step max                      0.21178359     0.00100000    F
cart. step rms                      0.06355632     0.00066667    F
 
 
--------
Geometry
--------
Formula: CH4NO4PaS
Atoms
  Index Symbol   x (angstrom)   y (angstrom)   z (angstrom)
      1     Pa    -0.32122372     0.12037622     0.84792894       adf.R=2.200
      2      O     1.02739612     1.52607515    -0.07832300       adf.R=1.517
      3      O    -1.86682371     0.83492418    -0.40997333       adf.R=1.517
      4      N    -0.94918536     1.50036227     2.62807196       adf.R=1.608
      5      H    -1.99664680     1.64707697    -0.91705439       adf.R=1.350
      6      O     0.02484152    -1.61333123    -0.95677260       adf.R=1.517
      7      H    -0.36051283    -1.59444602    -1.84257158       adf.R=1.350
      8      H     0.73762419    -2.26514471    -0.97111929       adf.R=1.350
      9      H     1.97249774     1.61218773     0.09215723       adf.R=1.350
     10      O     0.98302146    -0.80697908     1.81899966       adf.R=1.517
     11      S    -3.41809920     2.58615270     2.85850730       adf.R=1.792
     12      C    -2.01579769     1.92704054     2.70397347       adf.R=1.700
 
Total System Charge             0.00000
Bonding info available!
 
 *** GO1_GOStep4 ***

 SOLVATION
-------------------------------------------

  The Delley construction of COSMO surface surface is calculated

       Division Level for Surface Triangles (NDIV)                  3
       Final Division Level for Triangles (NFDIV)                   1
       Radius of the Solvent (RSOL)                           1.93000 angstr
  Dielectric Constant (EPSL)                                 78.39000

       COSMO equation is solved iteratively-               conjugate-gradient

       Maximun of Iterations for Charges (NCIX)                  1000
       Criterion for Charge convergence (CCNV)                1.0E-08

  COSMO charges included variationally in SCF

       COSMO included at every SCF cycle

  Geometry-dependent empirical factor                         0.00000

  C-Matrix calculated in cspmtx

  In cspmtx, C-Matrix calculated using fitted potential

-------------------------------------------



 -------------------------------------------
  COSMO surface
  Area             =          594.430
  Volume           =          985.540
  Number of Points =         1477
 -------------------------------------------



 ======================
 RI Hartree-Fock Scheme
 ======================
  
 Fit Set Quality     : GOOD
 Threshold Quality   : GOOD
 Integration Quality : GOOD
 Response Quality    : DEFAULT
 Is Range Separated  :  F
 
 RIHartreeFock Dependency: number of modified vectors:           6
 cosmo_calcen: 0.5 (esolb+esolc) (Hartrees) =   -0.064890

 Solvation energy (screening term,uncorrected) =    -40.719199 kcal/mol

 Solvation energy (dispersion and cavitation terms) =      1.111538 kcal/mol
 Solvation Energy Contributions (Hartrees)
          esola   esolb+esolc
     0.06489017   -0.12978034
 esol last cycle   -0.06489017
  
 Hartree-Fock exchange energy:   -537.553845200285     
 cosmo_calcen: 0.5 (esolb+esolc) (Hartrees) =   -0.064890

 Solvation energy (screening term,uncorrected) =    -40.719200 kcal/mol

 Solvation energy (dispersion and cavitation terms) =      1.111538 kcal/mol
 Solvation Energy Contributions (Hartrees)
          esola   esolb+esolc
     0.06489017   -0.12978034
 esol last cycle   -0.06489017

 Energy gradients wrt nuclear displacements
 ==========================================

     Atom      Cartesian (a.u./angstrom)
                 X         Y         Z
 ----------------------------------------
     1 Pa   -0.026764  0.021453  0.025929
     2 O     0.007286  0.004726 -0.004511
     3 O    -0.006864  0.002998 -0.007917
     4 N    -0.132993  0.056228  0.006715
     5 H     0.000008 -0.000669  0.000657
     6 O     0.000549 -0.001471 -0.001370
     7 H     0.000236 -0.000076 -0.000081
     8 H    -0.000094  0.000010 -0.000308
     9 H    -0.000532  0.000243 -0.000238
    10 O     0.010069 -0.007271  0.007106
    11 S     0.078146 -0.032033 -0.007723
    12 C     0.070952 -0.044138 -0.018259
 ----------------------------------------
 Mulliken charges used for AMS results%charges...
 Rebuilding optimization coordinates

 dE(predicted):    -0.13207E+00, dE(actual):    -0.73287E-01, Trust radius:    0.800000, all in a.u.
 
----------------------------------------------------------------------
Geometry Convergence after Step   4       (Hartree/Angstrom,Angstrom)
----------------------------------------------------------------------
current energy                               -3.43949999 Hartree
energy change                      -0.07328713     0.00001200    F
constrained gradient max            0.13294650     0.00010000    F
constrained gradient rms            0.03235046     0.00006667    F
gradient max                        0.13295196
gradient rms                        0.03235046
cart. step max                      0.10530591     0.00100000    F
cart. step rms                      0.03474375     0.00066667    F
 
 
--------
Geometry
--------
Formula: CH4NO4PaS
Atoms
  Index Symbol   x (angstrom)   y (angstrom)   z (angstrom)
      1     Pa    -0.30931830     0.09658118     0.83006741       adf.R=2.200
      2      O     1.03222023     1.51291174    -0.08287336       adf.R=1.517
      3      O    -1.85465575     0.81178738    -0.42231392       adf.R=1.517
      4      N    -0.94583187     1.48039994     2.61751794       adf.R=1.608
      5      H    -1.98610141     1.62558138    -0.92683708       adf.R=1.350
      6      O     0.04673325    -1.62783603    -0.98013591       adf.R=1.517
      7      H    -0.33804316    -1.60767531    -1.86616007       adf.R=1.350
      8      H     0.76204018    -2.27691204    -0.99549742       adf.R=1.350
      9      H     1.97651787     1.60248143     0.09121482       adf.R=1.350
     10      O     0.99324433    -0.82462181     1.80140067       adf.R=1.517
     11      S    -3.49589575     2.65714078     2.96381321       adf.R=1.792
     12      C    -2.06381790     2.02445608     2.74362808       adf.R=1.700
 
Total System Charge             0.00000
Bonding info available!
 
 *** GO1_GOStep5 ***

 SOLVATION
-------------------------------------------

  The Delley construction of COSMO surface surface is calculated

       Division Level for Surface Triangles (NDIV)                  3
       Final Division Level for Triangles (NFDIV)                   1
       Radius of the Solvent (RSOL)                           1.93000 angstr
  Dielectric Constant (EPSL)                                 78.39000

       COSMO equation is solved iteratively-               conjugate-gradient

       Maximun of Iterations for Charges (NCIX)                  1000
       Criterion for Charge convergence (CCNV)                1.0E-08

  COSMO charges included variationally in SCF

       COSMO included at every SCF cycle

  Geometry-dependent empirical factor                         0.00000

  C-Matrix calculated in cspmtx

  In cspmtx, C-Matrix calculated using fitted potential

-------------------------------------------



 -------------------------------------------
  COSMO surface
  Area             =          600.631
  Volume           =          992.857
  Number of Points =         1496
 -------------------------------------------



 ======================
 RI Hartree-Fock Scheme
 ======================
  
 Fit Set Quality     : GOOD
 Threshold Quality   : GOOD
 Integration Quality : GOOD
 Response Quality    : DEFAULT
 Is Range Separated  :  F
 
 RIHartreeFock Dependency: number of modified vectors:           5
 cosmo_calcen: 0.5 (esolb+esolc) (Hartrees) =   -0.063625

 Solvation energy (screening term,uncorrected) =    -39.925510 kcal/mol

 Solvation energy (dispersion and cavitation terms) =      1.123134 kcal/mol
 Solvation Energy Contributions (Hartrees)
          esola   esolb+esolc
     0.06362534   -0.12725069
 esol last cycle   -0.06362534
  
 Hartree-Fock exchange energy:   -537.431650804815     
 cosmo_calcen: 0.5 (esolb+esolc) (Hartrees) =   -0.063625

 Solvation energy (screening term,uncorrected) =    -39.925502 kcal/mol

 Solvation energy (dispersion and cavitation terms) =      1.123134 kcal/mol
 Solvation Energy Contributions (Hartrees)
          esola   esolb+esolc
     0.06362533   -0.12725066
 esol last cycle   -0.06362533

 Energy gradients wrt nuclear displacements
 ==========================================

     Atom      Cartesian (a.u./angstrom)
                 X         Y         Z
 ----------------------------------------
     1 Pa   -0.013920  0.011384  0.016844
     2 O     0.004137  0.002799 -0.002646
     3 O    -0.004315  0.001778 -0.004712
     4 N     0.151659 -0.081190 -0.020276
     5 H    -0.000042 -0.000126  0.000349
     6 O     0.000339 -0.000924 -0.000920
     7 H     0.000116  0.000012 -0.000091
     8 H     0.000021 -0.000024 -0.000140
     9 H    -0.000146  0.000112 -0.000036
    10 O     0.004659 -0.003581  0.003142
    11 S     0.011652 -0.010321 -0.001401
    12 C    -0.154160  0.080080  0.009887
 ----------------------------------------
 Mulliken charges used for AMS results%charges...

 dE(predicted):    -0.10575E-01, dE(actual):    -0.13125E-02, Trust radius:    0.111474, all in a.u.
 
----------------------------------------------------------------------
Geometry Convergence after Step   5       (Hartree/Angstrom,Angstrom)
----------------------------------------------------------------------
current energy                               -3.44081245 Hartree
energy change                      -0.00131246     0.00001200    F
constrained gradient max            0.15413545     0.00010000    F
constrained gradient rms            0.04124889     0.00006667    F
gradient max                        0.15413545
gradient rms                        0.04124889
cart. step max                      0.03404190     0.00100000    F
cart. step rms                      0.00888027     0.00066667    F
 
 
--------
Geometry
--------
Formula: CH4NO4PaS
Atoms
  Index Symbol   x (angstrom)   y (angstrom)   z (angstrom)
      1     Pa    -0.31151393     0.09389071     0.82803144       adf.R=2.200
      2      O     1.02750016     1.51242533    -0.08026432       adf.R=1.517
      3      O    -1.85207479     0.80487326    -0.42859748       adf.R=1.517
      4      N    -0.97987377     1.49004948     2.60958713       adf.R=1.608
      5      H    -1.98309880     1.61807048    -0.93445582       adf.R=1.350
      6      O     0.04959112    -1.62816375    -0.98265389       adf.R=1.517
      7      H    -0.33384352    -1.60779754    -1.86924264       adf.R=1.350
      8      H     0.76583007    -2.27622221    -0.99730671       adf.R=1.350
      9      H     1.97105074     1.60458221     0.09687823       adf.R=1.350
     10      O     0.98779218    -0.82193184     1.80401189       adf.R=1.517
     11      S    -3.47824180     2.66582217     2.98256484       adf.R=1.792
     12      C    -2.04602595     2.01869640     2.74527173       adf.R=1.700
 
Total System Charge             0.00000
Bonding info available!
 
 *** GO1_GOStep6 ***

 SOLVATION
-------------------------------------------

  The Delley construction of COSMO surface surface is calculated

       Division Level for Surface Triangles (NDIV)                  3
       Final Division Level for Triangles (NFDIV)                   1
       Radius of the Solvent (RSOL)                           1.93000 angstr
  Dielectric Constant (EPSL)                                 78.39000

       COSMO equation is solved iteratively-               conjugate-gradient

       Maximun of Iterations for Charges (NCIX)                  1000
       Criterion for Charge convergence (CCNV)                1.0E-08

  COSMO charges included variationally in SCF

       COSMO included at every SCF cycle

  Geometry-dependent empirical factor                         0.00000

  C-Matrix calculated in cspmtx

  In cspmtx, C-Matrix calculated using fitted potential

-------------------------------------------



 -------------------------------------------
  COSMO surface
  Area             =          599.430
  Volume           =          989.559
  Number of Points =         1487
 -------------------------------------------



 ======================
 RI Hartree-Fock Scheme
 ======================
  
 Fit Set Quality     : GOOD
 Threshold Quality   : GOOD
 Integration Quality : GOOD
 Response Quality    : DEFAULT
 Is Range Separated  :  F
 
 RIHartreeFock Dependency: number of modified vectors:           5
 cosmo_calcen: 0.5 (esolb+esolc) (Hartrees) =   -0.064766

 Solvation energy (screening term,uncorrected) =    -40.641010 kcal/mol

 Solvation energy (dispersion and cavitation terms) =      1.120888 kcal/mol
 Solvation Energy Contributions (Hartrees)
          esola   esolb+esolc
     0.06476556   -0.12953113
 esol last cycle   -0.06476556
  
 Hartree-Fock exchange energy:   -537.481960918438     
 cosmo_calcen: 0.5 (esolb+esolc) (Hartrees) =   -0.064766

 Solvation energy (screening term,uncorrected) =    -40.641039 kcal/mol

 Solvation energy (dispersion and cavitation terms) =      1.120888 kcal/mol
 Solvation Energy Contributions (Hartrees)
          esola   esolb+esolc
     0.06476561   -0.12953122
 esol last cycle   -0.06476561

 Energy gradients wrt nuclear displacements
 ==========================================

     Atom      Cartesian (a.u./angstrom)
                 X         Y         Z
 ----------------------------------------
     1 Pa   -0.014603  0.012437  0.018710
     2 O     0.004477  0.002906 -0.003073
     3 O    -0.004493  0.001644 -0.005177
     4 N     0.033109 -0.023517 -0.005510
     5 H    -0.000072 -0.000073  0.000425
     6 O     0.000362 -0.001334 -0.001446
     7 H     0.000172 -0.000043 -0.000078
     8 H     0.000007 -0.000005 -0.000146
     9 H    -0.000197  0.000086  0.000015
    10 O     0.004488 -0.003549  0.002771
    11 S     0.015693 -0.012317 -0.002030
    12 C    -0.038944  0.023765 -0.004463
 ----------------------------------------
 Mulliken charges used for AMS results%charges...

 dE(predicted):    -0.68026E-02, dE(actual):    -0.57827E-02, Trust radius:    0.222947, all in a.u.
 
----------------------------------------------------------------------
Geometry Convergence after Step   6       (Hartree/Angstrom,Angstrom)
----------------------------------------------------------------------
current energy                               -3.44659515 Hartree
energy change                      -0.00578270     0.00001200    F
constrained gradient max            0.03890769     0.00010000    F
constrained gradient rms            0.01182439     0.00006667    F
gradient max                        0.03890769
gradient rms                        0.01182439
cart. step max                      0.10892576     0.00100000    F
cart. step rms                      0.03296767     0.00066667    F
 
 
--------
Geometry
--------
Formula: CH4NO4PaS
Atoms
  Index Symbol   x (angstrom)   y (angstrom)   z (angstrom)
      1     Pa    -0.32120374     0.07204507     0.81081432       adf.R=2.200
      2      O     1.00885025     1.50810603    -0.07409989       adf.R=1.517
      3      O    -1.85140875     0.77419081    -0.45640713       adf.R=1.517
      4      N    -1.03173495     1.48257683     2.58427524       adf.R=1.608
      5      H    -1.98197944     1.58647973    -0.96415993       adf.R=1.350
      6      O     0.07723396    -1.63721749    -1.00198533       adf.R=1.517
      7      H    -0.29717098    -1.61718468    -1.89241961       adf.R=1.350
      8      H     0.80010521    -2.27798521    -1.01120526       adf.R=1.350
      9      H     1.94934869     1.61026081     0.11405941       adf.R=1.350
     10      O     0.97311297    -0.82632211     1.80279518       adf.R=1.517
     11      S    -3.44349633     2.77474794     3.08717509       adf.R=1.792
     12      C    -2.06456518     2.02459700     2.77498228       adf.R=1.700
 
Total System Charge             0.00000
Bonding info available!
 
 *** GO1_GOStep7 ***

 SOLVATION
-------------------------------------------

  The Delley construction of COSMO surface surface is calculated

       Division Level for Surface Triangles (NDIV)                  3
       Final Division Level for Triangles (NFDIV)                   1
       Radius of the Solvent (RSOL)                           1.93000 angstr
  Dielectric Constant (EPSL)                                 78.39000

       COSMO equation is solved iteratively-               conjugate-gradient

       Maximun of Iterations for Charges (NCIX)                  1000
       Criterion for Charge convergence (CCNV)                1.0E-08

  COSMO charges included variationally in SCF

       COSMO included at every SCF cycle

  Geometry-dependent empirical factor                         0.00000

  C-Matrix calculated in cspmtx

  In cspmtx, C-Matrix calculated using fitted potential

-------------------------------------------



 -------------------------------------------
  COSMO surface
  Area             =          603.783
  Volume           =          992.413
  Number of Points =         1493
 -------------------------------------------



 ======================
 RI Hartree-Fock Scheme
 ======================
  
 Fit Set Quality     : GOOD
 Threshold Quality   : GOOD
 Integration Quality : GOOD
 Response Quality    : DEFAULT
 Is Range Separated  :  F
 
 RIHartreeFock Dependency: number of modified vectors:           6
 cosmo_calcen: 0.5 (esolb+esolc) (Hartrees) =   -0.066132

 Solvation energy (screening term,uncorrected) =    -41.498658 kcal/mol

 Solvation energy (dispersion and cavitation terms) =      1.129028 kcal/mol
 Solvation Energy Contributions (Hartrees)
          esola   esolb+esolc
     0.06613231   -0.13226463
 esol last cycle   -0.06613231
  
 Hartree-Fock exchange energy:   -537.495388471233     
 cosmo_calcen: 0.5 (esolb+esolc) (Hartrees) =   -0.066132

 Solvation energy (screening term,uncorrected) =    -41.498664 kcal/mol

 Solvation energy (dispersion and cavitation terms) =      1.129028 kcal/mol
 Solvation Energy Contributions (Hartrees)
          esola   esolb+esolc
     0.06613232   -0.13226465
 esol last cycle   -0.06613232

 Energy gradients wrt nuclear displacements
 ==========================================

     Atom      Cartesian (a.u./angstrom)
                 X         Y         Z
 ----------------------------------------
     1 Pa   -0.010890  0.010101  0.016499
     2 O     0.003314  0.002134 -0.002498
     3 O    -0.003153  0.000931 -0.004125
     4 N    -0.004929  0.003011  0.001770
     5 H    -0.000124  0.000072  0.000488
     6 O     0.000361 -0.001421 -0.001665
     7 H     0.000121 -0.000039 -0.000029
     8 H     0.000039 -0.000010 -0.000045
     9 H    -0.000162 -0.000005  0.000138
    10 O     0.002279 -0.001927  0.001155
    11 S     0.008928 -0.004919 -0.001205
    12 C     0.004217 -0.007928 -0.010483
 ----------------------------------------
 Mulliken charges used for AMS results%charges...

 dE(predicted):    -0.13242E-02, dE(actual):    -0.16238E-02, Trust radius:    0.445894, all in a.u.
 
----------------------------------------------------------------------
Geometry Convergence after Step   7       (Hartree/Angstrom,Angstrom)
----------------------------------------------------------------------
current energy                               -3.44821897 Hartree
energy change                      -0.00162382     0.00001200    F
constrained gradient max            0.01649012     0.00010000    F
constrained gradient rms            0.00497277     0.00006667    F
gradient max                        0.01649012
gradient rms                        0.00497277
cart. step max                      0.21181457     0.00100000    F
cart. step rms                      0.05873507     0.00066667    F
 
 
--------
Geometry
--------
Formula: CH4NO4PaS
Atoms
  Index Symbol   x (angstrom)   y (angstrom)   z (angstrom)
      1     Pa    -0.34428843     0.03717149     0.77247697       adf.R=2.200
      2      O     0.97770011     1.49913052    -0.06612219       adf.R=1.517
      3      O    -1.84873169     0.72776943    -0.52024170       adf.R=1.517
      4      N    -1.12431518     1.47693372     2.53149674       adf.R=1.608
      5      H    -1.97102706     1.53575719    -1.03730986       adf.R=1.350
      6      O     0.12534751    -1.65684880    -1.03304198       adf.R=1.517
      7      H    -0.22770922    -1.63996293    -1.93218048       adf.R=1.350
      8      H     0.85770486    -2.28679424    -1.02558416       adf.R=1.350
      9      H     1.91166406     1.61632291     0.14532514       adf.R=1.350
     10      O     0.93455810    -0.83204013     1.80099470       adf.R=1.517
     11      S    -3.38710941     2.91766766     3.29898966       adf.R=1.792
     12      C    -2.08670194     2.07918790     2.83902152       adf.R=1.700
 
Total System Charge             0.00000
Bonding info available!
 
 *** GO1_GOStep8 ***

 SOLVATION
-------------------------------------------

  The Delley construction of COSMO surface surface is calculated

       Division Level for Surface Triangles (NDIV)                  3
       Final Division Level for Triangles (NFDIV)                   1
       Radius of the Solvent (RSOL)                           1.93000 angstr
  Dielectric Constant (EPSL)                                 78.39000

       COSMO equation is solved iteratively-               conjugate-gradient

       Maximun of Iterations for Charges (NCIX)                  1000
       Criterion for Charge convergence (CCNV)                1.0E-08

  COSMO charges included variationally in SCF

       COSMO included at every SCF cycle

  Geometry-dependent empirical factor                         0.00000

  C-Matrix calculated in cspmtx

  In cspmtx, C-Matrix calculated using fitted potential

-------------------------------------------



 -------------------------------------------
  COSMO surface
  Area             =          605.532
  Volume           =          987.160
  Number of Points =         1495
 -------------------------------------------



 ======================
 RI Hartree-Fock Scheme
 ======================
  
 Fit Set Quality     : GOOD
 Threshold Quality   : GOOD
 Integration Quality : GOOD
 Response Quality    : DEFAULT
 Is Range Separated  :  F
 
 RIHartreeFock Dependency: number of modified vectors:           6
 cosmo_calcen: 0.5 (esolb+esolc) (Hartrees) =   -0.068270

 Solvation energy (screening term,uncorrected) =    -42.839802 kcal/mol

 Solvation energy (dispersion and cavitation terms) =      1.132298 kcal/mol
 Solvation Energy Contributions (Hartrees)
          esola   esolb+esolc
     0.06826956   -0.13653913
 esol last cycle   -0.06826956
  
 Hartree-Fock exchange energy:   -537.495854866085     
 cosmo_calcen: 0.5 (esolb+esolc) (Hartrees) =   -0.068270

 Solvation energy (screening term,uncorrected) =    -42.839775 kcal/mol

 Solvation energy (dispersion and cavitation terms) =      1.132298 kcal/mol
 Solvation Energy Contributions (Hartrees)
          esola   esolb+esolc
     0.06826952   -0.13653904
 esol last cycle   -0.06826952

 Energy gradients wrt nuclear displacements
 ==========================================

     Atom      Cartesian (a.u./angstrom)
                 X         Y         Z
 ----------------------------------------
     1 Pa   -0.003951  0.004859  0.009836
     2 O     0.001081  0.000675 -0.001199
     3 O    -0.001067  0.000012 -0.001867
     4 N    -0.012973  0.010854  0.007683
     5 H    -0.000186  0.000229  0.000386
     6 O     0.000339 -0.001567 -0.001929
     7 H     0.000035  0.000022  0.000050
     8 H     0.000043 -0.000043  0.000044
     9 H     0.000020 -0.000180  0.000248
    10 O    -0.000902  0.000384 -0.001245
    11 S    -0.002160  0.001560  0.001130
    12 C     0.019722 -0.016804 -0.013136
 ----------------------------------------
 Mulliken charges used for AMS results%charges...

 dE(predicted):    -0.11650E-02, dE(actual):    -0.18632E-02, Trust radius:    0.445894, all in a.u.
 
----------------------------------------------------------------------
Geometry Convergence after Step   8       (Hartree/Angstrom,Angstrom)
----------------------------------------------------------------------
current energy                               -3.45008216 Hartree
energy change                      -0.00186319     0.00001200    F
constrained gradient max            0.01973507     0.00010000    F
constrained gradient rms            0.00612405     0.00006667    F
gradient max                        0.01973507
gradient rms                        0.00612405
cart. step max                      0.21282769     0.00100000    F
cart. step rms                      0.05967006     0.00066667    F
 
 
--------
Geometry
--------
Formula: CH4NO4PaS
Atoms
  Index Symbol   x (angstrom)   y (angstrom)   z (angstrom)
      1     Pa    -0.37174539     0.00599159     0.73339258       adf.R=2.200
      2      O     0.94479271     1.49172341    -0.05896874       adf.R=1.517
      3      O    -1.84633703     0.68355960    -0.59136861       adf.R=1.517
      4      N    -1.22741787     1.47329681     2.47291853       adf.R=1.608
      5      H    -1.95789796     1.48606915    -1.11952704       adf.R=1.350
      6      O     0.17235953    -1.67409252    -1.05874569       adf.R=1.517
      7      H    -0.15720772    -1.66173408    -1.96682929       adf.R=1.350
      8      H     0.91364572    -2.29293387    -1.03198569       adf.R=1.350
      9      H     1.87098297     1.62403001     0.17666142       adf.R=1.350
     10      O     0.88929699    -0.83470035     1.80316792       adf.R=1.517
     11      S    -3.30251518     3.04298698     3.51181736       adf.R=1.792
     12      C    -2.11086505     2.13009798     2.90329162       adf.R=1.700
 
Total System Charge             0.00000
Bonding info available!
 
 *** GO1_GOStep9 ***

 SOLVATION
-------------------------------------------

  The Delley construction of COSMO surface surface is calculated

       Division Level for Surface Triangles (NDIV)                  3
       Final Division Level for Triangles (NFDIV)                   1
       Radius of the Solvent (RSOL)                           1.93000 angstr
  Dielectric Constant (EPSL)                                 78.39000

       COSMO equation is solved iteratively-               conjugate-gradient

       Maximun of Iterations for Charges (NCIX)                  1000
       Criterion for Charge convergence (CCNV)                1.0E-08

  COSMO charges included variationally in SCF

       COSMO included at every SCF cycle

  Geometry-dependent empirical factor                         0.00000

  C-Matrix calculated in cspmtx

  In cspmtx, C-Matrix calculated using fitted potential

-------------------------------------------



 -------------------------------------------
  COSMO surface
  Area             =          613.355
  Volume           =          992.826
  Number of Points =         1503
 -------------------------------------------



 ======================
 RI Hartree-Fock Scheme
 ======================
  
 Fit Set Quality     : GOOD
 Threshold Quality   : GOOD
 Integration Quality : GOOD
 Response Quality    : DEFAULT
 Is Range Separated  :  F
 
 RIHartreeFock Dependency: number of modified vectors:           7
 cosmo_calcen: 0.5 (esolb+esolc) (Hartrees) =   -0.070099

 Solvation energy (screening term,uncorrected) =    -43.987947 kcal/mol

 Solvation energy (dispersion and cavitation terms) =      1.146927 kcal/mol
 Solvation Energy Contributions (Hartrees)
          esola   esolb+esolc
     0.07009925   -0.14019849
 esol last cycle   -0.07009925
  
 Hartree-Fock exchange energy:   -537.484308023766     
 cosmo_calcen: 0.5 (esolb+esolc) (Hartrees) =   -0.070099

 Solvation energy (screening term,uncorrected) =    -43.987916 kcal/mol

 Solvation energy (dispersion and cavitation terms) =      1.146927 kcal/mol
 Solvation Energy Contributions (Hartrees)
          esola   esolb+esolc
     0.07009920   -0.14019840
 esol last cycle   -0.07009920

 Energy gradients wrt nuclear displacements
 ==========================================

     Atom      Cartesian (a.u./angstrom)
                 X         Y         Z
 ----------------------------------------
     1 Pa    0.001144  0.000518  0.002694
     2 O    -0.000560 -0.000375 -0.000208
     3 O     0.000546 -0.000509  0.000070
     4 N     0.007864 -0.000867  0.001294
     5 H    -0.000184  0.000256  0.000340
     6 O     0.000337 -0.001661 -0.002005
     7 H     0.000012  0.000024  0.000042
     8 H    -0.000022 -0.000014  0.000086
     9 H     0.000087 -0.000307  0.000256
    10 O    -0.001963  0.001235 -0.002161
    11 S    -0.006170  0.004730  0.002487
    12 C    -0.001091 -0.003029 -0.002896
 ----------------------------------------
 Mulliken charges used for AMS results%charges...

 dE(predicted):    -0.12408E-02, dE(actual):    -0.11909E-02, Trust radius:    0.445894, all in a.u.
 
----------------------------------------------------------------------
Geometry Convergence after Step   9       (Hartree/Angstrom,Angstrom)
----------------------------------------------------------------------
current energy                               -3.45127309 Hartree
energy change                      -0.00119093     0.00001200    F
constrained gradient max            0.00789596     0.00010000    F
constrained gradient rms            0.00221633     0.00006667    F
gradient max                        0.00789596
gradient rms                        0.00221633
cart. step max                      0.21398838     0.00100000    F
cart. step rms                      0.06410464     0.00066667    F
 
 
--------
Geometry
--------
Formula: CH4NO4PaS
Atoms
  Index Symbol   x (angstrom)   y (angstrom)   z (angstrom)
      1     Pa    -0.41227866    -0.02514765     0.69287807       adf.R=2.200
      2      O     0.90216470     1.48317585    -0.04852879       adf.R=1.517
      3      O    -1.85052985     0.63652505    -0.67201969       adf.R=1.517
      4      N    -1.34434056     1.47869845     2.40751483       adf.R=1.608
      5      H    -1.94728953     1.43084086    -1.21545168       adf.R=1.350
      6      O     0.22314604    -1.68623585    -1.07977715       adf.R=1.517
      7      H    -0.07556689    -1.67797581    -1.99849973       adf.R=1.350
      8      H     0.97502715    -2.29065281    -1.02881302       adf.R=1.350
      9      H     1.81829076     1.63164932     0.21519398       adf.R=1.350
     10      O     0.82474267    -0.83755663     1.81019980       adf.R=1.517
     11      S    -3.17755652     3.14839994     3.72580574       adf.R=1.792
     12      C    -2.11871761     2.18257400     2.96532202       adf.R=1.700
 
Total System Charge             0.00000
Bonding info available!
 
 *** GO1_GOStep10 ***

 SOLVATION
-------------------------------------------

  The Delley construction of COSMO surface surface is calculated

       Division Level for Surface Triangles (NDIV)                  3
       Final Division Level for Triangles (NFDIV)                   1
       Radius of the Solvent (RSOL)                           1.93000 angstr
  Dielectric Constant (EPSL)                                 78.39000

       COSMO equation is solved iteratively-               conjugate-gradient

       Maximun of Iterations for Charges (NCIX)                  1000
       Criterion for Charge convergence (CCNV)                1.0E-08

  COSMO charges included variationally in SCF

       COSMO included at every SCF cycle

  Geometry-dependent empirical factor                         0.00000

  C-Matrix calculated in cspmtx

  In cspmtx, C-Matrix calculated using fitted potential

-------------------------------------------



 -------------------------------------------
  COSMO surface
  Area             =          613.784
  Volume           =          987.869
  Number of Points =         1500
 -------------------------------------------



 ======================
 RI Hartree-Fock Scheme
 ======================
  
 Fit Set Quality     : GOOD
 Threshold Quality   : GOOD
 Integration Quality : GOOD
 Response Quality    : DEFAULT
 Is Range Separated  :  F
 
 RIHartreeFock Dependency: number of modified vectors:           6
 cosmo_calcen: 0.5 (esolb+esolc) (Hartrees) =   -0.072254

 Solvation energy (screening term,uncorrected) =    -45.339791 kcal/mol

 Solvation energy (dispersion and cavitation terms) =      1.147728 kcal/mol
 Solvation Energy Contributions (Hartrees)
          esola   esolb+esolc
     0.07225355   -0.14450710
 esol last cycle   -0.07225355
  
 Hartree-Fock exchange energy:   -537.478034950443     
 cosmo_calcen: 0.5 (esolb+esolc) (Hartrees) =   -0.072253

 Solvation energy (screening term,uncorrected) =    -45.339758 kcal/mol

 Solvation energy (dispersion and cavitation terms) =      1.147728 kcal/mol
 Solvation Energy Contributions (Hartrees)
          esola   esolb+esolc
     0.07225350   -0.14450699
 esol last cycle   -0.07225350

 Energy gradients wrt nuclear displacements
 ==========================================

     Atom      Cartesian (a.u./angstrom)
                 X         Y         Z
 ----------------------------------------
     1 Pa    0.004576 -0.003533 -0.004443
     2 O    -0.001486 -0.000906  0.000586
     3 O     0.001533 -0.000782  0.001494
     4 N     0.016416 -0.010127 -0.007195
     5 H    -0.000202  0.000166  0.000300
     6 O     0.000280 -0.001733 -0.002059
     7 H     0.000126 -0.000059 -0.000002
     8 H    -0.000088  0.000016  0.000156
     9 H     0.000064 -0.000449  0.000219
    10 O    -0.001672  0.001127 -0.001898
    11 S    -0.006727  0.005276  0.002820
    12 C    -0.012818  0.011004  0.010023
 ----------------------------------------
 Mulliken charges used for AMS results%charges...
 Rebuilding optimization coordinates
Bad geometry: could not add a dihedral for atom   11

 dE(predicted):    -0.69810E-03, dE(actual):    -0.47793E-03, Trust radius:    0.445894, all in a.u.
 
----------------------------------------------------------------------
Geometry Convergence after Step  10       (Hartree/Angstrom,Angstrom)
----------------------------------------------------------------------
current energy                               -3.45175102 Hartree
energy change                      -0.00047793     0.00001200    F
constrained gradient max            0.01645187     0.00010000    F
constrained gradient rms            0.00518489     0.00006667    F
gradient max                        0.01645187
gradient rms                        0.00518489
cart. step max                      0.05722999     0.00100000    F
cart. step rms                      0.01943621     0.00066667    F
 
 
--------
Geometry
--------
Formula: CH4NO4PaS
Atoms
  Index Symbol   x (angstrom)   y (angstrom)   z (angstrom)
      1     Pa    -0.43132292    -0.03192926     0.68193152       adf.R=2.200
      2      O     0.88581868     1.48059127    -0.04587399       adf.R=1.517
      3      O    -1.85604981     0.62535965    -0.69890012       adf.R=1.517
      4      N    -1.37361453     1.48114950     2.39051989       adf.R=1.608
      5      H    -1.94366624     1.41422349    -1.25180300       adf.R=1.350
      6      O     0.23804709    -1.68596067    -1.08091276       adf.R=1.517
      7      H    -0.04943825    -1.67975825    -2.00320144       adf.R=1.350
      8      H     0.99373242    -2.28486244    -1.02066997       adf.R=1.350
      9      H     1.79849902     1.63463796     0.22643126       adf.R=1.350
     10      O     0.79643167    -0.83795306     1.81536320       adf.R=1.517
     11      S    -3.12724571     3.16681004     3.78303573       adf.R=1.792
     12      C    -2.11409970     2.19198650     2.97790403       adf.R=1.700
 
Total System Charge             0.00000
Bonding info available!
 
 *** GO1_GOStep11 ***

 SOLVATION
-------------------------------------------

  The Delley construction of COSMO surface surface is calculated

       Division Level for Surface Triangles (NDIV)                  3
       Final Division Level for Triangles (NFDIV)                   1
       Radius of the Solvent (RSOL)                           1.93000 angstr
  Dielectric Constant (EPSL)                                 78.39000

       COSMO equation is solved iteratively-               conjugate-gradient

       Maximun of Iterations for Charges (NCIX)                  1000
       Criterion for Charge convergence (CCNV)                1.0E-08

  COSMO charges included variationally in SCF

       COSMO included at every SCF cycle

  Geometry-dependent empirical factor                         0.00000

  C-Matrix calculated in cspmtx

  In cspmtx, C-Matrix calculated using fitted potential

-------------------------------------------



 -------------------------------------------
  COSMO surface
  Area             =          613.008
  Volume           =          986.052
  Number of Points =         1507
 -------------------------------------------



 ======================
 RI Hartree-Fock Scheme
 ======================
  
 Fit Set Quality     : GOOD
 Threshold Quality   : GOOD
 Integration Quality : GOOD
 Response Quality    : DEFAULT
 Is Range Separated  :  F
 
 RIHartreeFock Dependency: number of modified vectors:           6
 cosmo_calcen: 0.5 (esolb+esolc) (Hartrees) =   -0.072950

 Solvation energy (screening term,uncorrected) =    -45.776993 kcal/mol

 Solvation energy (dispersion and cavitation terms) =      1.146277 kcal/mol
 Solvation Energy Contributions (Hartrees)
          esola   esolb+esolc
     0.07295027   -0.14590055
 esol last cycle   -0.07295027
  
 Hartree-Fock exchange energy:   -537.481662080774     
 cosmo_calcen: 0.5 (esolb+esolc) (Hartrees) =   -0.072950

 Solvation energy (screening term,uncorrected) =    -45.777000 kcal/mol

 Solvation energy (dispersion and cavitation terms) =      1.146277 kcal/mol
 Solvation Energy Contributions (Hartrees)
          esola   esolb+esolc
     0.07295029   -0.14590057
 esol last cycle   -0.07295029

 Energy gradients wrt nuclear displacements
 ==========================================

     Atom      Cartesian (a.u./angstrom)
                 X         Y         Z
 ----------------------------------------
     1 Pa    0.003907 -0.004281 -0.006198
     2 O    -0.001326 -0.000654  0.000555
     3 O     0.001495 -0.000720  0.001449
     4 N     0.008709 -0.003412 -0.001824
     5 H    -0.000223  0.000167  0.000209
     6 O     0.000209 -0.001481 -0.001906
     7 H     0.000114 -0.000036  0.000066
     8 H    -0.000013 -0.000042  0.000102
     9 H     0.000081 -0.000401  0.000152
    10 O    -0.000799  0.000634 -0.001069
    11 S    -0.003599  0.002515  0.001571
    12 C    -0.008556  0.007712  0.006895
 ----------------------------------------
 Mulliken charges used for AMS results%charges...

 dE(predicted):    -0.12545E-03, dE(actual):    -0.18007E-03, Trust radius:    0.445894, all in a.u.
 
----------------------------------------------------------------------
Geometry Convergence after Step  11       (Hartree/Angstrom,Angstrom)
----------------------------------------------------------------------
current energy                               -3.45193109 Hartree
energy change                      -0.00018007     0.00001200    F
constrained gradient max            0.00871613     0.00010000    F
constrained gradient rms            0.00325111     0.00006667    F
gradient max                        0.00871614
gradient rms                        0.00325111
cart. step max                      0.02559642     0.00100000    F
cart. step rms                      0.00842477     0.00066667    F
 
 
--------
Geometry
--------
Formula: CH4NO4PaS
Atoms
  Index Symbol   x (angstrom)   y (angstrom)   z (angstrom)
      1     Pa    -0.44160713    -0.03469100     0.67842558       adf.R=2.200
      2      O     0.87759424     1.47940414    -0.04395925       adf.R=1.517
      3      O    -1.86098118     0.62087637    -0.70970876       adf.R=1.517
      4      N    -1.38260417     1.47887617     2.38435417       adf.R=1.608
      5      H    -1.94391867     1.40678300    -1.26747876       adf.R=1.350
      6      O     0.24465658    -1.68388577    -1.08004312       adf.R=1.517
      7      H    -0.03756444    -1.67829345    -2.00399425       adf.R=1.350
      8      H     1.00267787    -2.27941822    -1.01587895       adf.R=1.350
      9      H     1.78858846     1.63657923     0.23206307       adf.R=1.350
     10      O     0.78175359    -0.83997026     1.81802674       adf.R=1.517
     11      S    -3.10164929     3.17460681     3.80153461       adf.R=1.792
     12      C    -2.10985413     2.19342772     2.98048329       adf.R=1.700
 
Total System Charge             0.00000
Bonding info available!
 
 *** GO1_GOStep12 ***

 SOLVATION
-------------------------------------------

  The Delley construction of COSMO surface surface is calculated

       Division Level for Surface Triangles (NDIV)                  3
       Final Division Level for Triangles (NFDIV)                   1
       Radius of the Solvent (RSOL)                           1.93000 angstr
  Dielectric Constant (EPSL)                                 78.39000

       COSMO equation is solved iteratively-               conjugate-gradient

       Maximun of Iterations for Charges (NCIX)                  1000
       Criterion for Charge convergence (CCNV)                1.0E-08

  COSMO charges included variationally in SCF

       COSMO included at every SCF cycle

  Geometry-dependent empirical factor                         0.00000

  C-Matrix calculated in cspmtx

  In cspmtx, C-Matrix calculated using fitted potential

-------------------------------------------



 -------------------------------------------
  COSMO surface
  Area             =          612.307
  Volume           =          984.446
  Number of Points =         1507
 -------------------------------------------



 ======================
 RI Hartree-Fock Scheme
 ======================
  
 Fit Set Quality     : GOOD
 Threshold Quality   : GOOD
 Integration Quality : GOOD
 Response Quality    : DEFAULT
 Is Range Separated  :  F
 
 RIHartreeFock Dependency: number of modified vectors:           6
 cosmo_calcen: 0.5 (esolb+esolc) (Hartrees) =   -0.073093

 Solvation energy (screening term,uncorrected) =    -45.866530 kcal/mol

 Solvation energy (dispersion and cavitation terms) =      1.144967 kcal/mol
 Solvation Energy Contributions (Hartrees)
          esola   esolb+esolc
     0.07309296   -0.14618592
 esol last cycle   -0.07309296
  
 Hartree-Fock exchange energy:   -537.483799879042     
 cosmo_calcen: 0.5 (esolb+esolc) (Hartrees) =   -0.073093

 Solvation energy (screening term,uncorrected) =    -45.866537 kcal/mol

 Solvation energy (dispersion and cavitation terms) =      1.144967 kcal/mol
 Solvation Energy Contributions (Hartrees)
          esola   esolb+esolc
     0.07309297   -0.14618594
 esol last cycle   -0.07309297

 Energy gradients wrt nuclear displacements
 ==========================================

     Atom      Cartesian (a.u./angstrom)
                 X         Y         Z
 ----------------------------------------
     1 Pa    0.003197 -0.004385 -0.006307
     2 O    -0.001041 -0.000406  0.000483
     3 O     0.001302 -0.000587  0.001232
     4 N     0.005427 -0.000050  0.000993
     5 H    -0.000227  0.000125  0.000179
     6 O     0.000248 -0.001272 -0.001590
     7 H     0.000083 -0.000005  0.000038
     8 H    -0.000028 -0.000071  0.000068
     9 H     0.000066 -0.000343  0.000101
    10 O    -0.000417  0.000402 -0.000677
    11 S    -0.002047  0.001211  0.000862
    12 C    -0.006564  0.005380  0.004618
 ----------------------------------------
 Mulliken charges used for AMS results%charges...

 dE(predicted):    -0.60203E-04, dE(actual):    -0.98463E-04, Trust radius:    0.445894, all in a.u.
 
----------------------------------------------------------------------
Geometry Convergence after Step  12       (Hartree/Angstrom,Angstrom)
----------------------------------------------------------------------
current energy                               -3.45202955 Hartree
energy change                      -0.00009846     0.00001200    F
constrained gradient max            0.00655302     0.00010000    F
constrained gradient rms            0.00241350     0.00006667    F
gradient max                        0.00655291
gradient rms                        0.00241350
cart. step max                      0.21117891     0.00100000    F
cart. step rms                      0.06795759     0.00066667    F
 
 
--------
Geometry
--------
Formula: CH4NO4PaS
Atoms
  Index Symbol   x (angstrom)   y (angstrom)   z (angstrom)
      1     Pa    -0.52040083    -0.05714428     0.64811911       adf.R=2.200
      2      O     0.81229725     1.47020612    -0.02840822       adf.R=1.517
      3      O    -1.89512819     0.58278667    -0.79682675       adf.R=1.517
      4      N    -1.46790974     1.46654375     2.32512798       adf.R=1.608
      5      H    -1.94310800     1.34689644    -1.38776763       adf.R=1.350
      6      O     0.29583533    -1.66836896    -1.07249313       adf.R=1.517
      7      H     0.05558942    -1.66764497    -2.00841512       adf.R=1.350
      8      H     1.07251905    -2.23492117    -0.97688184       adf.R=1.350
      9      H     1.70843884     1.65160635     0.27890472       adf.R=1.350
     10      O     0.66574357    -0.85350686     1.83668563       adf.R=1.517
     11      S    -2.89047038     3.22982743     3.95092782       adf.R=1.792
     12      C    -2.07631460     2.20801421     3.00485180       adf.R=1.700
 
Total System Charge             0.00000
Bonding info available!
 
 *** GO1_GOStep13 ***

 SOLVATION
-------------------------------------------

  The Delley construction of COSMO surface surface is calculated

       Division Level for Surface Triangles (NDIV)                  3
       Final Division Level for Triangles (NFDIV)                   1
       Radius of the Solvent (RSOL)                           1.93000 angstr
  Dielectric Constant (EPSL)                                 78.39000

       COSMO equation is solved iteratively-               conjugate-gradient

       Maximun of Iterations for Charges (NCIX)                  1000
       Criterion for Charge convergence (CCNV)                1.0E-08

  COSMO charges included variationally in SCF

       COSMO included at every SCF cycle

  Geometry-dependent empirical factor                         0.00000

  C-Matrix calculated in cspmtx

  In cspmtx, C-Matrix calculated using fitted potential

-------------------------------------------



 -------------------------------------------
  COSMO surface
  Area             =          614.586
  Volume           =          987.285
  Number of Points =         1513
 -------------------------------------------



 ======================
 RI Hartree-Fock Scheme
 ======================
  
 Fit Set Quality     : GOOD
 Threshold Quality   : GOOD
 Integration Quality : GOOD
 Response Quality    : DEFAULT
 Is Range Separated  :  F
 
 RIHartreeFock Dependency: number of modified vectors:           6
 cosmo_calcen: 0.5 (esolb+esolc) (Hartrees) =   -0.074058

 Solvation energy (screening term,uncorrected) =    -46.472155 kcal/mol

 Solvation energy (dispersion and cavitation terms) =      1.149228 kcal/mol
 Solvation Energy Contributions (Hartrees)
          esola   esolb+esolc
     0.07405808   -0.14811617
 esol last cycle   -0.07405808
  
 Hartree-Fock exchange energy:   -537.491337986274     
 cosmo_calcen: 0.5 (esolb+esolc) (Hartrees) =   -0.074058

 Solvation energy (screening term,uncorrected) =    -46.472097 kcal/mol

 Solvation energy (dispersion and cavitation terms) =      1.149228 kcal/mol
 Solvation Energy Contributions (Hartrees)
          esola   esolb+esolc
     0.07405799   -0.14811599
 esol last cycle   -0.07405799

 Energy gradients wrt nuclear displacements
 ==========================================

     Atom      Cartesian (a.u./angstrom)
                 X         Y         Z
 ----------------------------------------
     1 Pa   -0.000030 -0.005514 -0.007651
     2 O     0.000429  0.000997  0.000285
     3 O     0.000540  0.000063  0.000353
     4 N    -0.003938  0.011357  0.011178
     5 H    -0.000221 -0.000200  0.000037
     6 O     0.000316  0.000053  0.000520
     7 H    -0.000110  0.000064  0.000028
     8 H    -0.000081  0.000057 -0.000062
     9 H     0.000043 -0.000033 -0.000103
    10 O     0.001204 -0.000708  0.001422
    11 S     0.003347 -0.004116 -0.003400
    12 C    -0.001498 -0.002022 -0.002608
 ----------------------------------------
 Mulliken charges used for AMS results%charges...

 dE(predicted):    -0.36869E-03, dE(actual):    -0.27922E-03, Trust radius:    0.445894, all in a.u.
 Residual max backtransformation error   0.4297E+00
 
----------------------------------------------------------------------
Geometry Convergence after Step  13       (Hartree/Angstrom,Angstrom)
----------------------------------------------------------------------
current energy                               -3.45230877 Hartree
energy change                      -0.00027922     0.00001200    F
constrained gradient max            0.01136468     0.00010000    F
constrained gradient rms            0.00340476     0.00006667    F
gradient max                        0.01136447
gradient rms                        0.00340476
cart. step max                      0.18503544     0.00100000    F
cart. step rms                      0.05829753     0.00066667    F
 
 
--------
Geometry
--------
Formula: CH4NO4PaS
Atoms
  Index Symbol   x (angstrom)   y (angstrom)   z (angstrom)
      1     Pa    -0.58426494    -0.06868143     0.61984586       adf.R=2.200
      2      O     0.76023652     1.46451912    -0.02251535       adf.R=1.517
      3      O    -1.91602598     0.55440363    -0.87547261       adf.R=1.517
      4      N    -1.55135133     1.47148509     2.26402739       adf.R=1.608
      5      H    -1.93320039     1.29860285    -1.49303492       adf.R=1.350
      6      O     0.33368791    -1.65689050    -1.05919027       adf.R=1.517
      7      H     0.13126260    -1.66207873    -2.00433492       adf.R=1.350
      8      H     1.12159158    -2.20215236    -0.93256602       adf.R=1.350
      9      H     1.64268683     1.66531916     0.31111079       adf.R=1.350
     10      O     0.56647761    -0.85247656     1.85261394       adf.R=1.517
     11      S    -2.70543494     3.24476383     4.08693705       adf.R=1.792
     12      C    -2.04857375     2.21748061     3.02640345       adf.R=1.700
 
Total System Charge             0.00000
Bonding info available!
 
 *** GO1_GOStep14 ***

 SOLVATION
-------------------------------------------

  The Delley construction of COSMO surface surface is calculated

       Division Level for Surface Triangles (NDIV)                  3
       Final Division Level for Triangles (NFDIV)                   1
       Radius of the Solvent (RSOL)                           1.93000 angstr
  Dielectric Constant (EPSL)                                 78.39000

       COSMO equation is solved iteratively-               conjugate-gradient

       Maximun of Iterations for Charges (NCIX)                  1000
       Criterion for Charge convergence (CCNV)                1.0E-08

  COSMO charges included variationally in SCF

       COSMO included at every SCF cycle

  Geometry-dependent empirical factor                         0.00000

  C-Matrix calculated in cspmtx

  In cspmtx, C-Matrix calculated using fitted potential

-------------------------------------------



 -------------------------------------------
  COSMO surface
  Area             =          609.704
  Volume           =          981.129
  Number of Points =         1512
 -------------------------------------------



 ======================
 RI Hartree-Fock Scheme
 ======================
  
 Fit Set Quality     : GOOD
 Threshold Quality   : GOOD
 Integration Quality : GOOD
 Response Quality    : DEFAULT
 Is Range Separated  :  F
 
 RIHartreeFock Dependency: number of modified vectors:           6
 cosmo_calcen: 0.5 (esolb+esolc) (Hartrees) =   -0.074962

 Solvation energy (screening term,uncorrected) =    -47.039669 kcal/mol

 Solvation energy (dispersion and cavitation terms) =      1.140099 kcal/mol
 Solvation Energy Contributions (Hartrees)
          esola   esolb+esolc
     0.07496248   -0.14992495
 esol last cycle   -0.07496248
  
 Hartree-Fock exchange energy:   -537.486628695762     
 cosmo_calcen: 0.5 (esolb+esolc) (Hartrees) =   -0.074962

 Solvation energy (screening term,uncorrected) =    -47.039622 kcal/mol

 Solvation energy (dispersion and cavitation terms) =      1.140099 kcal/mol
 Solvation Energy Contributions (Hartrees)
          esola   esolb+esolc
     0.07496240   -0.14992480
 esol last cycle   -0.07496240

 Energy gradients wrt nuclear displacements
 ==========================================

     Atom      Cartesian (a.u./angstrom)
                 X         Y         Z
 ----------------------------------------
     1 Pa   -0.001170 -0.006798 -0.008019
     2 O     0.001039  0.001518  0.000270
     3 O     0.000037  0.000381 -0.000151
     4 N     0.000085  0.006527  0.006588
     5 H    -0.000291 -0.000208 -0.000249
     6 O    -0.000519  0.001403  0.002131
     7 H    -0.000346  0.000059 -0.000475
     8 H     0.000520 -0.000261 -0.000056
     9 H     0.000132  0.000235 -0.000192
    10 O     0.001912 -0.001146  0.002397
    11 S     0.001993 -0.001193 -0.000793
    12 C    -0.003393 -0.000518 -0.001450
 ----------------------------------------
 Mulliken charges used for AMS results%charges...
 Rebuilding optimization coordinates
Bad geometry: could not add a dihedral for atom   11

 dE(predicted):    -0.22345E-03, dE(actual):    -0.12820E-03, Trust radius:    0.445894, all in a.u.
 
----------------------------------------------------------------------
Geometry Convergence after Step  14       (Hartree/Angstrom,Angstrom)
----------------------------------------------------------------------
current energy                               -3.45243697 Hartree
energy change                      -0.00012820     0.00001200    F
constrained gradient max            0.00802805     0.00010000    F
constrained gradient rms            0.00258142     0.00006667    F
gradient max                        0.00802808
gradient rms                        0.00258142
cart. step max                      0.04611039     0.00100000    F
cart. step rms                      0.01681478     0.00066667    F
 
 
--------
Geometry
--------
Formula: CH4NO4PaS
Atoms
  Index Symbol   x (angstrom)   y (angstrom)   z (angstrom)
      1     Pa    -0.59070218    -0.05416196     0.61451834       adf.R=2.200
      2      O     0.75946970     1.47178268    -0.03373994       adf.R=1.517
      3      O    -1.91015470     0.55488705    -0.89896559       adf.R=1.517
      4      N    -1.58344749     1.47561228     2.23400015       adf.R=1.608
      5      H    -1.92478767     1.29801580    -1.51785330       adf.R=1.350
      6      O     0.33373678    -1.66049039    -1.04762487       adf.R=1.517
      7      H     0.13901331    -1.67243517    -1.99414894       adf.R=1.350
      8      H     1.11806668    -2.20809207    -0.91043839       adf.R=1.350
      9      H     1.63914292     1.67448149     0.30589462       adf.R=1.350
     10      O     0.54990738    -0.83103329     1.85960028       adf.R=1.517
     11      S    -2.66471078     3.21721037     4.13304744       adf.R=1.792
     12      C    -2.04844223     2.20851792     3.02953456       adf.R=1.700
 
Total System Charge             0.00000
Bonding info available!
 
 *** GO1_GOStep15 ***

 SOLVATION
-------------------------------------------

  The Delley construction of COSMO surface surface is calculated

       Division Level for Surface Triangles (NDIV)                  3
       Final Division Level for Triangles (NFDIV)                   1
       Radius of the Solvent (RSOL)                           1.93000 angstr
  Dielectric Constant (EPSL)                                 78.39000

       COSMO equation is solved iteratively-               conjugate-gradient

       Maximun of Iterations for Charges (NCIX)                  1000
       Criterion for Charge convergence (CCNV)                1.0E-08

  COSMO charges included variationally in SCF

       COSMO included at every SCF cycle

  Geometry-dependent empirical factor                         0.00000

  C-Matrix calculated in cspmtx

  In cspmtx, C-Matrix calculated using fitted potential

-------------------------------------------



 -------------------------------------------
  COSMO surface
  Area             =          610.516
  Volume           =          981.933
  Number of Points =         1511
 -------------------------------------------



 ======================
 RI Hartree-Fock Scheme
 ======================
  
 Fit Set Quality     : GOOD
 Threshold Quality   : GOOD
 Integration Quality : GOOD
 Response Quality    : DEFAULT
 Is Range Separated  :  F
 
 RIHartreeFock Dependency: number of modified vectors:           6
 cosmo_calcen: 0.5 (esolb+esolc) (Hartrees) =   -0.073897

 Solvation energy (screening term,uncorrected) =    -46.370875 kcal/mol

 Solvation energy (dispersion and cavitation terms) =      1.141618 kcal/mol
 Solvation Energy Contributions (Hartrees)
          esola   esolb+esolc
     0.07389668   -0.14779337
 esol last cycle   -0.07389668
  
 Hartree-Fock exchange energy:   -537.487543060449     
 cosmo_calcen: 0.5 (esolb+esolc) (Hartrees) =   -0.073897

 Solvation energy (screening term,uncorrected) =    -46.370900 kcal/mol

 Solvation energy (dispersion and cavitation terms) =      1.141618 kcal/mol
 Solvation Energy Contributions (Hartrees)
          esola   esolb+esolc
     0.07389673   -0.14779345
 esol last cycle   -0.07389673

 Energy gradients wrt nuclear displacements
 ==========================================

     Atom      Cartesian (a.u./angstrom)
                 X         Y         Z
 ----------------------------------------
     1 Pa   -0.000277 -0.004892 -0.004210
     2 O     0.000870  0.001069  0.000046
     3 O     0.000128  0.000203 -0.000284
     4 N     0.000969  0.003768  0.003617
     5 H    -0.000295 -0.000140 -0.000223
     6 O    -0.000543  0.001280  0.001729
     7 H    -0.000233  0.000021 -0.000238
     8 H     0.000382 -0.000141 -0.000072
     9 H     0.000038  0.000157 -0.000164
    10 O     0.000767 -0.000543  0.001122
    11 S     0.000699  0.000456  0.000730
    12 C    -0.002506 -0.001239 -0.002054
 ----------------------------------------
 Mulliken charges used for AMS results%charges...

 dE(predicted):    -0.80750E-04, dE(actual):    -0.12783E-03, Trust radius:    0.445894, all in a.u.
 
----------------------------------------------------------------------
Geometry Convergence after Step  15       (Hartree/Angstrom,Angstrom)
[...]
 Index  Atom      ---- Displacements (x/y/z) ----
     1    Pa      -0.026098   0.042069   0.045985
     2     O      -0.002652   0.023447   0.003834
     3     O      -0.020625   0.007383  -0.007909
     4     N       0.136824  -0.062570  -0.199952
     5     H      -0.022389   0.005811  -0.008379
     6     O      -0.040439  -0.112761   0.030513
     7     H       0.418509   0.540685  -0.021004
     8     H       0.340368   0.438076  -0.038300
     9     H      -0.020144   0.043792   0.033338
    10     O       0.032769  -0.065072  -0.054396
    11     S       0.078100  -0.199082  -0.162500
    12     C       0.115795  -0.096933  -0.178918
 
 Mode:    17      Frequency (cm-1):      197.8416     Intensity (km/mol):      262.4338
 Index  Atom      ---- Displacements (x/y/z) ----
     1    Pa       0.005135  -0.003133  -0.013519
     2     O       0.002936   0.001637   0.025024
     3     O      -0.006483  -0.009823   0.006185
     4     N      -0.025767   0.008821   0.057515
     5     H      -0.125328   0.043770   0.076344
     6     O      -0.032394  -0.149436  -0.002508
     7     H       0.470368   0.596354  -0.058683
     8     H       0.381137   0.443496  -0.092009
     9     H      -0.030438   0.057060   0.073982
    10     O      -0.007892   0.011543  -0.000094
    11     S      -0.018510   0.047873   0.039683
    12     C      -0.019495   0.021386   0.049333
 
 Mode:    18      Frequency (cm-1):      249.1457     Intensity (km/mol):      281.1551
 Index  Atom      ---- Displacements (x/y/z) ----
     1    Pa       0.001445  -0.001573  -0.003280
     2     O      -0.007646   0.006944   0.038549
     3     O      -0.065555   0.046806   0.067767
     4     N       0.002754   0.009386  -0.006382
     5     H       0.560422  -0.498734  -0.644282
     6     O       0.009130  -0.028685  -0.020595
     7     H       0.057957  -0.025196  -0.028568
     8     H       0.039086   0.023483   0.007108
     9     H       0.003876   0.026343  -0.002005
    10     O       0.001422   0.013175   0.004710
    11     S      -0.002419   0.000708   0.003765
    12     C       0.003383   0.006290  -0.003888
 
 Mode:    19      Frequency (cm-1):      284.4956     Intensity (km/mol):       58.1486
 Index  Atom      ---- Displacements (x/y/z) ----
     1    Pa      -0.013202   0.022535   0.023563
     2     O      -0.012620  -0.012420   0.000468
     3     O       0.033462  -0.022577  -0.005999
     4     N      -0.006991   0.001838   0.013786
     5     H      -0.080127   0.086862   0.135900
     6     O       0.202302  -0.255735  -0.327276
     7     H      -0.008099  -0.598555  -0.303169
     8     H       0.066468  -0.448776  -0.305568
     9     H      -0.006443  -0.002836  -0.018789
    10     O      -0.009524  -0.002343  -0.014985
    11     S      -0.004365   0.011667   0.007789
    12     C      -0.008393   0.004450   0.014368
 
 Mode:    20      Frequency (cm-1):      341.9443     Intensity (km/mol):       90.9794
 Index  Atom      ---- Displacements (x/y/z) ----
     1    Pa       0.000421  -0.000411   0.001825
     2     O       0.025030  -0.043220  -0.023465
     3     O       0.017597   0.006218  -0.003180
     4     N      -0.006561  -0.000816  -0.001818
     5     H      -0.013550  -0.007786  -0.019913
     6     O      -0.034523   0.013907  -0.022496
     7     H      -0.189165  -0.468967  -0.017236
     8     H       0.291838   0.536281   0.080637
     9     H      -0.234994   0.445183   0.324476
    10     O       0.003420  -0.004075   0.002420
    11     S      -0.000540   0.001005  -0.000571
    12     C      -0.002127   0.000008  -0.000132
 
 Mode:    21      Frequency (cm-1):      360.9636     Intensity (km/mol):      136.6435
 Index  Atom      ---- Displacements (x/y/z) ----
     1    Pa      -0.002776   0.001043   0.000409
     2     O       0.032712  -0.037891  -0.043034
     3     O      -0.011394   0.007631   0.008428
     4     N      -0.003900  -0.001398   0.001592
     5     H      -0.011333  -0.023367  -0.031677
     6     O       0.029615  -0.002449   0.020335
     7     H       0.121656   0.314221   0.019110
     8     H      -0.253741  -0.448145  -0.043057
     9     H      -0.322918   0.473261   0.530866
    10     O       0.022432  -0.004622  -0.028207
    11     S       0.000689   0.001693   0.002000
    12     C      -0.002470   0.000265   0.001645
 
 Mode:    22      Frequency (cm-1):      376.7401     Intensity (km/mol):      402.0690
 Index  Atom      ---- Displacements (x/y/z) ----
     1    Pa      -0.006295  -0.004133  -0.001038
     2     O       0.016641   0.089303  -0.065058
     3     O       0.128241   0.029216   0.088266
     4     N       0.001547   0.000414  -0.001163
     5     H      -0.698797  -0.370078  -0.412173
     6     O       0.001969  -0.001562   0.000534
     7     H      -0.018008  -0.018992   0.003089
     8     H       0.015366   0.016905  -0.007242
     9     H      -0.017703  -0.308597   0.264589
    10     O      -0.013827  -0.012531   0.004058
    11     S       0.000457  -0.001310  -0.000256
    12     C       0.001259   0.000562  -0.002292
 
 Mode:    23      Frequency (cm-1):      434.0572     Intensity (km/mol):      265.1854
 Index  Atom      ---- Displacements (x/y/z) ----
     1    Pa      -0.002153  -0.004534   0.002232
     2     O       0.065595   0.134417  -0.086793
     3     O      -0.029455  -0.049399   0.014913
     4     N      -0.000656   0.002623  -0.000425
     5     H       0.538627   0.163292   0.276170
     6     O      -0.008342  -0.001041  -0.011998
     7     H       0.042516  -0.065530  -0.022751
     8     H       0.032934   0.079208   0.057764
     9     H      -0.040212  -0.489325   0.560209
    10     O      -0.028649  -0.008148  -0.010448
    11     S      -0.001394   0.003985   0.001530
    12     C      -0.001138  -0.001229   0.005985
 
 Mode:    24      Frequency (cm-1):      488.9254     Intensity (km/mol):        4.4459
 Index  Atom      ---- Displacements (x/y/z) ----
     1    Pa       0.001575   0.000416   0.001371
     2     O      -0.008828  -0.006726   0.002283
     3     O      -0.002380   0.008692   0.006067
     4     N      -0.214801   0.217271  -0.340452
     5     H      -0.031502  -0.005466  -0.011211
     6     O      -0.001741   0.002084   0.001799
     7     H      -0.013161   0.012113   0.004181
     8     H      -0.009201  -0.013553  -0.012965
     9     H      -0.000439  -0.004448  -0.020033
    10     O       0.005947  -0.011367  -0.007771
    11     S      -0.062067   0.064573  -0.106834
    12     C       0.399595  -0.422876   0.655730
 
 Mode:    25      Frequency (cm-1):      494.7524     Intensity (km/mol):        7.4979
 Index  Atom      ---- Displacements (x/y/z) ----
     1    Pa       0.002556   0.001718  -0.000821
     2     O      -0.009644  -0.014709  -0.006610
     3     O       0.004635  -0.005019   0.010356
     4     N      -0.381139  -0.237542   0.073723
     5     H       0.016501   0.017278   0.038683
     6     O      -0.002786   0.000344  -0.001747
     7     H      -0.009242  -0.017831  -0.001034
     8     H      -0.020486  -0.025240   0.005078
     9     H      -0.009400  -0.060649   0.021639
    10     O      -0.002565  -0.006209  -0.004539
    11     S      -0.118336  -0.066357   0.030509
    12     C       0.726542   0.462293  -0.153535
 
 Mode:    26      Frequency (cm-1):      509.5794     Intensity (km/mol):      165.7467
 Index  Atom      ---- Displacements (x/y/z) ----
     1    Pa       0.020735   0.005869   0.007273
     2     O      -0.150468  -0.103957  -0.002000
     3     O      -0.119087   0.081096  -0.152388
     4     N      -0.000739  -0.000141   0.000817
     5     H      -0.273716   0.012936  -0.234191
     6     O      -0.003497  -0.000885  -0.007442
     7     H       0.009640  -0.051165  -0.011562
     8     H       0.013662   0.034980   0.030420
     9     H      -0.230160  -0.660097   0.544432
    10     O       0.010641  -0.025718   0.030145
    11     S      -0.000178   0.003071   0.002695
    12     C      -0.007752   0.000628  -0.000273
 
 Mode:    27      Frequency (cm-1):      559.3395     Intensity (km/mol):      252.2253
 Index  Atom      ---- Displacements (x/y/z) ----
     1    Pa      -0.002387   0.029498  -0.027597
     2     O      -0.214711  -0.222156   0.066381
     3     O       0.203984  -0.137080   0.261658
     4     N       0.013799   0.005611  -0.000635
     5     H       0.469168  -0.020877   0.405522
     6     O      -0.013124   0.018571   0.013856
     7     H       0.064321   0.009507   0.003353
     8     H      -0.036936  -0.000295   0.078867
     9     H      -0.263283  -0.443994   0.319999
    10     O       0.023098  -0.030710   0.032322
    11     S       0.006698  -0.010743  -0.011003
    12     C      -0.006581  -0.012575  -0.005264
 
 Mode:    28      Frequency (cm-1):      772.6338     Intensity (km/mol):       22.5826
 Index  Atom      ---- Displacements (x/y/z) ----
     1    Pa      -0.001562   0.000076  -0.000929
     2     O       0.003630   0.007303  -0.003559
     3     O      -0.003561  -0.002286  -0.003580
     4     N       0.002927  -0.003040  -0.000339
     5     H      -0.071430   0.002011   0.000509
     6     O      -0.038327   0.022996  -0.047553
     7     H       0.651694  -0.221924  -0.147033
     8     H      -0.191100  -0.046945   0.668841
     9     H       0.016693   0.052838  -0.060296
    10     O       0.030102  -0.014442   0.031735
    11     S       0.000217   0.001621   0.003098
    12     C       0.002859  -0.002349   0.001824
 
 Mode:    29      Frequency (cm-1):      793.4679     Intensity (km/mol):      587.6662
 Index  Atom      ---- Displacements (x/y/z) ----
     1    Pa       0.037035  -0.015704   0.032588
     2     O      -0.074935  -0.082301   0.028385
     3     O       0.033854  -0.012663   0.031470
     4     N      -0.012240   0.049119   0.040505
     5     H      -0.096968  -0.051160  -0.009503
     6     O      -0.033392   0.030846  -0.010247
     7     H       0.371612  -0.137667  -0.067901
     8     H      -0.115774   0.002830   0.403418
     9     H      -0.079665  -0.044231   0.005493
    10     O      -0.483695   0.326111  -0.522159
    11     S       0.018202  -0.040145  -0.035306
    12     C      -0.009914   0.022110   0.021414
 
 Mode:    30      Frequency (cm-1):      854.3997     Intensity (km/mol):       10.2321
 Index  Atom      ---- Displacements (x/y/z) ----
     1    Pa      -0.001188  -0.005162  -0.011212
     2     O       0.015832   0.021006  -0.005146
     3     O      -0.014190   0.007012  -0.014214
     4     N      -0.228501   0.470380   0.451000
     5     H       0.004114   0.004544  -0.020454
     6     O       0.007104  -0.009104  -0.008259
     7     H      -0.002877   0.002893  -0.007080
     8     H       0.008710  -0.007435  -0.009644
     9     H       0.012799   0.017751   0.008611
    10     O       0.071695  -0.045879   0.080163
    11     S       0.133115  -0.305159  -0.277288
    12     C      -0.174286   0.397987   0.360739
 
 Mode:    31      Frequency (cm-1):     1592.2763     Intensity (km/mol):      131.6512
 Index  Atom      ---- Displacements (x/y/z) ----
     1    Pa       0.000029   0.000099   0.000089
     2     O      -0.000236  -0.000145   0.000152
     3     O      -0.000045   0.000105   0.000809
     4     N      -0.000013   0.000030  -0.000134
     5     H       0.001577  -0.000232   0.000061
     6     O       0.038899  -0.034141  -0.051600
     7     H      -0.563760   0.409896   0.095842
     8     H      -0.045570   0.102718   0.697853
     9     H      -0.000185  -0.000617   0.000107
    10     O      -0.000929   0.000823  -0.000251
    11     S      -0.000020   0.000053   0.000062
    12     C       0.000342  -0.000601  -0.000561
 
 Mode:    32      Frequency (cm-1):     2046.9951     Intensity (km/mol):     3757.5555
 Index  Atom      ---- Displacements (x/y/z) ----
     1    Pa       0.000631  -0.000280  -0.000333
     2     O      -0.004598  -0.003431   0.003584
     3     O       0.004136  -0.000980   0.006466
     4     N       0.188216  -0.422696  -0.388052
     5     H       0.005547  -0.011116   0.004552
     6     O      -0.000851   0.001512   0.001363
     7     H      -0.005831   0.003807   0.004357
     8     H      -0.003244   0.002766   0.006324
     9     H      -0.007129  -0.003229  -0.005963
    10     O      -0.008074   0.005932  -0.006794
    11     S       0.010681  -0.023801  -0.021789
    12     C      -0.246833   0.558668   0.510365
 
 Mode:    33      Frequency (cm-1):     3754.5443     Intensity (km/mol):      170.3359
 Index  Atom      ---- Displacements (x/y/z) ----
     1    Pa       0.000016  -0.000029  -0.000029
     2     O      -0.000389   0.000035  -0.000173
     3     O      -0.000099  -0.001258   0.000944
     4     N      -0.000075   0.000096   0.000091
     5     H      -0.000164   0.021455  -0.016736
     6     O       0.027545  -0.021418  -0.034663
     7     H       0.136849  -0.041011   0.690477
     8     H      -0.577864   0.383622  -0.136062
     9     H       0.007292   0.001739   0.002949
    10     O       0.000102  -0.000060   0.000206
    11     S      -0.000008   0.000014   0.000010
    12     C       0.000032  -0.000063  -0.000068
 
 Mode:    34      Frequency (cm-1):     3779.8621     Intensity (km/mol):      292.7389
 Index  Atom      ---- Displacements (x/y/z) ----
     1    Pa       0.000034  -0.000012   0.000043
     2     O       0.001577   0.000206   0.000783
     3     O       0.000680  -0.049192   0.038316
     4     N       0.000126  -0.000249  -0.000302
     5     H      -0.010442   0.786848  -0.612113
     6     O      -0.000008   0.000175   0.001902
     7     H      -0.006244   0.001608  -0.031105
     8     H       0.005817  -0.003524   0.001300
     9     H      -0.030373  -0.007117  -0.012353
    10     O      -0.000188   0.000077  -0.000195
    11     S       0.000011  -0.000033  -0.000040
    12     C      -0.000108   0.000247   0.000197
 
 Mode:    35      Frequency (cm-1):     3816.3860     Intensity (km/mol):      188.5986
 Index  Atom      ---- Displacements (x/y/z) ----
     1    Pa      -0.000028  -0.000006  -0.000008
     2     O      -0.056576  -0.014112  -0.022580
     3     O       0.000241  -0.001681   0.001471
     4     N       0.000156  -0.000210  -0.000238
     5     H      -0.000109   0.025472  -0.019533
     6     O       0.001388  -0.000700   0.002271
     7     H      -0.005485   0.001506  -0.032355
     8     H      -0.016402   0.011370  -0.002632
     9     H       0.902024   0.222064   0.361391
    10     O      -0.000192   0.000257  -0.000273
    11     S       0.000009  -0.000033  -0.000026
    12     C      -0.000079   0.000215   0.000194
 
 Mode:    36      Frequency (cm-1):     3863.6250     Intensity (km/mol):      260.2144
 Index  Atom      ---- Displacements (x/y/z) ----
     1    Pa       0.000006  -0.000003   0.000006
     2     O       0.002044   0.000547   0.000775
     3     O      -0.000070   0.000853  -0.000653
     4     N       0.000026  -0.000024   0.000041
     5     H      -0.001399  -0.015033   0.011989
     6     O       0.042728  -0.025326   0.049285
     7     H      -0.094288   0.021608  -0.698368
     8     H      -0.585568   0.381808  -0.087010
     9     H      -0.033774  -0.007405  -0.014717
    10     O       0.000098   0.000043   0.000012
    11     S       0.000034  -0.000011   0.000033
    12     C       0.000093  -0.000045   0.000062

PES point character: Geometry corresponds to a local minimum on the PES.




 ============================
 Statistical Thermal Analysis  ***  ideal gas assumed  ***
 ============================
  
 Pressure:                  1.000000 atm.
 Temperature:             298.150000 K



 Moments of Inertia [amu*bohr^2] and principal axis
 ==================================================

         758.5146       4251.7371       4456.5522
 ------------------------------------------------
          -0.3847          0.5769         -0.7206
           0.6368         -0.3992         -0.6596
           0.6682          0.7126          0.2138


 The rotational contribution to the molecular entropy includes
 a term, dependent on the symmetry number sigma. The results 
 reported below were computed using sigma = 1, determined from
 the point group symmetry of the input geometry (NOSYM). 
 If this is not the correct symmetry, try symmetrizing the molecule before
 running the calculation (note: linear molecules should be aligned along one
 of the Cartesian axes).
 Contributions from frequencies below 20 1/cm are not included in vibrational sums.
 Their contributions, if any, are reported separately.


     Temp                                                        Transl      Rotat     Vibrat     Total
     ----                                                        ------      -----     ------     -----

     298.15   Entropy (cal/mol-K):                               43.512     31.042     47.067    121.621
              Nuclear Internal Energy (kcal/mol):                 0.889      0.889     45.122     46.900
              Constant Volume Heat Capacity (cal/mol-K):          2.981      2.981     37.515     43.476
          (c) Constant Volume Heat Capacity (cal/mol-K):          2.981      2.981     33.269     39.230

       Summary of energy terms
                                                   hartree              eV         kcal/mol           kJ/mol
                                      --------------------     -----------       ----------      -----------
      Energy from Engine:               -3.452532556345279        -93.9482         -2166.50         -9064.62
      Nuclear Internal Energy:           0.074739325684628          2.0338            46.90           196.23
  (c) Nuclear Internal Energy:           0.072562685468040          1.9745            45.53           190.51
      Internal Energy U:                -3.377793230660651        -91.9144         -2119.60         -8868.39
      pV/n = RT:                         0.000944186013486          0.0257             0.59             2.48
      Enthalpy H:                       -3.376849044647165        -91.8887         -2119.00         -8865.92
      -T*S:                             -0.057785969714116         -1.5724           -36.26          -151.72
  (c) -T*S:                             -0.055754542849068         -1.5172           -34.99          -146.38
      Gibbs free energy:                -3.434635014361281        -93.4612         -2155.27         -9017.63
 
 
 
  (c) The properties marked with this symbol have been corrected using 'low vibrational frequency free rotor
      interpolation corrections'. For those terms all positive frequencies are used (also ones below 20 1/cm),
      but the contribution to the partition function of small vibrational frequencies is modified as described
      in the following paper:
      S. Grimme, 'Supramolecular Binding Thermodynamics by Dispersion-Corrected Density Functional Theory'
      (Chem. Eur. J. 2012, 18, 9955-9964)
      Configuration: Dampener Frequency          :   100.000 1/cm
                     Dampener Alpha              :     4.000
                     Averaging Moment of Inertia : 1.000E-44 kg m2

--------------
Atomic charges
--------------
  Index   Atom    Charge
      1     Pa    2.5868
      2      O   -0.7368
      3      O   -0.6685
      4      N   -0.4643
      5      H    0.1475
      6      O   -0.4112
      7      H    0.2419
      8      H    0.2477
      9      H    0.1492
     10      O   -0.8145
     11      S   -0.3610
     12      C    0.0831


Dipole moment vector    (Debye):     3.16587126   -9.95545957  -11.89965768
              magnitude (Debye):    15.83463827


Final PES point is a local minimum. Geometry optimization successful!


AMS application finished. Exiting.
NORMAL TERMINATION
     Total cpu time:  245360.43
  Total system time:    4086.28
 Total elapsed time:  432650.62
