

 Parallel Execution: Process Information
 ==============================================================================
 Rank   Node Name                              NodeID   MyNodeRank  NodeMaster
    0   u-0-9.local                               0          0          0
    1   u-0-9.local                               0          1         -1
    2   u-0-9.local                               0          2         -1
    3   u-0-9.local                               0          3         -1
    4   u-0-9.local                               1          0          1
    5   u-0-9.local                               1          1         -1
    6   u-0-9.local                               1          2         -1
    7   u-0-9.local                               1          3         -1
 ==============================================================================


May use up to 62455MB of RAM as shared memory on node 0
May use up to 124955MB of RAM as shared memory on node 1

 *******************************************************************************
 *                                                                             *
 *  --------------------------------                                           *
 *   Amsterdam Modeling Suite (AMS)              2022.103                      *
 *  --------------------------------                                           *
 *                                               r104886 2022-06-17            *
 *                                                                             *
 *                                                                             *
 *                              =================                              *
 *                              |               |                              *
 *                              |     A M S     |                              *
 *                              |               |                              *
 *                              =================                              *
 *                                                                             *
 *                                                                             *
 *   Online information and documentation:  https://www.scm.com/support/       *
 *   E-mail:  support@scm.com   info@scm.com                                   *
 *                                                                             *
 *   Scientific publications using AMS results must be properly referenced     *
 *   See the User Manuals (or the web site) for recommended citations          *
 *   The terms and conditions of the End User License Agreement apply to       *
 *   the use of AMS, https://www.scm.com/license-terms/                        *
 *                                                                             *
 **********************  x86_64_linux_intel / intelmpi  ************************
 
 Licensed to: Dr. Val?rie Vallet / Laboratoire PhLAM UMR 8523 / Villeneuve d'Ascq Cedex / FRANCE 2023-02-21 11:49:39
 SCM User ID: u10325
  
 AMS 2022.103  RunTime: Mar07-2023 12:21:10  ShM Nodes: 2  Procs: 8

 AMS jobname: pa_oh4_so4.SR.b3lyp.tz2p.opt-freq-B22
 AMS jobid  : 1821491928

 Start   directory: /home/shaaban/ams/PhD/sulfate/pa_oh4_so4/gp/B22/
 Results directory: /home/shaaban/ams/PhD/sulfate/pa_oh4_so4/gp/B22/pa_oh4_so4.SR.b3lyp.tz2p.opt-freq-B22.results/
 Scratch directory: /state/partition2/shaaban/930838.phlam-s-sakura/amstmp_pa_oh4_so4.SR.b3lyp.tz2p.opt-freq-B22_kid0.1821491928/


 Communication costs MPI_COMM_WORLD:     -1.365 usec per message,   0.0098 usec per 8-byte item
 Communication costs for intra-node:      0.408 usec per message,   0.0040 usec per 8-byte item

 RNG seed: 1852881935 1943169820 -1644636418 49302269 1191278314 -92510171 1557798275 -1484329188



                      ************************************************************************
                      *  ADF 2022.103  RunTime: Mar07-2023 12:21:11  ShM Nodes: 2  Procs: 8  *
                      ************************************************************************
  
       ***************************
       *  GEOMETRY OPTIMIZATION  *
       ***************************

Optimization Method                    Quasi Newton
Optimization Coordinates               Delocalized Coordinates
Optimize lattice                       F
 
 ------------------------------------------------------
 Convergence criteria (Hartree,Angstrom)
 ------------------------------------------------------
 Maximum gradient               0.000100000000
 Maximum rms gradient           0.000066666667
 Maximum step allowed           0.001000000000
 Maximum rms step allowed       0.000666666667
 Maximum energy change allowe   0.000014000000
 Maximum stress energy allowe   0.000500000000
 
Initial model Hessian                  Automatic Hessian
 
------------------------------------
Quasi-Newton Optimizer Parameters
------------------------------------
Hessian Update Method                  BFGS
Maximum number of steps                  250
First GDIIS cycle                          0
Maximum GDIIS vectors                      0
Trust radius (bohr)                        0.200000
Trust radius varies                        T
Constraints converged at all steps         T
Use projector                              T
 
 Rigid motions settings for: old optimizer
 Atomic rotations (x,y,z):     T T T
 Atomic translations (x,y,z):  T T T
 Tolerance:                   1.000000000000000E-006
 
--------
Geometry
--------
Formula: H4O8PaS
Atoms
  Index Symbol   x (angstrom)   y (angstrom)   z (angstrom)
      1     Pa     0.34601472    -0.07416228     0.03577287
      2      O     2.10237134     0.07657093     1.19788308
      3      H    -1.96464694     1.85289063     0.46970094
      4      O    -1.31883582     1.14631278     0.42477540
      5      H     2.58473464    -0.23251484     1.96808979
      6      O     0.18639990    -1.35865954    -1.61665480
      7      H     0.15735988    -1.87462938    -2.42324304
      8      O    -0.37137603    -1.54781318     1.33768875
      9      H    -0.97669754    -2.15542285     1.76754294
     10      O     0.11669057     2.20402928    -0.00101925
     11      O     1.95112226     1.55882734     0.00299061
     12      S     1.37855663     3.34319263    -0.00008004
     13      O     2.80331108     3.55217770    -0.00002260
     14      O     0.30721434     4.30539099    -0.00000345
 
Total System Charge            -1.00000
Bonding info available!
 
 
----------------
ADF Engine Input
----------------
 
 Basis
 Type TZ2P
 Core None
 End
 XC
 Hybrid B3LYP
 End
 NumericalQuality Good
 

 Title: *** (NO TITLE) ***

Bad geometry: could not add a dihedral for atom    7
 Using automatic Hessian for delocalized coordinates.
 *** GO1_GOStep1 ***



 ======================
 RI Hartree-Fock Scheme
 ======================
  
 Fit Set Quality     : GOOD
 Threshold Quality   : GOOD
 Integration Quality : GOOD
 Response Quality    : DEFAULT
 Is Range Separated  :  F
 
 RIHartreeFock Dependency: number of modified vectors:           5
  
 Hartree-Fock exchange energy:   -558.831736552966     

 Energy gradients wrt nuclear displacements
 ==========================================

     Atom      Cartesian (a.u./angstrom)
                 X         Y         Z
 ----------------------------------------
     1 Pa   -0.082084 -0.196385 -0.039113
     2 O    -0.036291  0.140299 -0.125437
     3 H    -0.020343 -0.002237  0.002445
     4 O     0.206468  0.144807 -0.040567
     5 H     0.002066  0.020628 -0.012172
     6 O     0.002029  0.032397  0.059923
     7 H    -0.001120 -0.000994 -0.001571
     8 O     0.019188  0.040836 -0.028526
     9 H    -0.003330 -0.005337  0.001051
    10 O     0.070022 -0.139836  0.008648
    11 O    -0.124495 -0.011935  0.143384
    12 S     0.069201  0.356854  0.062910
    13 O    -0.049576 -0.181017 -0.025405
    14 O    -0.051736 -0.198079 -0.005570
 ----------------------------------------
 Mulliken charges used for AMS results%charges...
 
----------------------------------------------------------------------
Geometry Convergence after Step   1       (Hartree/Angstrom,Angstrom)
----------------------------------------------------------------------
current energy                               -3.60821026 Hartree
energy change                      -3.60821026     0.00001400    F
constrained gradient max            0.35683613     0.00010000    F
constrained gradient rms            0.10141758     0.00006667    F
gradient max                        0.35683470
gradient rms                        0.10141758
cart. step max                      0.06504589     0.00100000    F
cart. step rms                      0.02053678     0.00066667    F
 
 
--------
Geometry
--------
Formula: H4O8PaS
Atoms
  Index Symbol   x (angstrom)   y (angstrom)   z (angstrom)
      1     Pa     0.34671475    -0.07318607     0.04006849
      2      O     2.11136144     0.04725991     1.21189007
      3      H    -1.99843467     1.82665342     0.46829228
      4      O    -1.34877926     1.12655309     0.42916961
      5      H     2.58805742    -0.27700600     1.98318351
      6      O     0.18736056    -1.35939810    -1.62727122
      7      H     0.15990108    -1.87226988    -2.43544299
      8      O    -0.37263904    -1.55094687     1.35120899
      9      H    -0.97673344    -2.15692828     1.78245320
     10      O     0.11055060     2.20233118    -0.00356436
     11      O     1.95842253     1.55114114    -0.00356658
     12      S     1.38129443     3.34448806    -0.01016403
     13      O     2.80985952     3.61722359    -0.01209325
     14      O     0.34528307     4.37027502    -0.01074250
 
Total System Charge            -1.00000
Bonding info available!
 
 *** GO1_GOStep2 ***



 ======================
 RI Hartree-Fock Scheme
 ======================
  
 Fit Set Quality     : GOOD
 Threshold Quality   : GOOD
 Integration Quality : GOOD
 Response Quality    : DEFAULT
 Is Range Separated  :  F
 
 RIHartreeFock Dependency: number of modified vectors:           5
  
 Hartree-Fock exchange energy:   -558.775862128742     

 Energy gradients wrt nuclear displacements
 ==========================================

     Atom      Cartesian (a.u./angstrom)
                 X         Y         Z
 ----------------------------------------
     1 Pa   -0.077649 -0.183196 -0.042476
     2 O    -0.030396  0.130770 -0.114895
     3 H    -0.017051 -0.006912  0.002435
     4 O     0.175824  0.142565 -0.034243
     5 H     0.006276  0.017755 -0.005688
     6 O     0.001036  0.023762  0.048222
     7 H    -0.001086 -0.001086 -0.001392
     8 O     0.013849  0.032299 -0.020644
     9 H    -0.001759 -0.004300  0.000386
    10 O     0.072272 -0.163050  0.007628
    11 O    -0.123963 -0.027910  0.129866
    12 S     0.060695  0.306499  0.056762
    13 O    -0.012151 -0.138869 -0.021342
    14 O    -0.065897 -0.128329 -0.004620
 ----------------------------------------
 Mulliken charges used for AMS results%charges...

 dE(predicted):    -0.40354E-01, dE(actual):    -0.41289E-01, Trust radius:    0.400000, all in a.u.
 
----------------------------------------------------------------------
Geometry Convergence after Step   2       (Hartree/Angstrom,Angstrom)
----------------------------------------------------------------------
current energy                               -3.64949946 Hartree
energy change                      -0.04128920     0.00001400    F
constrained gradient max            0.30647999     0.00010000    F
constrained gradient rms            0.08954721     0.00006667    F
gradient max                        0.30647868
gradient rms                        0.08954721
cart. step max                      0.11091095     0.00100000    F
cart. step rms                      0.03838270     0.00066667    F
 
 
--------
Geometry
--------
Formula: H4O8PaS
Atoms
  Index Symbol   x (angstrom)   y (angstrom)   z (angstrom)
      1     Pa     0.35248162    -0.06236590     0.05248283
      2      O     2.13649714    -0.01577579     1.24520185
      3      H    -2.07150467     1.78406134     0.46100583
      4      O    -1.41463055     1.09303595     0.43817067
      5      H     2.59268558    -0.37745351     2.01470912
      6      O     0.19402442    -1.34607835    -1.64790129
      7      H     0.17063136    -1.84951544    -2.46094717
      8      O    -0.36925092    -1.54821731     1.38117900
      9      H    -0.97223770    -2.15101115     1.81459501
     10      O     0.10036406     2.20846559    -0.00599864
     11      O     1.98087244     1.54176659    -0.01783481
     12      S     1.38324408     3.33997673    -0.03191347
     13      O     2.79641034     3.72813454    -0.04378561
     14      O     0.42263183     4.45116691    -0.03554211
 
Total System Charge            -1.00000
Bonding info available!
 
 *** GO1_GOStep3 ***



 ======================
 RI Hartree-Fock Scheme
 ======================
  
 Fit Set Quality     : GOOD
 Threshold Quality   : GOOD
 Integration Quality : GOOD
 Response Quality    : DEFAULT
 Is Range Separated  :  F
 
 RIHartreeFock Dependency: number of modified vectors:           5
  
 Hartree-Fock exchange energy:   -558.713853991593     

 Energy gradients wrt nuclear displacements
 ==========================================

     Atom      Cartesian (a.u./angstrom)
                 X         Y         Z
 ----------------------------------------
     1 Pa   -0.066229 -0.160099 -0.050313
     2 O    -0.015082  0.106811 -0.086201
     3 H    -0.013719 -0.011784  0.002770
     4 O     0.119523  0.136401 -0.022601
     5 H     0.010617  0.014362  0.000789
     6 O    -0.000769  0.008208  0.026255
     7 H    -0.001047 -0.000918 -0.000505
     8 O     0.004671  0.017723 -0.006702
     9 H     0.000805 -0.002848 -0.000460
    10 O     0.067808 -0.173156  0.007047
    11 O    -0.108133 -0.039796  0.103925
    12 S     0.042349  0.239793  0.043806
    13 O     0.008242 -0.074614 -0.014696
    14 O    -0.049036 -0.060082 -0.003114
 ----------------------------------------
 Mulliken charges used for AMS results%charges...

 dE(predicted):    -0.59949E-01, dE(actual):    -0.61232E-01, Trust radius:    0.800000, all in a.u.
 
----------------------------------------------------------------------
Geometry Convergence after Step   3       (Hartree/Angstrom,Angstrom)
----------------------------------------------------------------------
current energy                               -3.71073162 Hartree
energy change                      -0.06123216     0.00001400    F
constrained gradient max            0.23977607     0.00010000    F
constrained gradient rms            0.07214688     0.00006667    F
gradient max                        0.23977493
gradient rms                        0.07214688
cart. step max                      0.20331965     0.00100000    F
cart. step rms                      0.06743367     0.00066667    F
 
 
--------
Geometry
--------
Formula: H4O8PaS
Atoms
  Index Symbol   x (angstrom)   y (angstrom)   z (angstrom)
      1     Pa     0.37177004    -0.02188994     0.09234275
      2      O     2.17766555    -0.13447608     1.31128743
      3      H    -2.19423301     1.71096168     0.43588386
      4      O    -1.53230259     1.02575412     0.45486875
      5      H     2.56993122    -0.58077316     2.07006915
      6      O     0.21614883    -1.27808394    -1.66928474
      7      H     0.20536821    -1.75541699    -2.49664317
      8      O    -0.34553817    -1.52705478     1.43729278
      9      H    -0.95097228    -2.12688745     1.86833905
     10      O     0.08475560     2.23477806     0.00765949
     11      O     2.03641349     1.53462025    -0.04964049
     12      S     1.37826520     3.31932881    -0.07628615
     13      O     2.75100609     3.86043939    -0.13456562
     14      O     0.53394083     4.53489025    -0.08790188
 
Total System Charge            -1.00000
Bonding info available!
 
 *** GO1_GOStep4 ***



 ======================
 RI Hartree-Fock Scheme
 ======================
  
 Fit Set Quality     : GOOD
 Threshold Quality   : GOOD
 Integration Quality : GOOD
 Response Quality    : DEFAULT
 Is Range Separated  :  F
 
 RIHartreeFock Dependency: number of modified vectors:           5
  
 Hartree-Fock exchange energy:   -558.652125667862     

 Energy gradients wrt nuclear displacements
 ==========================================

     Atom      Cartesian (a.u./angstrom)
                 X         Y         Z
 ----------------------------------------
     1 Pa   -0.045119 -0.111033 -0.054172
     2 O     0.006244  0.061952 -0.039270
     3 H    -0.011478 -0.014868  0.003283
     4 O     0.043494  0.116574 -0.007268
     5 H     0.012621  0.010669  0.003920
     6 O    -0.002870 -0.010000 -0.002504
     7 H    -0.001050 -0.000617  0.000854
     8 O    -0.004949  0.001572  0.008938
     9 H     0.003790 -0.001716 -0.000717
    10 O     0.044162 -0.152831  0.003437
    11 O    -0.054863 -0.043961  0.069308
    12 S     0.011805  0.137308  0.024629
    13 O    -0.010845  0.005691 -0.008863
    14 O     0.009057  0.001260 -0.001575
 ----------------------------------------
 Mulliken charges used for AMS results%charges...

 dE(predicted):    -0.62999E-01, dE(actual):    -0.67931E-01, Trust radius:    1.000000, all in a.u.
 
----------------------------------------------------------------------
Geometry Convergence after Step   4       (Hartree/Angstrom,Angstrom)
----------------------------------------------------------------------
current energy                               -3.77866215 Hartree
energy change                      -0.06793053     0.00001400    F
constrained gradient max            0.15282436     0.00010000    F
constrained gradient rms            0.04733993     0.00006667    F
gradient max                        0.15282410
gradient rms                        0.04733993
cart. step max                      0.18608182     0.00100000    F
cart. step rms                      0.06693837     0.00066667    F
 
 
--------
Geometry
--------
Formula: H4O8PaS
Atoms
  Index Symbol   x (angstrom)   y (angstrom)   z (angstrom)
      1     Pa     0.39795346     0.03513505     0.15179933
      2      O     2.18820308    -0.22689371     1.38765912
      3      H    -2.26979845     1.65168262     0.42334790
      4      O    -1.63362576     0.94394303     0.48044022
      5      H     2.47840985    -0.76685498     2.12959710
      6      O     0.25100800    -1.16136669    -1.67157736
      7      H     0.26754467    -1.59961277    -2.51965748
      8      O    -0.30466883    -1.50440285     1.48374447
      9      H    -0.92113904    -2.10316063     1.90046209
     10      O     0.08473993     2.26871325     0.06257447
     11      O     2.10144255     1.52975643    -0.12128470
     12      S     1.36767296     3.28741992    -0.13089141
     13      O     2.73179807     3.88810484    -0.27589043
     14      O     0.56267852     4.55372669    -0.13690214
 
Total System Charge            -1.00000
Bonding info available!
 
 *** GO1_GOStep5 ***



 ======================
 RI Hartree-Fock Scheme
 ======================
  
 Fit Set Quality     : GOOD
 Threshold Quality   : GOOD
 Integration Quality : GOOD
 Response Quality    : DEFAULT
 Is Range Separated  :  F
 
 RIHartreeFock Dependency: number of modified vectors:           5
  
 Hartree-Fock exchange energy:   -558.613972416467     

 Energy gradients wrt nuclear displacements
 ==========================================

     Atom      Cartesian (a.u./angstrom)
                 X         Y         Z
 ----------------------------------------
     1 Pa   -0.025028 -0.052716 -0.040257
     2 O     0.011466  0.026438 -0.013760
     3 H    -0.010728 -0.015327  0.003338
     4 O    -0.004041  0.090757  0.000800
     5 H     0.012372  0.007156  0.004500
     6 O    -0.003468 -0.016997 -0.018366
     7 H    -0.001219 -0.000956  0.001095
     8 O    -0.007275 -0.004078  0.013527
     9 H     0.005300 -0.001922  0.000113
    10 O     0.023183 -0.114700 -0.004323
    11 O     0.005092 -0.041919  0.047958
    12 S    -0.022810  0.051363  0.016194
    13 O    -0.002911  0.038004 -0.009827
    14 O     0.020066  0.034897 -0.000991
 ----------------------------------------
 Mulliken charges used for AMS results%charges...
 Rebuilding optimization coordinates
Bad geometry: could not add a dihedral for atom    7

 dE(predicted):    -0.27855E-01, dE(actual):    -0.38865E-01, Trust radius:    1.000000, all in a.u.
 
----------------------------------------------------------------------
Geometry Convergence after Step   5       (Hartree/Angstrom,Angstrom)
----------------------------------------------------------------------
current energy                               -3.81752686 Hartree
energy change                      -0.03886471     0.00001400    F
constrained gradient max            0.11470465     0.00010000    F
constrained gradient rms            0.03093708     0.00006667    F
gradient max                        0.11470450
gradient rms                        0.03093708
cart. step max                      0.18794033     0.00100000    F
cart. step rms                      0.06995902     0.00066667    F
 
 
--------
Geometry
--------
Formula: H4O8PaS
Atoms
  Index Symbol   x (angstrom)   y (angstrom)   z (angstrom)
      1     Pa     0.42784048     0.08802853     0.22014984
      2      O     2.17272643    -0.26840463     1.46297231
      3      H    -2.26720140     1.61441759     0.43922366
      4      O    -1.70292285     0.84620213     0.50698289
      5      H     2.33173309    -0.90942748     2.16151526
      6      O     0.29779877    -1.02402958    -1.65413637
      7      H     0.36145952    -1.41167244    -2.52426455
      8      O    -0.26435177    -1.48454787     1.52135326
      9      H    -0.90955824    -2.07183458     1.91240450
     10      O     0.11000673     2.29380336     0.15109804
     11      O     2.14314907     1.52144960    -0.24631695
     12      S     1.34914755     3.24606767    -0.19671468
     13      O     2.71719664     3.83913359    -0.42097947
     14      O     0.53519501     4.51700434    -0.16986655
 
Total System Charge            -1.00000
Bonding info available!
 
 *** GO1_GOStep6 ***



 ======================
 RI Hartree-Fock Scheme
 ======================
  
 Fit Set Quality     : GOOD
 Threshold Quality   : GOOD
 Integration Quality : GOOD
 Response Quality    : DEFAULT
 Is Range Separated  :  F
 
 RIHartreeFock Dependency: number of modified vectors:           5
  
 Hartree-Fock exchange energy:   -558.638054694642     

 Energy gradients wrt nuclear displacements
 ==========================================

     Atom      Cartesian (a.u./angstrom)
                 X         Y         Z
 ----------------------------------------
     1 Pa   -0.005092 -0.003908 -0.012693
     2 O     0.001975  0.006750 -0.007453
     3 H    -0.011123 -0.011775  0.003011
     4 O    -0.025876  0.061726  0.003562
     5 H     0.009897  0.003910  0.003013
     6 O    -0.002127 -0.013838 -0.021954
     7 H    -0.001378 -0.001321  0.000840
     8 O    -0.005589  0.000351  0.009471
     9 H     0.005648 -0.003087  0.001682
    10 O     0.024310 -0.074478 -0.018144
    11 O     0.048568 -0.034061  0.032873
    12 S    -0.056705  0.005566  0.010704
    13 O     0.016498  0.027665 -0.014682
    14 O     0.000993  0.036499  0.009772
 ----------------------------------------
 Mulliken charges used for AMS results%charges...

 dE(predicted):    -0.17522E-01, dE(actual):    -0.26051E-01, Trust radius:    1.000000, all in a.u.
 
----------------------------------------------------------------------
Geometry Convergence after Step   6       (Hartree/Angstrom,Angstrom)
----------------------------------------------------------------------
current energy                               -3.84357773 Hartree
energy change                      -0.02605088     0.00001400    F
constrained gradient max            0.07448294     0.00010000    F
constrained gradient rms            0.02347779     0.00006667    F
gradient max                        0.07448290
gradient rms                        0.02347779
cart. step max                      0.08551121     0.00100000    F
cart. step rms                      0.03254960     0.00066667    F
 
 
--------
Geometry
--------
Formula: H4O8PaS
Atoms
  Index Symbol   x (angstrom)   y (angstrom)   z (angstrom)
      1     Pa     0.43750819     0.10434335     0.25136597
      2      O     2.16411893    -0.26100357     1.49914968
      3      H    -2.23973243     1.59836779     0.46554249
      4      O    -1.72139017     0.79594985     0.52431319
      5      H     2.27153721    -0.94898652     2.16156067
      6      O     0.32010675    -0.96472948    -1.63724172
      7      H     0.41635870    -1.32616123    -2.51568705
      8      O    -0.25615589    -1.48689576     1.52617279
      9      H    -0.92579747    -2.06208979     1.89495294
     10      O     0.12363508     2.30494805     0.21350051
     11      O     2.12789444     1.51769805    -0.30982384
     12      S     1.34321444     3.22880261    -0.23054246
     13      O     2.70878979     3.80230960    -0.47781028
     14      O     0.53213144     4.49363727    -0.20203170
 
Total System Charge            -1.00000
Bonding info available!
 
 *** GO1_GOStep7 ***



 ======================
 RI Hartree-Fock Scheme
 ======================
  
 Fit Set Quality     : GOOD
 Threshold Quality   : GOOD
 Integration Quality : GOOD
 Response Quality    : DEFAULT
 Is Range Separated  :  F
 
 RIHartreeFock Dependency: number of modified vectors:           5
  
 Hartree-Fock exchange energy:   -558.674455752650     

 Energy gradients wrt nuclear displacements
 ==========================================

     Atom      Cartesian (a.u./angstrom)
                 X         Y         Z
 ----------------------------------------
     1 Pa    0.004427  0.006150 -0.002149
     2 O    -0.003303  0.003878 -0.008230
     3 H    -0.011079 -0.008971  0.002805
     4 O    -0.028451  0.048230  0.004185
     5 H     0.007976  0.002558  0.001379
     6 O    -0.000760 -0.009125 -0.018168
     7 H    -0.001470 -0.001432  0.000727
     8 O    -0.005505  0.004673  0.005859
     9 H     0.005331 -0.003741  0.002298
    10 O     0.024301 -0.063807 -0.027376
    11 O     0.053596 -0.030336  0.032579
    12 S    -0.059135  0.010209  0.005201
    13 O     0.010928  0.017044 -0.017575
    14 O     0.003145  0.024670  0.018465
 ----------------------------------------
 Mulliken charges used for AMS results%charges...

 dE(predicted):    -0.57477E-02, dE(actual):    -0.10841E-01, Trust radius:    1.000000, all in a.u.
 
----------------------------------------------------------------------
Geometry Convergence after Step   7       (Hartree/Angstrom,Angstrom)
----------------------------------------------------------------------
current energy                               -3.85441859 Hartree
energy change                      -0.01084085     0.00001400    F
constrained gradient max            0.06381553     0.00010000    F
constrained gradient rms            0.02166666     0.00006667    F
gradient max                        0.06381553
gradient rms                        0.02166666
cart. step max                      0.17632550     0.00100000    F
cart. step rms                      0.06814060     0.00066667    F
 
 
--------
Geometry
--------
Formula: H4O8PaS
Atoms
  Index Symbol   x (angstrom)   y (angstrom)   z (angstrom)
      1     Pa     0.45184472     0.12933614     0.31745959
      2      O     2.15267812    -0.22699405     1.56446085
      3      H    -2.13749636     1.55780793     0.48919204
      4      O    -1.73921729     0.68648800     0.55567396
      5      H     2.16969972    -0.99077920     2.14834447
      6      O     0.33899551    -0.84847845    -1.58382040
      7      H     0.50484835    -1.14983573    -2.47482383
      8      O    -0.23571744    -1.50736909     1.52880891
      9      H    -0.97013114    -2.04045393     1.83567160
     10      O     0.16485786     2.33223492     0.36368636
     11      O     2.04459153     1.51441593    -0.44925591
     12      S     1.33588189     3.19505051    -0.29143723
     13      O     2.70051024     3.71195286    -0.54002561
     14      O     0.52087330     4.43281438    -0.30051361
 
Total System Charge            -1.00000
Bonding info available!
 
 *** GO1_GOStep8 ***



 ======================
 RI Hartree-Fock Scheme
 ======================
  
 Fit Set Quality     : GOOD
 Threshold Quality   : GOOD
 Integration Quality : GOOD
 Response Quality    : DEFAULT
 Is Range Separated  :  F
 
 RIHartreeFock Dependency: number of modified vectors:           5
  
 Hartree-Fock exchange energy:   -558.774720947565     

 Energy gradients wrt nuclear displacements
 ==========================================

     Atom      Cartesian (a.u./angstrom)
                 X         Y         Z
 ----------------------------------------
     1 Pa    0.025604  0.010685  0.011725
     2 O    -0.015360  0.004525 -0.013807
     3 H    -0.008037 -0.002765  0.001959
     4 O    -0.026146  0.021272  0.004086
     5 H     0.003094  0.000095 -0.002217
     6 O     0.001941  0.005009 -0.001560
     7 H    -0.001627 -0.001739  0.000627
     8 O    -0.004635  0.014445 -0.002930
     9 H     0.004121 -0.004687  0.003167
    10 O     0.013380 -0.052124 -0.048631
    11 O     0.050084 -0.026663  0.044047
    12 S    -0.045586  0.050564 -0.012374
    13 O    -0.009442 -0.012844 -0.027389
    14 O     0.012609 -0.005773  0.043297
 ----------------------------------------
 Mulliken charges used for AMS results%charges...

 dE(predicted):    -0.21253E-01, dE(actual):    -0.25421E-01, Trust radius:    1.000000, all in a.u.
 
----------------------------------------------------------------------
Geometry Convergence after Step   8       (Hartree/Angstrom,Angstrom)
----------------------------------------------------------------------
current energy                               -3.87983939 Hartree
energy change                      -0.02542080     0.00001400    F
constrained gradient max            0.05213613     0.00010000    F
constrained gradient rms            0.02246801     0.00006667    F
gradient max                        0.05213626
gradient rms                        0.02246801
cart. step max                      0.15589217     0.00100000    F
cart. step rms                      0.06923474     0.00066667    F
 
 
--------
Geometry
--------
Formula: H4O8PaS
Atoms
  Index Symbol   x (angstrom)   y (angstrom)   z (angstrom)
      1     Pa     0.46290348     0.14604272     0.37521377
      2      O     2.15640197    -0.19374370     1.60573412
      3      H    -1.98396309     1.50570416     0.47474120
      4      O    -1.73353753     0.58017271     0.57286695
      5      H     2.09867282    -1.00294026     2.12388563
      6      O     0.32328513    -0.75278997    -1.52133776
      7      H     0.54492588    -0.99394356    -2.41915915
      8      O    -0.21267240    -1.53224866     1.52966654
      9      H    -1.01843536    -1.99390034     1.77006422
     10      O     0.22441192     2.36535731     0.51454433
     11      O     1.91849819     1.52439489    -0.57853990
     12      S     1.33095380     3.16109516    -0.33987098
     13      O     2.70032191     3.63150317    -0.50381751
     14      O     0.49045229     4.35148656    -0.44057026
 
Total System Charge            -1.00000
Bonding info available!
 
 *** GO1_GOStep9 ***



 ======================
 RI Hartree-Fock Scheme
 ======================
  
 Fit Set Quality     : GOOD
 Threshold Quality   : GOOD
 Integration Quality : GOOD
 Response Quality    : DEFAULT
 Is Range Separated  :  F
 
 RIHartreeFock Dependency: number of modified vectors:           5
  
 Hartree-Fock exchange energy:   -558.886420505224     

 Energy gradients wrt nuclear displacements
 ==========================================

     Atom      Cartesian (a.u./angstrom)
                 X         Y         Z
 ----------------------------------------
     1 Pa    0.044049  0.000239  0.008036
     2 O    -0.026017  0.009132 -0.019340
     3 H    -0.000480  0.001550  0.000263
     4 O    -0.019309 -0.000895  0.003280
     5 H    -0.002046 -0.000384 -0.006135
     6 O     0.003228  0.021331  0.021484
     7 H    -0.001487 -0.002105  0.000768
     8 O    -0.003274  0.022273 -0.010643
     9 H     0.002176 -0.004789  0.003351
    10 O    -0.007053 -0.047713 -0.061245
    11 O     0.038523 -0.031484  0.071877
    12 S    -0.021140  0.098640 -0.046474
    13 O    -0.029654 -0.039053 -0.038280
    14 O     0.022485 -0.026742  0.073058
 ----------------------------------------
 Mulliken charges used for AMS results%charges...
 Rebuilding optimization coordinates

 dE(predicted):    -0.27138E-01, dE(actual):    -0.31836E-01, Trust radius:    1.000000, all in a.u.
 
----------------------------------------------------------------------
Geometry Convergence after Step   9       (Hartree/Angstrom,Angstrom)
----------------------------------------------------------------------
current energy                               -3.91167516 Hartree
energy change                      -0.03183577     0.00001400    F
constrained gradient max            0.09866270     0.00010000    F
constrained gradient rms            0.03148878     0.00006667    F
gradient max                        0.09866495
gradient rms                        0.03148878
cart. step max                      0.14884631     0.00100000    F
cart. step rms                      0.05813495     0.00066667    F
 
 
--------
Geometry
--------
Formula: H4O8PaS
Atoms
  Index Symbol   x (angstrom)   y (angstrom)   z (angstrom)
      1     Pa     0.47106497     0.15938513     0.40890740
      2      O     2.17381653    -0.19297947     1.61869447
      3      H    -1.84912083     1.46544260     0.45508558
      4      O    -1.72223490     0.51403129     0.57332520
      5      H     2.05621097    -1.02429174     2.09310073
      6      O     0.30125626    -0.70418394    -1.48352286
      7      H     0.55243540    -0.90005782    -2.38540983
      8      O    -0.19964443    -1.54111471     1.53945507
      9      H    -1.05871289    -1.92145395     1.73675012
     10      O     0.29389083     2.40448543     0.63886623
     11      O     1.82527473     1.54107723    -0.67856812
     12      S     1.32934966     3.11978979    -0.36582865
     13      O     2.68734180     3.62682682    -0.39801757
     14      O     0.44129092     4.24923356    -0.58941657
 
Total System Charge            -1.00000
Bonding info available!
 
 *** GO1_GOStep10 ***



 ======================
 RI Hartree-Fock Scheme
 ======================
  
 Fit Set Quality     : GOOD
 Threshold Quality   : GOOD
 Integration Quality : GOOD
 Response Quality    : DEFAULT
 Is Range Separated  :  F
 
 RIHartreeFock Dependency: number of modified vectors:           5
  
 Hartree-Fock exchange energy:   -558.947637352929     

 Energy gradients wrt nuclear displacements
 ==========================================

     Atom      Cartesian (a.u./angstrom)
                 X         Y         Z
 ----------------------------------------
     1 Pa    0.051590 -0.007456 -0.003709
     2 O    -0.025466  0.012361 -0.016741
     3 H     0.008355  0.002202 -0.001035
     4 O    -0.018752 -0.013307  0.003412
     5 H    -0.005720 -0.000842 -0.008016
     6 O     0.002030  0.028714  0.030636
     7 H    -0.001100 -0.002606  0.000612
     8 O    -0.003942  0.021819 -0.012457
     9 H     0.001079 -0.004164  0.003360
    10 O    -0.027205 -0.028682 -0.059134
    11 O     0.030669 -0.048561  0.088650
    12 S    -0.009701  0.085742 -0.077393
    13 O    -0.023179 -0.027973 -0.042465
    14 O     0.021344 -0.017247  0.094282
 ----------------------------------------
 Mulliken charges used for AMS results%charges...

 dE(predicted):    -0.30950E-01, dE(actual):    -0.38228E-01, Trust radius:    1.000000, all in a.u.
 
----------------------------------------------------------------------
Geometry Convergence after Step  10       (Hartree/Angstrom,Angstrom)
----------------------------------------------------------------------
current energy                               -3.94990364 Hartree
energy change                      -0.03822848     0.00001400    F
constrained gradient max            0.09437266     0.00010000    F
constrained gradient rms            0.03429423     0.00006667    F
gradient max                        0.09437266
gradient rms                        0.03429423
cart. step max                      0.17261303     0.00100000    F
cart. step rms                      0.05961867     0.00066667    F
 
 
--------
Geometry
--------
Formula: H4O8PaS
Atoms
  Index Symbol   x (angstrom)   y (angstrom)   z (angstrom)
      1     Pa     0.47669140     0.17424723     0.43534733
      2      O     2.18701140    -0.20052239     1.61851701
      3      H    -1.73204871     1.41819972     0.44584259
      4      O    -1.71001533     0.45595534     0.56962047
      5      H     2.01073396    -1.04673240     2.04995542
      6      O     0.28522455    -0.65969941    -1.45554804
      7      H     0.56625155    -0.81260903    -2.35761479
      8      O    -0.18890968    -1.54121395     1.55179004
      9      H    -1.08813454    -1.83511695     1.71885637
     10      O     0.37295439     2.44458923     0.77413520
     11      O     1.74469732     1.57112135    -0.77408474
     12      S     1.31436312     3.06990265    -0.37088859
     13      O     2.64210721     3.61852569    -0.28047746
     14      O     0.42129238     4.13954313    -0.76202960
 
Total System Charge            -1.00000
Bonding info available!
 
 *** GO1_GOStep11 ***



 ======================
 RI Hartree-Fock Scheme
 ======================
  
 Fit Set Quality     : GOOD
 Threshold Quality   : GOOD
 Integration Quality : GOOD
 Response Quality    : DEFAULT
 Is Range Separated  :  F
 
 RIHartreeFock Dependency: number of modified vectors:           5
  
 Hartree-Fock exchange energy:   -559.011264422124     

 Energy gradients wrt nuclear displacements
 ==========================================

     Atom      Cartesian (a.u./angstrom)
                 X         Y         Z
 ----------------------------------------
     1 Pa    0.050903 -0.013666 -0.011880
     2 O    -0.024095  0.015394 -0.013281
     3 H     0.019126  0.000102 -0.001929
     4 O    -0.020017 -0.023075  0.003324
     5 H    -0.009508 -0.000193 -0.010407
     6 O    -0.000162  0.033835  0.034766
     7 H    -0.000716 -0.003171  0.000757
     8 O    -0.004702  0.020048 -0.013227
     9 H    -0.000027 -0.002982  0.003212
    10 O    -0.037505 -0.017908 -0.028409
    11 O     0.037636 -0.043465  0.084483
    12 S    -0.008994  0.044935 -0.091088
    13 O    -0.033159 -0.021922 -0.045006
    14 O     0.031218  0.012068  0.088687
 ----------------------------------------
 Mulliken charges used for AMS results%charges...

 dE(predicted):    -0.36329E-01, dE(actual):    -0.41345E-01, Trust radius:    1.000000, all in a.u.
 
----------------------------------------------------------------------
Geometry Convergence after Step  11       (Hartree/Angstrom,Angstrom)
----------------------------------------------------------------------
current energy                               -3.99124861 Hartree
energy change                      -0.04134498     0.00001400    F
constrained gradient max            0.09107696     0.00010000    F
constrained gradient rms            0.03250414     0.00006667    F
gradient max                        0.09107696
gradient rms                        0.03250414
cart. step max                      0.15464097     0.00100000    F
cart. step rms                      0.05935550     0.00066667    F
 
 
--------
Geometry
--------
Formula: H4O8PaS
Atoms
  Index Symbol   x (angstrom)   y (angstrom)   z (angstrom)
      1     Pa     0.47716275     0.18812594     0.44649763
      2      O     2.22578580    -0.22436025     1.61503979
      3      H    -1.68037156     1.41958728     0.44297331
      4      O    -1.69519430     0.45317036     0.55588137
      5      H     2.02917106    -1.07825617     2.03118435
      6      O     0.27142136    -0.66233264    -1.46730703
      7      H     0.58927000    -0.78932719    -2.36203589
      8      O    -0.20454726    -1.54198481     1.56359064
      9      H    -1.13235687    -1.74049117     1.70975944
     10      O     0.48027976     2.49634542     0.90754163
     11      O     1.67114564     1.61741426    -0.87653711
     12      S     1.31390628     3.01475112    -0.36271159
     13      O     2.60427750     3.65864591    -0.13263949
     14      O     0.35226885     3.98490216    -0.90781584
 
Total System Charge            -1.00000
Bonding info available!
 
 *** GO1_GOStep12 ***



 ======================
 RI Hartree-Fock Scheme
 ======================
  
 Fit Set Quality     : GOOD
 Threshold Quality   : GOOD
 Integration Quality : GOOD
 Response Quality    : DEFAULT
 Is Range Separated  :  F
 
 RIHartreeFock Dependency: number of modified vectors:           5
  
 Hartree-Fock exchange energy:   -558.977469502993     

 Energy gradients wrt nuclear displacements
 ==========================================

     Atom      Cartesian (a.u./angstrom)
                 X         Y         Z
 ----------------------------------------
     1 Pa    0.036732 -0.002013 -0.014376
     2 O     0.000162  0.016472  0.001890
     3 H     0.023917 -0.000819 -0.002081
     4 O    -0.025732 -0.027493  0.002808
     5 H    -0.011250 -0.004757 -0.007456
     6 O    -0.005192  0.023043  0.008159
     7 H    -0.000460 -0.003961 -0.000277
     8 O    -0.012112  0.004404 -0.005568
     9 H     0.002124 -0.000767  0.002443
    10 O    -0.036633  0.024412  0.009170
    11 O     0.024920 -0.005602  0.064518
    12 S     0.002509 -0.096523 -0.094405
    13 O     0.019742  0.015193 -0.017103
    14 O    -0.018728  0.058411  0.052278
 ----------------------------------------
 Mulliken charges used for AMS results%charges...
 Rebuilding optimization coordinates

 dE(predicted):    -0.43091E-01, dE(actual):    -0.39158E-01, Trust radius:    1.000000, all in a.u.
 
----------------------------------------------------------------------
Geometry Convergence after Step  12       (Hartree/Angstrom,Angstrom)
----------------------------------------------------------------------
current energy                               -4.03040700 Hartree
energy change                      -0.03915839     0.00001400    F
constrained gradient max            0.09653695     0.00010000    F
constrained gradient rms            0.02982968     0.00006667    F
gradient max                        0.09653695
gradient rms                        0.02982968
cart. step max                      0.18799486     0.00100000    F
cart. step rms                      0.05542295     0.00066667    F
 
 
--------
Geometry
--------
Formula: H4O8PaS
Atoms
  Index Symbol   x (angstrom)   y (angstrom)   z (angstrom)
      1     Pa     0.46926667     0.20363893     0.45152739
      2      O     2.22741876    -0.24589509     1.60040767
      3      H    -1.64970611     1.43756180     0.46244971
      4      O    -1.66266868     0.46730395     0.55955015
      5      H     2.01593941    -1.09998179     2.00928234
      6      O     0.26891458    -0.65710557    -1.46255892
      7      H     0.64100873    -0.75242311    -2.34035705
      8      O    -0.20757109    -1.54431854     1.55170281
      9      H    -1.15201822    -1.66592848     1.68335194
     10      O     0.60151936     2.53660887     1.02685655
     11      O     1.58971504     1.65271664    -0.96002268
     12      S     1.30651442     2.98707520    -0.34750049
     13      O     2.53714276     3.68003011    -0.03827520
     14      O     0.31674339     3.79690730    -1.03299302
 
Total System Charge            -1.00000
Bonding info available!
 
 *** GO1_GOStep13 ***



 ======================
 RI Hartree-Fock Scheme
 ======================
  
 Fit Set Quality     : GOOD
 Threshold Quality   : GOOD
 Integration Quality : GOOD
 Response Quality    : DEFAULT
 Is Range Separated  :  F
 
 RIHartreeFock Dependency: number of modified vectors:           5
  
 Hartree-Fock exchange energy:   -559.028897495659     

 Energy gradients wrt nuclear displacements
 ==========================================

     Atom      Cartesian (a.u./angstrom)
                 X         Y         Z
 ----------------------------------------
     1 Pa    0.008182 -0.003137 -0.015621
     2 O     0.004478  0.015815  0.005863
     3 H     0.025620  0.000000 -0.001930
     4 O    -0.009170 -0.033617  0.001500
     5 H    -0.011832 -0.004152 -0.006942
     6 O    -0.005978  0.022454  0.003713
     7 H    -0.000233 -0.004450  0.000515
     8 O    -0.008589  0.000976 -0.005425
     9 H     0.000580  0.001504  0.001802
    10 O    -0.015285  0.047066  0.049368
    11 O     0.000407  0.038283  0.037418
    12 S     0.021548 -0.108127 -0.103110
    13 O    -0.006867  0.006446  0.006067
    14 O    -0.002861  0.020939  0.026781
 ----------------------------------------
 Mulliken charges used for AMS results%charges...

 dE(predicted):    -0.19749E-01, dE(actual):    -0.16184E-01, Trust radius:    1.000000, all in a.u.
 
----------------------------------------------------------------------
Geometry Convergence after Step  13       (Hartree/Angstrom,Angstrom)
----------------------------------------------------------------------
current energy                               -4.04659117 Hartree
energy change                      -0.01618417     0.00001400    F
constrained gradient max            0.10814359     0.00010000    F
constrained gradient rms            0.02895801     0.00006667    F
gradient max                        0.10814359
gradient rms                        0.02895801
cart. step max                      0.17135215     0.00100000    F
cart. step rms                      0.06214929     0.00066667    F
 
 
--------
Geometry
--------
Formula: H4O8PaS
Atoms
  Index Symbol   x (angstrom)   y (angstrom)   z (angstrom)
      1     Pa     0.45401230     0.20216092     0.42914397
      2      O     2.23694643    -0.26447695     1.60994187
      3      H    -1.82105826     1.52170297     0.51376362
      4      O    -1.67451628     0.55882270     0.57432797
      5      H     2.10275722    -1.10777686     2.06842461
      6      O     0.29857246    -0.73880809    -1.50900630
      7      H     0.68786123    -0.86935833    -2.37455772
      8      O    -0.23348747    -1.55995131     1.52817804
      9      H    -1.16340665    -1.74954220     1.67079267
     10      O     0.55155555     2.53329506     0.95262093
     11      O     1.65300404     1.62942645    -0.93020897
     12      S     1.33020671     3.03951111    -0.34096506
     13      O     2.63719591     3.70883021    -0.12534373
     14      O     0.24257582     3.89235454    -0.90369070
 
Total System Charge            -1.00000
Bonding info available!
 
 *** GO1_GOStep14 ***



 ======================
 RI Hartree-Fock Scheme
 ======================
  
 Fit Set Quality     : GOOD
 Threshold Quality   : GOOD
 Integration Quality : GOOD
 Response Quality    : DEFAULT
 Is Range Separated  :  F
 
 RIHartreeFock Dependency: number of modified vectors:           5
  
 Hartree-Fock exchange energy:   -558.870629080845     

 Energy gradients wrt nuclear displacements
 ==========================================

     Atom      Cartesian (a.u./angstrom)
                 X         Y         Z
 ----------------------------------------
     1 Pa    0.000734  0.013760 -0.000485
     2 O     0.020779  0.007209  0.014851
     3 H     0.007011  0.012938 -0.000530
     4 O    -0.010458 -0.030626  0.002892
     5 H    -0.005706 -0.007213 -0.001175
     6 O    -0.003117  0.004865 -0.025121
     7 H    -0.001143 -0.005109 -0.000954
     8 O    -0.013945 -0.010262  0.001947
     9 H     0.003508 -0.000625  0.002146
    10 O    -0.046333  0.041808  0.003628
    11 O     0.027195 -0.032696  0.023154
    12 S     0.022562 -0.073800 -0.059393
    13 O     0.075318  0.031429  0.003673
    14 O    -0.076405  0.048320  0.035369
 ----------------------------------------
 Mulliken charges used for AMS results%charges...

 dE(predicted):    -0.70922E-02, dE(actual):     0.48652E-02, Trust radius:    0.232714, all in a.u.
 
----------------------------------------------------------------------
Geometry Convergence after Step  14       (Hartree/Angstrom,Angstrom)
----------------------------------------------------------------------
current energy                               -4.04172592 Hartree
energy change                       0.00486525     0.00001400    F
constrained gradient max            0.07644898     0.00010000    F
constrained gradient rms            0.02890851     0.00006667    F
gradient max                        0.07644898
gradient rms                        0.02890851
cart. step max                      0.03913393     0.00100000    F
cart. step rms                      0.01553566     0.00066667    F
 
 
--------
Geometry
--------
Formula: H4O8PaS
Atoms
  Index Symbol   x (angstrom)   y (angstrom)   z (angstrom)
      1     Pa     0.45228243     0.20375371     0.43160640
      2      O     2.22551137    -0.26637811     1.59444006
      3      H    -1.81195359     1.51510314     0.52074254
      4      O    -1.66414025     0.55454724     0.57750646
      5      H     2.09125338    -1.10968984     2.04991088
      6      O     0.29884668    -0.72929100    -1.48729299
      7      H     0.70670066    -0.84501762    -2.34618810
      8      O    -0.22866591    -1.55604295     1.52088304
      9      H    -1.16282938    -1.73302467     1.66074845
     10      O     0.57321644     2.53550211     0.97529335
     11      O     1.63019963     1.63069782    -0.94447217
     12      S     1.32055147     3.03381301    -0.33794535
     13      O     2.59806198     3.69837196    -0.11825613
     14      O     0.27318410     3.86384543    -0.93355525
 
Total System Charge            -1.00000
Bonding info available!
 
 *** GO1_GOStep15 ***



 ======================
 RI Hartree-Fock Scheme
 ======================
  
 Fit Set Quality     : GOOD
 Threshold Quality   : GOOD
 Integration Quality : GOOD
 Response Quality    : DEFAULT
 Is Range Separated  :  F
 
 RIHartreeFock Dependency: number of modified vectors:           5
  
 Hartree-Fock exchange energy:   -558.948078721926     

 Energy gradients wrt nuclear displacements
 ==========================================

     Atom      Cartesian (a.u./angstrom)
                 X         Y         Z
 ----------------------------------------
     1 Pa   -0.004370  0.004043 -0.003489
     2 O     0.012127  0.007771  0.010576
     3 H     0.008268  0.008899 -0.000387
     4 O    -0.001204 -0.029128  0.002056
     5 H    -0.006037 -0.004889 -0.002712
     6 O    -0.002671  0.011187 -0.013185
     7 H    -0.000850 -0.004842  0.000117
     8 O    -0.008547 -0.004161 -0.002403
     9 H     0.001047 -0.000408  0.002210
    10 O    -0.038094  0.038138  0.013841
    11 O     0.025598 -0.028958  0.018364
    12 S     0.021519 -0.036214 -0.063588
    13 O     0.026777  0.012092 -0.003469
    14 O    -0.033562  0.026470  0.042068
 ----------------------------------------
 Mulliken charges used for AMS results%charges...

 dE(predicted):    -0.72670E-02, dE(actual):    -0.86737E-02, Trust radius:    0.465428, all in a.u.
 
----------------------------------------------------------------------
Geometry Convergence after Step  15       (Hartree/Angstrom,Angstrom)
----------------------------------------------------------------------
current energy                               -4.05039966 Hartree
energy change                      -0.00867374     0.00001400    F
constrained gradient max            0.06363140     0.00010000    F
constrained gradient rms            0.02017026     0.00006667    F
gradient max                        0.06363140
gradient rms                        0.02017026
cart. step max                      0.07896626     0.00100000    F
cart. step rms                      0.02825244     0.00066667    F
 
 
--------
Geometry
--------
Formula: H4O8PaS
Atoms
  Index Symbol   x (angstrom)   y (angstrom)   z (angstrom)
      1     Pa     0.44584484     0.21239505     0.43629424
      2      O     2.21953678    -0.28337127     1.57120534
      3      H    -1.83436235     1.52647884     0.53961760
      4      O    -1.64697238     0.57585370     0.58155628
      5      H     2.10481468    -1.12825576     2.02413733
      6      O     0.30550207    -0.73590395    -1.46497095
      7      H     0.76251809    -0.82086056    -2.30271877
      8      O    -0.23482839    -1.55400108     1.50611886
      9      H    -1.17610120    -1.70120472     1.63736539
     10      O     0.62940613     2.55077899     1.02694622
     11      O     1.58104336     1.65018403    -0.97578232
     12      S     1.30654974     3.02660637    -0.32324546
     13      O     2.56391971     3.69261140    -0.10138647
     14      O     0.27534793     3.78487917    -0.99171609
 
Total System Charge            -1.00000
Bonding info available!
 
 *** GO1_GOStep16 ***



 ======================
 RI Hartree-Fock Scheme
 ======================
  
 Fit Set Quality     : GOOD
 Threshold Quality   : GOOD
 Integration Quality : GOOD
 Response Quality    : DEFAULT
 Is Range Separated  :  F
 
 RIHartreeFock Dependency: number of modified vectors:           5
  
 Hartree-Fock exchange energy:   -559.010447387950     

 Energy gradients wrt nuclear displacements
 ==========================================

     Atom      Cartesian (a.u./angstrom)
                 X         Y         Z
 ----------------------------------------
     1 Pa   -0.018052 -0.000181 -0.003707
     2 O     0.007023  0.005076  0.009578
     3 H     0.007405  0.003794  0.000516
     4 O     0.011992 -0.025552  0.000532
     5 H    -0.005155 -0.001633 -0.003841
     6 O    -0.002628  0.013801 -0.006505
     7 H    -0.000388 -0.004848  0.001033
     8 O    -0.004849 -0.002177 -0.005248
     9 H     0.000087  0.000569  0.001892
    10 O    -0.023114  0.037139  0.028099
    11 O     0.016252 -0.006328  0.003597
    12 S     0.017738 -0.011293 -0.054688
    13 O    -0.005081 -0.005970 -0.003826
    14 O    -0.001229 -0.002396  0.032569
 ----------------------------------------
 Mulliken charges used for AMS results%charges...

 dE(predicted):    -0.78628E-02, dE(actual):    -0.77775E-02, Trust radius:    0.930856, all in a.u.
 
----------------------------------------------------------------------
Geometry Convergence after Step  16       (Hartree/Angstrom,Angstrom)
----------------------------------------------------------------------
current energy                               -4.05817720 Hartree
energy change                      -0.00777754     0.00001400    F
constrained gradient max            0.05472050     0.00010000    F
constrained gradient rms            0.01491115     0.00006667    F
gradient max                        0.05472050
gradient rms                        0.01491115
cart. step max                      0.05907378     0.00100000    F
cart. step rms                      0.02535092     0.00066667    F
 
 
--------
Geometry
--------
Formula: H4O8PaS
Atoms
  Index Symbol   x (angstrom)   y (angstrom)   z (angstrom)
      1     Pa     0.43917864     0.21820045     0.43968599
      2      O     2.22367146    -0.30538171     1.53700482
      3      H    -1.89343613     1.54579771     0.53838085
      4      O    -1.63834223     0.61198415     0.57368846
      5      H     2.14458604    -1.15264968     1.98966720
      6      O     0.33231303    -0.77882964    -1.43762005
      7      H     0.81241979    -0.81268193    -2.26663098
      8      O    -0.24747721    -1.54271461     1.51049265
      9      H    -1.19306649    -1.67982251     1.62455669
     10      O     0.67072866     2.56427575     1.05974817
     11      O     1.53712069     1.66162936    -1.00274798
     12      S     1.29395164     3.02317991    -0.30297283
     13      O     2.54886191     3.69048607    -0.08832774
     14      O     0.27170921     3.75271688    -1.01150405
 
Total System Charge            -1.00000
Bonding info available!
 
 *** GO1_GOStep17 ***



 ======================
 RI Hartree-Fock Scheme
 ======================
  
 Fit Set Quality     : GOOD
 Threshold Quality   : GOOD
 Integration Quality : GOOD
 Response Quality    : DEFAULT
 Is Range Separated  :  F
 
 RIHartreeFock Dependency: number of modified vectors:           5
  
 Hartree-Fock exchange energy:   -559.027452749154     

 Energy gradients wrt nuclear displacements
 ==========================================

     Atom      Cartesian (a.u./angstrom)
                 X         Y         Z
 ----------------------------------------
     1 Pa   -0.025678  0.001216 -0.002095
     2 O     0.005236  0.002235  0.009296
     3 H     0.003804  0.004382  0.001245
     4 O     0.019496 -0.024253  0.000496
     5 H    -0.004007  0.000106 -0.003948
     6 O    -0.002480  0.012252 -0.004492
     7 H     0.000106 -0.004718  0.000950
     8 O    -0.002452 -0.002367 -0.006234
     9 H    -0.000595  0.000875  0.001500
    10 O    -0.010112  0.041346  0.028848
    11 O     0.010832  0.004659 -0.013150
    12 S     0.009936 -0.014261 -0.030745
    13 O    -0.012734 -0.008344 -0.000898
    14 O     0.008647 -0.013127  0.019228
 ----------------------------------------
 Mulliken charges used for AMS results%charges...

 dE(predicted):    -0.22614E-02, dE(actual):    -0.29839E-02, Trust radius:    0.930856, all in a.u.
 
----------------------------------------------------------------------
Geometry Convergence after Step  17       (Hartree/Angstrom,Angstrom)
----------------------------------------------------------------------
current energy                               -4.06116110 Hartree
energy change                      -0.00298390     0.00001400    F
constrained gradient max            0.04134934     0.00010000    F
constrained gradient rms            0.01302524     0.00006667    F
gradient max                        0.04134934
gradient rms                        0.01302524
cart. step max                      0.08113333     0.00100000    F
cart. step rms                      0.03187922     0.00066667    F
 
 
--------
Geometry
--------
Formula: H4O8PaS
Atoms
  Index Symbol   x (angstrom)   y (angstrom)   z (angstrom)
      1     Pa     0.43351657     0.21575161     0.44488204
      2      O     2.23831225    -0.32580638     1.48365943
      3      H    -1.97456947     1.55598538     0.49838441
      4      O    -1.63464846     0.65249087     0.54926365
      5      H     2.21920373    -1.17571508     1.93492339
      6      O     0.37756621    -0.84958474    -1.39118844
      7      H     0.84691248    -0.80542017    -2.22651213
      8      O    -0.27048967    -1.51899921     1.53736412
      9      H    -1.21871379    -1.66172877     1.62188289
     10      O     0.68642741     2.56861085     1.07716114
     11      O     1.49086501     1.66730730    -1.00559950
     12      S     1.28191925     3.02973916    -0.27988589
     13      O     2.55212015     3.67018953    -0.08716831
     14      O     0.27379734     3.77336986    -0.99374561
 
Total System Charge            -1.00000
Bonding info available!
 
 *** GO1_GOStep18 ***



 ======================
 RI Hartree-Fock Scheme
 ======================
  
 Fit Set Quality     : GOOD
 Threshold Quality   : GOOD
 Integration Quality : GOOD
 Response Quality    : DEFAULT
 Is Range Separated  :  F
 
 RIHartreeFock Dependency: number of modified vectors:           5
  
 Hartree-Fock exchange energy:   -559.041107043321     

 Energy gradients wrt nuclear displacements
 ==========================================

     Atom      Cartesian (a.u./angstrom)
                 X         Y         Z
 ----------------------------------------
     1 Pa   -0.025076 -0.003324 -0.005244
     2 O     0.002115  0.000873  0.006726
     3 H     0.000070  0.003628  0.001503
     4 O     0.022424 -0.019718  0.002064
     5 H    -0.003067  0.001289 -0.003899
     6 O    -0.002193  0.011044  0.001789
     7 H     0.000528 -0.003907  0.000751
     8 O    -0.000740 -0.000873 -0.007307
     9 H    -0.001100  0.000537  0.000758
    10 O    -0.003535  0.039603  0.020627
    11 O     0.010535  0.006699 -0.016108
    12 S     0.005716 -0.009223 -0.012430
    13 O    -0.017536 -0.011052 -0.002319
    14 O     0.011858 -0.015577  0.013089
 ----------------------------------------
 Mulliken charges used for AMS results%charges...

 dE(predicted):    -0.17705E-02, dE(actual):    -0.29080E-02, Trust radius:    0.930856, all in a.u.
 
----------------------------------------------------------------------
Geometry Convergence after Step  18       (Hartree/Angstrom,Angstrom)
----------------------------------------------------------------------
current energy                               -4.06406913 Hartree
energy change                      -0.00290803     0.00001400    F
constrained gradient max            0.03961501     0.00010000    F
constrained gradient rms            0.01148680     0.00006667    F
gradient max                        0.03961501
gradient rms                        0.01148680
cart. step max                      0.15878965     0.00100000    F
cart. step rms                      0.06585999     0.00066667    F
 
 
--------
Geometry
--------
Formula: H4O8PaS
Atoms
  Index Symbol   x (angstrom)   y (angstrom)   z (angstrom)
      1     Pa     0.42651503     0.19875159     0.44612246
      2      O     2.27880229    -0.36622025     1.36555961
      3      H    -2.10627444     1.54512371     0.38508563
      4      O    -1.63579006     0.70799049     0.47585941
      5      H     2.37799338    -1.21040487     1.81210184
      6      O     0.45677317    -0.97466978    -1.32199050
      7      H     0.90768442    -0.80619968    -2.15289348
      8      O    -0.32661422    -1.45449911     1.61844814
      9      H    -1.27721679    -1.59863721     1.66483281
     10      O     0.68571110     2.55979193     1.09856534
     11      O     1.40298420     1.68051598    -0.99609253
     12      S     1.26218863     3.04331162    -0.23507907
     13      O     2.57388041     3.61983880    -0.07402945
     14      O     0.27558189     3.85149699    -0.92306901
 
Total System Charge            -1.00000
Bonding info available!
 
 *** GO1_GOStep19 ***



 ======================
 RI Hartree-Fock Scheme
 ======================
  
 Fit Set Quality     : GOOD
 Threshold Quality   : GOOD
 Integration Quality : GOOD
 Response Quality    : DEFAULT
 Is Range Separated  :  F
 
 RIHartreeFock Dependency: number of modified vectors:           5
  
 Hartree-Fock exchange energy:   -559.038991858245     

 Energy gradients wrt nuclear displacements
 ==========================================

     Atom      Cartesian (a.u./angstrom)
                 X         Y         Z
 ----------------------------------------
     1 Pa   -0.013342 -0.013793 -0.013205
     2 O     0.001009 -0.001832  0.003638
     3 H    -0.004889  0.002810  0.001470
     4 O     0.017022 -0.010671  0.005407
     5 H    -0.002367  0.003317 -0.003834
     6 O    -0.001113  0.007766  0.008093
     7 H     0.000696 -0.001573  0.001578
     8 O    -0.001413  0.001045 -0.006416
     9 H    -0.000831 -0.000348 -0.000599
    10 O     0.000435  0.035584  0.000876
    11 O     0.009981  0.007094 -0.007984
    12 S    -0.000337 -0.018087  0.010993
    13 O    -0.004774 -0.005848 -0.003124
    14 O    -0.000078 -0.005464  0.003107
 ----------------------------------------
 Mulliken charges used for AMS results%charges...
 Rebuilding optimization coordinates

 dE(predicted):    -0.34400E-02, dE(actual):    -0.40117E-02, Trust radius:    1.000000, all in a.u.
 
----------------------------------------------------------------------
Geometry Convergence after Step  19       (Hartree/Angstrom,Angstrom)
----------------------------------------------------------------------
current energy                               -4.06808081 Hartree
energy change                      -0.00401168     0.00001400    F
constrained gradient max            0.03560360     0.00010000    F
constrained gradient rms            0.00882561     0.00006667    F
gradient max                        0.03560360
gradient rms                        0.00882561
cart. step max                      0.17763187     0.00100000    F
cart. step rms                      0.07003017     0.00066667    F
 
 
--------
Geometry
--------
Formula: H4O8PaS
Atoms
  Index Symbol   x (angstrom)   y (angstrom)   z (angstrom)
      1     Pa     0.43151192     0.17567236     0.44819687
      2      O     2.32648566    -0.39707330     1.25429115
      3      H    -2.18646538     1.48962026     0.20745377
      4      O    -1.62740018     0.72573874     0.36496256
      5      H     2.53844212    -1.22185489     1.69505801
      6      O     0.53526130    -1.08096923    -1.26333062
      7      H     0.87541429    -0.81064235    -2.12190003
      8      O    -0.37712453    -1.36904021     1.72103185
      9      H    -1.33040914    -1.49788587     1.74676718
     10      O     0.67415895     2.53884457     1.13116921
     11      O     1.31498860     1.69830135    -0.97820863
     12      S     1.24718664     3.05319326    -0.18103222
     13      O     2.59090949     3.56346887    -0.03193750
     14      O     0.28925928     3.92881666    -0.82910039
 
Total System Charge            -1.00000
Bonding info available!
 
 *** GO1_GOStep20 ***



 ======================
 RI Hartree-Fock Scheme
 ======================
  
 Fit Set Quality     : GOOD
 Threshold Quality   : GOOD
 Integration Quality : GOOD
 Response Quality    : DEFAULT
 Is Range Separated  :  F
 
 RIHartreeFock Dependency: number of modified vectors:           5
  
 Hartree-Fock exchange energy:   -559.038405894838     

 Energy gradients wrt nuclear displacements
 ==========================================

     Atom      Cartesian (a.u./angstrom)
                 X         Y         Z
 ----------------------------------------
     1 Pa   -0.002301 -0.023261 -0.015626
     2 O     0.001549 -0.002957 -0.000753
     3 H    -0.003242 -0.003733  0.002038
     4 O     0.006307  0.002262  0.006189
     5 H    -0.002697  0.003891 -0.003023
     6 O     0.001275  0.003907  0.012137
     7 H     0.000558  0.001475  0.000364
     8 O    -0.003424  0.003206 -0.005415
     9 H    -0.000216 -0.000761 -0.001400
    10 O     0.000708  0.032594 -0.011869
    11 O     0.005530  0.005566  0.002068
    12 S    -0.001286 -0.018444  0.016106
    13 O     0.001574 -0.002928 -0.002514
    14 O    -0.004335 -0.000815  0.001698
 ----------------------------------------
 Mulliken charges used for AMS results%charges...

 dE(predicted):    -0.15300E-02, dE(actual):    -0.16156E-02, Trust radius:    1.000000, all in a.u.
 
----------------------------------------------------------------------
Geometry Convergence after Step  20       (Hartree/Angstrom,Angstrom)
----------------------------------------------------------------------
current energy                               -4.06969639 Hartree
energy change                      -0.00161558     0.00001400    F
constrained gradient max            0.03261063     0.00010000    F
constrained gradient rms            0.00855901     0.00006667    F
gradient max                        0.03261063
gradient rms                        0.00855901
cart. step max                      0.04265736     0.00100000    F
cart. step rms                      0.01784411     0.00066667    F
 
 
--------
Geometry
--------
Formula: H4O8PaS
Atoms
  Index Symbol   x (angstrom)   y (angstrom)   z (angstrom)
      1     Pa     0.43047259     0.18224153     0.45303689
      2      O     2.32119243    -0.37996383     1.28320511
      3      H    -2.15699378     1.49206491     0.18679104
      4      O    -1.63230788     0.70792571     0.35993019
      5      H     2.51442064    -1.20566367     1.73676321
      6      O     0.50486160    -1.05154057    -1.28362526
      7      H     0.83275693    -0.80940999    -2.15474515
      8      O    -0.35166217    -1.39043523     1.71348087
      9      H    -1.30413907    -1.51878653     1.75960849
     10      O     0.67606725     2.53570594     1.14096101
     11      O     1.32384605     1.69474491    -0.98115494
     12      S     1.25243087     3.05110758    -0.18510395
     13      O     2.59749811     3.56018815    -0.03511428
     14      O     0.29377545     3.92801131    -0.83061204
 
Total System Charge            -1.00000
Bonding info available!
 
 *** GO1_GOStep21 ***



 ======================
 RI Hartree-Fock Scheme
 ======================
  
 Fit Set Quality     : GOOD
 Threshold Quality   : GOOD
 Integration Quality : GOOD
 Response Quality    : DEFAULT
 Is Range Separated  :  F
 
 RIHartreeFock Dependency: number of modified vectors:           5
  
 Hartree-Fock exchange energy:   -559.023064794353     

 Energy gradients wrt nuclear displacements
 ==========================================

     Atom      Cartesian (a.u./angstrom)
                 X         Y         Z
 ----------------------------------------
     1 Pa   -0.005575 -0.015367 -0.011474
     2 O     0.001275  0.001367 -0.000928
     3 H    -0.001565 -0.004667  0.002002
     4 O     0.006655  0.001243  0.004447
     5 H    -0.001364 -0.000362 -0.000852
     6 O    -0.000054  0.002882  0.007321
     7 H     0.000590  0.000468 -0.000571
     8 O    -0.002694  0.000685 -0.005413
     9 H     0.000111 -0.000113 -0.000814
    10 O    -0.003959  0.028698  0.004903
    11 O     0.007751  0.000565 -0.001800
    12 S    -0.001426 -0.013483  0.005423
    13 O     0.004621 -0.002684 -0.003002
    14 O    -0.004366  0.000768  0.000757
 ----------------------------------------
 Mulliken charges used for AMS results%charges...

 dE(predicted):    -0.55869E-03, dE(actual):    -0.75600E-03, Trust radius:    1.000000, all in a.u.
 
----------------------------------------------------------------------
Geometry Convergence after Step  21       (Hartree/Angstrom,Angstrom)
----------------------------------------------------------------------
current energy                               -4.07045239 Hartree
energy change                      -0.00075600     0.00001400    F
constrained gradient max            0.02871513     0.00010000    F
constrained gradient rms            0.00654332     0.00006667    F
gradient max                        0.02871513
gradient rms                        0.00654332
cart. step max                      0.15230687     0.00100000    F
cart. step rms                      0.04295310     0.00066667    F
 
 
--------
Geometry
--------
Formula: H4O8PaS
Atoms
  Index Symbol   x (angstrom)   y (angstrom)   z (angstrom)
      1     Pa     0.43279527     0.17627896     0.45702377
      2      O     2.34126458    -0.36583315     1.25255565
      3      H    -2.13671735     1.45170954     0.03448417
      4      O    -1.62745606     0.67611334     0.27670802
      5      H     2.56902192    -1.17655480     1.71911453
      6      O     0.49266073    -1.06555258    -1.28539798
      7      H     0.74142641    -0.82417158    -2.18182592
      8      O    -0.34092163    -1.36092453     1.77083130
      9      H    -1.29409194    -1.47309594     1.84108349
     10      O     0.66753949     2.51413493     1.17026270
     11      O     1.27597553     1.70455768    -0.98483049
     12      S     1.25312281     3.04729544    -0.15433686
     13      O     2.60850876     3.51996019     0.00998518
     14      O     0.31909049     3.97227270    -0.76223637
 
Total System Charge            -1.00000
Bonding info available!
 
 *** GO1_GOStep22 ***



 ======================
 RI Hartree-Fock Scheme
 ======================
  
 Fit Set Quality     : GOOD
 Threshold Quality   : GOOD
 Integration Quality : GOOD
 Response Quality    : DEFAULT
 Is Range Separated  :  F
 
 RIHartreeFock Dependency: number of modified vectors:           5
  
 Hartree-Fock exchange energy:   -559.016042582199     

 Energy gradients wrt nuclear displacements
 ==========================================

     Atom      Cartesian (a.u./angstrom)
                 X         Y         Z
 ----------------------------------------
     1 Pa   -0.004018 -0.010661 -0.006028
     2 O     0.000357  0.004107 -0.002049
     3 H    -0.000472 -0.005082  0.001874
     4 O     0.006819  0.000887  0.002046
     5 H    -0.000799 -0.002198  0.000457
     6 O    -0.000892  0.001039  0.001596
     7 H     0.000022  0.000313 -0.000488
     8 O    -0.002093 -0.001228 -0.004840
     9 H     0.000070  0.000712 -0.000389
    10 O    -0.007213  0.028548  0.013930
    11 O     0.004113 -0.008126 -0.005113
    12 S     0.003455 -0.008914 -0.004888
    13 O     0.001462 -0.000072 -0.000804
    14 O    -0.000811  0.000674  0.004694
 ----------------------------------------
 Mulliken charges used for AMS results%charges...

 dE(predicted):    -0.78247E-03, dE(actual):    -0.11407E-02, Trust radius:    1.000000, all in a.u.
 
----------------------------------------------------------------------
Geometry Convergence after Step  22       (Hartree/Angstrom,Angstrom)
----------------------------------------------------------------------
current energy                               -4.07159304 Hartree
energy change                      -0.00114065     0.00001400    F
constrained gradient max            0.02855732     0.00010000    F
constrained gradient rms            0.00621071     0.00006667    F
gradient max                        0.02855732
gradient rms                        0.00621071
cart. step max                      0.21187504     0.00100000    F
cart. step rms                      0.06362611     0.00066667    F
 
 
--------
Geometry
--------
Formula: H4O8PaS
Atoms
  Index Symbol   x (angstrom)   y (angstrom)   z (angstrom)
      1     Pa     0.43406455     0.16386720     0.46082391
      2      O     2.37174753    -0.35715269     1.18530448
      3      H    -2.11691787     1.38756775    -0.17739087
      4      O    -1.61261677     0.64202420     0.15342753
      5      H     2.67309427    -1.14291088     1.65261212
      6      O     0.50527993    -1.10435772    -1.27498976
      7      H     0.65120229    -0.84768658    -2.18915310
      8      O    -0.35258229    -1.29460867     1.86054685
      9      H    -1.30721916    -1.38327431     1.94563289
     10      O     0.65787241     2.47534167     1.22417937
     11      O     1.18767450     1.73104869    -0.97122603
     12      S     1.24171116     3.04594473    -0.09612892
     13      O     2.62443231     3.44477429     0.04683917
     14      O     0.34447614     4.03561254    -0.65705644
 
Total System Charge            -1.00000
Bonding info available!
 
 *** GO1_GOStep23 ***



 ======================
 RI Hartree-Fock Scheme
 ======================
  
 Fit Set Quality     : GOOD
 Threshold Quality   : GOOD
 Integration Quality : GOOD
 Response Quality    : DEFAULT
 Is Range Separated  :  F
 
 RIHartreeFock Dependency: number of modified vectors:           5
  
 Hartree-Fock exchange energy:   -559.007704786723     

 Energy gradients wrt nuclear displacements
 ==========================================

     Atom      Cartesian (a.u./angstrom)
                 X         Y         Z
 ----------------------------------------
     1 Pa   -0.001045 -0.006716 -0.001341
     2 O    -0.000261  0.005438 -0.003813
     3 H    -0.000405 -0.004512  0.001771
     4 O     0.007974  0.000250 -0.000721
     5 H    -0.000416 -0.002735  0.001170
     6 O    -0.001465 -0.000953 -0.003583
     7 H    -0.000195  0.000563  0.000253
     8 O    -0.001913 -0.002530 -0.003098
     9 H    -0.000078  0.001377 -0.000412
    10 O    -0.011405  0.018905  0.022232
    11 O     0.000661 -0.010384 -0.002676
    12 S     0.003904 -0.001554 -0.005801
    13 O     0.005406 -0.000843 -0.003991
    14 O    -0.000761  0.003695  0.000010
 ----------------------------------------
 Mulliken charges used for AMS results%charges...

 dE(predicted):    -0.77573E-03, dE(actual):    -0.69069E-03, Trust radius:    1.000000, all in a.u.
 
----------------------------------------------------------------------
Geometry Convergence after Step  23       (Hartree/Angstrom,Angstrom)
----------------------------------------------------------------------
current energy                               -4.07228373 Hartree
energy change                      -0.00069069     0.00001400    F
constrained gradient max            0.02221692     0.00010000    F
constrained gradient rms            0.00584644     0.00006667    F
gradient max                        0.02221692
gradient rms                        0.00584644
cart. step max                      0.04222325     0.00100000    F
cart. step rms                      0.01679703     0.00066667    F
 
 
--------
Geometry
--------
Formula: H4O8PaS
Atoms
  Index Symbol   x (angstrom)   y (angstrom)   z (angstrom)
      1     Pa     0.43589321     0.16092820     0.45418689
      2      O     2.37960603    -0.35548441     1.16226601
      3      H    -2.10382130     1.37554484    -0.21961412
      4      O    -1.60715846     0.63218461     0.12933784
      5      H     2.69890101    -1.13258723     1.63117410
      6      O     0.50939491    -1.12037519    -1.27262248
      7      H     0.62991581    -0.87443226    -2.19342547
      8      O    -0.35885181    -1.26783527     1.88166356
      9      H    -1.31359310    -1.35404272     1.96900719
     10      O     0.65352376     2.46476641     1.22875316
     11      O     1.16753917     1.74230718    -0.97519949
     12      S     1.23981070     3.04237622    -0.08321301
     13      O     2.62006665     3.43543031     0.07722043
     14      O     0.35099241     4.04740952    -0.62611340
 
Total System Charge            -1.00000
Bonding info available!
 
 *** GO1_GOStep24 ***



 ======================
 RI Hartree-Fock Scheme
 ======================
  
 Fit Set Quality     : GOOD
 Threshold Quality   : GOOD
 Integration Quality : GOOD
 Response Quality    : DEFAULT
 Is Range Separated  :  F
 
 RIHartreeFock Dependency: number of modified vectors:           5
  
 Hartree-Fock exchange energy:   -559.015898144780     

 Energy gradients wrt nuclear displacements
 ==========================================

     Atom      Cartesian (a.u./angstrom)
                 X         Y         Z
 ----------------------------------------
     1 Pa   -0.000570 -0.005702 -0.003198
     2 O    -0.000141  0.005104 -0.003811
     3 H    -0.000970 -0.003479  0.001254
     4 O     0.009982 -0.001241  0.000200
     5 H    -0.000597 -0.002253  0.000970
     6 O    -0.001556 -0.001200 -0.003151
     7 H    -0.000082  0.000811  0.000140
     8 O    -0.002391 -0.002455 -0.002307
     9 H    -0.000398  0.001206 -0.000363
    10 O    -0.009297  0.022911  0.018140
    11 O    -0.003145 -0.009603 -0.002032
    12 S     0.008104 -0.006299 -0.008442
    13 O    -0.000374  0.000720 -0.000744
    14 O     0.001435  0.001480  0.003343
 ----------------------------------------
 Mulliken charges used for AMS results%charges...

 dE(predicted):    -0.17614E-03, dE(actual):    -0.24584E-03, Trust radius:    1.000000, all in a.u.
 
----------------------------------------------------------------------
Geometry Convergence after Step  24       (Hartree/Angstrom,Angstrom)
----------------------------------------------------------------------
current energy                               -4.07252957 Hartree
energy change                      -0.00024584     0.00001400    F
constrained gradient max            0.02291187     0.00010000    F
constrained gradient rms            0.00593415     0.00006667    F
gradient max                        0.02291187
gradient rms                        0.00593415
[...]
     9     H       0.034783  -0.177209   0.069971
    10     O      -0.276037   0.047121  -0.111509
    11     O       0.288225  -0.048591   0.080339
    12     S       0.000690  -0.000282  -0.002920
    13     O       0.074914  -0.023484  -0.229038
    14     O      -0.083642   0.025153   0.255259
 
 Mode:    25      Frequency (cm-1):      434.9326     Intensity (km/mol):      282.8752
 Index  Atom      ---- Displacements (x/y/z) ----
     1    Pa      -0.002405   0.002368  -0.000827
     2     O       0.022878  -0.086784   0.010132
     3     H      -0.049015  -0.004455  -0.011027
     4     O       0.015405   0.014422   0.004092
     5     H      -0.499571   0.667698  -0.185929
     6     O       0.042816  -0.021650  -0.014979
     7     H      -0.250673   0.230094   0.215392
     8     O       0.020284  -0.011313   0.032641
     9     H      -0.052358   0.118755  -0.273036
    10     O       0.006013   0.004951   0.003145
    11     O       0.011981   0.002997   0.004674
    12     S      -0.010361   0.008155  -0.004362
    13     O       0.000841  -0.023482  -0.000174
    14     O      -0.011109   0.006580  -0.002825
 
 Mode:    26      Frequency (cm-1):      470.9189     Intensity (km/mol):      195.5288
 Index  Atom      ---- Displacements (x/y/z) ----
     1    Pa      -0.004694   0.009473  -0.003382
     2     O      -0.004813   0.004996  -0.002017
     3     H      -0.854454  -0.327620  -0.254172
     4     O       0.196109  -0.001077   0.065861
     5     H       0.025840  -0.039476   0.010148
     6     O      -0.016158  -0.042915  -0.044417
     7     H       0.063400  -0.090201  -0.112426
     8     O      -0.044985  -0.038571   0.047249
     9     H      -0.032414  -0.053173   0.099235
    10     O       0.016041  -0.023418   0.002503
    11     O       0.014120  -0.023470   0.010867
    12     S      -0.019121  -0.008528  -0.005080
    13     O      -0.024215   0.003875  -0.008550
    14     O       0.020187   0.032963   0.003717
 
 Mode:    27      Frequency (cm-1):      487.6260     Intensity (km/mol):       15.7524
 Index  Atom      ---- Displacements (x/y/z) ----
     1    Pa       0.000702   0.008104  -0.000900
     2     O      -0.189531   0.041331  -0.066314
     3     H       0.748946   0.026958   0.219604
     4     O       0.193905  -0.144680   0.080210
     5     H      -0.197346   0.059341  -0.075773
     6     O      -0.019006  -0.070166  -0.080201
     7     H       0.065228  -0.135354  -0.147947
     8     O      -0.067056  -0.050278   0.068082
     9     H      -0.039206  -0.097319   0.183928
    10     O      -0.008288   0.155524   0.046065
    11     O       0.030266   0.144794  -0.069389
    12     S       0.027628   0.039152   0.005350
    13     O       0.097844  -0.134915   0.045301
    14     O      -0.139894  -0.127709  -0.032774
 
 Mode:    28      Frequency (cm-1):      507.0351     Intensity (km/mol):      191.4935
 Index  Atom      ---- Displacements (x/y/z) ----
     1    Pa       0.016671  -0.005543  -0.047149
     2     O      -0.015614   0.004178   0.015690
     3     H       0.103816   0.009200  -0.114840
     4     O      -0.022835   0.003454   0.038369
     5     H       0.025307  -0.000337  -0.101625
     6     O       0.017192   0.243626   0.295627
     7     H      -0.080774   0.443683   0.336267
     8     O      -0.207226  -0.172852   0.289065
     9     H      -0.168164  -0.370806   0.416276
    10     O      -0.002523  -0.005432  -0.018458
    11     O       0.006074  -0.009569  -0.008121
    12     S      -0.004975  -0.000163   0.015784
    13     O      -0.002968   0.007059  -0.002898
    14     O       0.004586   0.004783   0.006435
 
 Mode:    29      Frequency (cm-1):      526.0090     Intensity (km/mol):      223.0096
 Index  Atom      ---- Displacements (x/y/z) ----
     1    Pa      -0.009612  -0.031896  -0.001026
     2     O       0.037986   0.014768   0.012415
     3     H      -0.743566  -0.149933  -0.218558
     4     O      -0.010945   0.076123  -0.010881
     5     H       0.176437  -0.189796   0.074338
     6     O       0.016408   0.122636   0.126814
     7     H      -0.069463   0.176591   0.201538
     8     O       0.083406   0.080374  -0.102201
     9     H       0.059431   0.099753  -0.213254
    10     O       0.039247   0.139671   0.061642
    11     O       0.074867   0.128688  -0.051380
    12     S      -0.004754   0.055151  -0.007202
    13     O       0.076851  -0.145069   0.040111
    14     O      -0.133105  -0.062722  -0.037475
 
 Mode:    30      Frequency (cm-1):      536.6631     Intensity (km/mol):      131.2120
 Index  Atom      ---- Displacements (x/y/z) ----
     1    Pa      -0.050139   0.009750  -0.018145
     2     O       0.377101  -0.081295   0.133088
     3     H       0.468359  -0.017211   0.146958
     4     O       0.207135  -0.098995   0.078919
     5     H       0.469304  -0.218905   0.172819
     6     O       0.032884   0.013492   0.031065
     7     H      -0.147806   0.209877   0.159461
     8     O       0.038759   0.003849  -0.002425
     9     H      -0.015987   0.142129  -0.219289
    10     O      -0.112951   0.029243  -0.040447
    11     O      -0.113191   0.029802  -0.040182
    12     S       0.090671  -0.011618   0.031096
    13     O       0.062608   0.099929   0.010757
    14     O       0.001877  -0.120930   0.012784
 
 Mode:    31      Frequency (cm-1):      572.6057     Intensity (km/mol):      145.7127
 Index  Atom      ---- Displacements (x/y/z) ----
     1    Pa       0.004246   0.014583  -0.001275
     2     O       0.278329  -0.057758   0.097138
     3     H      -0.214981   0.092010  -0.078149
     4     O      -0.236144   0.085433  -0.085916
     5     H       0.350241  -0.163883   0.132299
     6     O      -0.012001  -0.201480  -0.214644
     7     H       0.059411  -0.267408  -0.274459
     8     O      -0.147647  -0.147100   0.210933
     9     H      -0.129330  -0.189455   0.302058
    10     O       0.106561   0.005989  -0.074406
    11     O       0.039552   0.006380   0.116136
    12     S      -0.007016   0.159316  -0.022421
    13     O       0.104519  -0.181678   0.060418
    14     O      -0.184593  -0.005563  -0.051581
 
 Mode:    32      Frequency (cm-1):      585.1151     Intensity (km/mol):       45.9391
 Index  Atom      ---- Displacements (x/y/z) ----
     1    Pa       0.024154  -0.004930   0.008284
     2     O      -0.086771  -0.008477  -0.028674
     3     H      -0.719305  -0.084501  -0.218549
     4     O      -0.113239   0.102507  -0.047763
     5     H      -0.242131   0.221052  -0.099140
     6     O      -0.011947  -0.032824  -0.043997
     7     H       0.050388  -0.126169  -0.080968
     8     O      -0.036256  -0.022257   0.035051
     9     H      -0.016579  -0.101212   0.106862
    10     O      -0.211934   0.062275  -0.079081
    11     O      -0.215374   0.049626  -0.073387
    12     S       0.138231  -0.009134   0.042882
    13     O       0.117358   0.166482   0.026509
    14     O      -0.008579  -0.222144   0.024349
 
 Mode:    33      Frequency (cm-1):      596.1567     Intensity (km/mol):       11.8648
 Index  Atom      ---- Displacements (x/y/z) ----
     1    Pa       0.001505  -0.000786  -0.007851
     2     O      -0.005475   0.002138  -0.012459
     3     H       0.042901   0.000078   0.007029
     4     O       0.017139  -0.008256  -0.003279
     5     H      -0.020926   0.003100   0.033239
     6     O       0.001728   0.010502   0.006767
     7     H      -0.000407   0.013541   0.009450
     8     O       0.009627   0.003970  -0.014880
     9     H       0.006365   0.022621  -0.021823
    10     O       0.156374   0.511183  -0.103642
    11     O      -0.088548  -0.542736  -0.077922
    12     S       0.069648  -0.024707  -0.226774
    13     O      -0.131367   0.036064   0.383286
    14     O      -0.122190   0.045391   0.387065
 
 Mode:    34      Frequency (cm-1):      656.4977     Intensity (km/mol):       78.8837
 Index  Atom      ---- Displacements (x/y/z) ----
     1    Pa       0.002372   0.002011  -0.000126
     2     O       0.168239  -0.051112   0.059828
     3     H      -0.119050   0.074487  -0.036481
     4     O      -0.165978   0.052435  -0.059999
     5     H       0.152090  -0.021389   0.058252
     6     O       0.000153  -0.123274  -0.137583
     7     H      -0.008259  -0.128748  -0.133070
     8     O      -0.088549  -0.088468   0.137995
     9     H      -0.093372  -0.108555   0.128986
    10     O      -0.069217   0.298437   0.453919
    11     O       0.224562   0.195530  -0.457507
    12     S      -0.055076  -0.209024   0.002069
    13     O      -0.196175   0.082495  -0.068121
    14     O       0.207111   0.034329   0.068046
 
 Mode:    35      Frequency (cm-1):      867.9118     Intensity (km/mol):      250.5966
 Index  Atom      ---- Displacements (x/y/z) ----
     1    Pa      -0.004963   0.001450   0.015136
     2     O       0.006715  -0.001852  -0.025889
     3     H      -0.070110   0.020693   0.230593
     4     O       0.011513  -0.003297  -0.029216
     5     H      -0.074465   0.016802   0.182190
     6     O       0.004054  -0.002112  -0.017293
     7     H      -0.018536  -0.032874   0.018156
     8     O       0.009219  -0.001150  -0.021244
     9     H       0.013305   0.044369   0.016779
    10     O       0.182727   0.134297  -0.471586
    11     O       0.123901  -0.271233  -0.495866
    12     S      -0.157584   0.062394   0.491675
    13     O       0.043467  -0.004579  -0.080089
    14     O       0.014523   0.001174  -0.088466
 
 Mode:    36      Frequency (cm-1):      886.1628     Intensity (km/mol):      175.7401
 Index  Atom      ---- Displacements (x/y/z) ----
     1    Pa      -0.000126  -0.001245   0.000761
     2     O       0.026214  -0.010848   0.008250
     3     H      -0.066799   0.005138  -0.008048
     4     O      -0.028336   0.007487  -0.011373
     5     H       0.028291  -0.011961   0.023814
     6     O       0.000465  -0.016127  -0.015624
     7     H      -0.012127  -0.002476  -0.008543
     8     O      -0.009145  -0.012912   0.014409
     9     H      -0.013410   0.000960   0.005158
    10     O       0.236338   0.362069  -0.462154
    11     O      -0.046583   0.425225   0.396479
    12     S      -0.057895  -0.233685   0.028743
    13     O      -0.286057  -0.084645  -0.088476
    14     O       0.228684  -0.184632   0.089256
 
 Mode:    37      Frequency (cm-1):     1170.8834     Intensity (km/mol):      472.3786
 Index  Atom      ---- Displacements (x/y/z) ----
     1    Pa      -0.001992  -0.005357  -0.000088
     2     O      -0.015180   0.010394  -0.005781
     3     H       0.018555  -0.014516   0.005485
     4     O       0.020865  -0.000644   0.006942
     5     H      -0.004631  -0.016834  -0.003256
     6     O       0.000046   0.013012   0.011450
     7     H       0.008769   0.001945   0.009393
     8     O       0.007418   0.010350  -0.011593
     9     H       0.012360   0.000648  -0.003415
    10     O      -0.042558  -0.077155   0.087040
    11     O       0.012004  -0.091676  -0.080030
    12     S       0.068193   0.457291  -0.022828
    13     O      -0.507987  -0.238738  -0.142322
    14     O       0.415650  -0.460422   0.180678
 
 Mode:    38      Frequency (cm-1):     1306.1544     Intensity (km/mol):      300.8714
 Index  Atom      ---- Displacements (x/y/z) ----
     1    Pa      -0.001899   0.000854  -0.000714
     2     O       0.007558  -0.000125   0.002345
     3     H       0.087656   0.011588   0.026887
     4     O       0.004916  -0.004427   0.002109
     5     H       0.038988  -0.038285   0.020861
     6     O       0.001090  -0.000983  -0.000084
     7     H      -0.003385   0.007635   0.001733
     8     O       0.000736  -0.000841   0.000937
     9     H      -0.000971   0.006915  -0.004520
    10     O       0.039524  -0.001619   0.008036
    11     O       0.036551  -0.000756   0.016921
    12     S      -0.510721   0.073825  -0.174009
    13     O       0.562721   0.204989   0.163489
    14     O       0.387505  -0.355381   0.161554
 
 Mode:    39      Frequency (cm-1):     3806.9123     Intensity (km/mol):       93.2374
 Index  Atom      ---- Displacements (x/y/z) ----
     1    Pa      -0.000026   0.000022  -0.000011
     2     O      -0.000912  -0.000763  -0.000290
     3     H       0.246190  -0.952234   0.166270
     4     O      -0.015337   0.059645  -0.010365
     5     H       0.015185   0.012053   0.004919
     6     O       0.000875   0.000083   0.000644
     7     H      -0.013027  -0.003875  -0.012462
     8     O       0.001101  -0.000044  -0.000079
     9     H      -0.018302  -0.001064   0.003705
    10     O       0.000136   0.000396  -0.000023
    11     O       0.000122   0.000402   0.000019
    12     S       0.000199  -0.000444   0.000111
    13     O      -0.000083   0.000156  -0.000045
    14     O      -0.000416   0.000241  -0.000163
 
 Mode:    40      Frequency (cm-1):     3831.9285     Intensity (km/mol):       98.8919
 Index  Atom      ---- Displacements (x/y/z) ----
     1    Pa      -0.000021  -0.000017  -0.000006
     2     O      -0.047904  -0.037041  -0.015280
     3     H      -0.004987   0.018302  -0.003288
     4     O       0.000317  -0.001145   0.000205
     5     H       0.763910   0.593306   0.243710
     6     O      -0.000953  -0.000126  -0.000751
     7     H       0.015219   0.004384   0.014168
     8     O      -0.000990   0.000049   0.000062
     9     H       0.017213   0.000901  -0.003345
    10     O      -0.000053  -0.000328   0.000008
    11     O      -0.000063  -0.000322   0.000014
    12     S       0.000205   0.000226   0.000041
    13     O      -0.000266  -0.000067  -0.000084
    14     O      -0.000056  -0.000096  -0.000006
 
 Mode:    41      Frequency (cm-1):     3861.4023     Intensity (km/mol):       73.9635
 Index  Atom      ---- Displacements (x/y/z) ----
     1    Pa       0.000020  -0.000007   0.000008
     2     O      -0.000974  -0.000582  -0.000283
     3     H      -0.003722   0.014029  -0.003310
     4     O       0.000432  -0.001014   0.000173
     5     H       0.013305   0.010185   0.004122
     6     O       0.043466   0.013346   0.041490
     7     H      -0.697074  -0.207534  -0.658591
     8     O      -0.010999  -0.000689   0.002250
     9     H       0.176997   0.011131  -0.037226
    10     O       0.000007  -0.000013  -0.000028
    11     O      -0.000046  -0.000170   0.000018
    12     S      -0.000004   0.000073   0.000044
    13     O      -0.000027  -0.000033  -0.000022
    14     O       0.000023  -0.000046  -0.000004
 
 Mode:    42      Frequency (cm-1):     3864.5736     Intensity (km/mol):       81.7645
 Index  Atom      ---- Displacements (x/y/z) ----
     1    Pa       0.000030  -0.000010   0.000009
     2     O      -0.001173  -0.000689  -0.000396
     3     H      -0.005905   0.020769  -0.003230
     4     O       0.000584  -0.001472   0.000372
     5     H       0.015626   0.012143   0.005091
     6     O       0.007971   0.002547   0.007791
     7     H      -0.128186  -0.038022  -0.120936
     8     O       0.060080   0.004012  -0.013012
     9     H      -0.958511  -0.059725   0.200901
    10     O      -0.000038  -0.000183  -0.000021
    11     O      -0.000029  -0.000072   0.000039
    12     S       0.000025   0.000102  -0.000035
    13     O      -0.000045  -0.000047  -0.000003
    14     O       0.000032  -0.000062   0.000021

PES point character: Geometry corresponds to a local minimum on the PES.




 ============================
 Statistical Thermal Analysis  ***  ideal gas assumed  ***
 ============================
  
 Pressure:                  1.000000 atm.
 Temperature:             298.150000 K



 Moments of Inertia [amu*bohr^2] and principal axis
 ==================================================

        1260.8976       3372.6209       3616.5084
 ------------------------------------------------
           0.2586         -0.9156         -0.3078
           0.9659          0.2420          0.0918
          -0.0096         -0.3210          0.9470


 The rotational contribution to the molecular entropy includes
 a term, dependent on the symmetry number sigma. The results 
 reported below were computed using sigma = 1, determined from
 the point group symmetry of the input geometry (NOSYM). 
 If this is not the correct symmetry, try symmetrizing the molecule before
 running the calculation (note: linear molecules should be aligned along one
 of the Cartesian axes).
 Contributions from frequencies below 20 1/cm are not included in vibrational sums.
 Their contributions, if any, are reported separately.


     Temp                                                        Transl      Rotat     Vibrat     Total
     ----                                                        ------      -----     ------     -----

     298.15   Entropy (cal/mol-K):                               43.813     31.109     49.638    124.560
              Nuclear Internal Energy (kcal/mol):                 0.889      0.889     48.888     50.666
              Constant Volume Heat Capacity (cal/mol-K):          2.981      2.981     45.266     51.228
          (c) Constant Volume Heat Capacity (cal/mol-K):          2.981      2.981     41.404     47.366

       Summary of energy terms
                                                   hartree              eV         kcal/mol           kJ/mol
                                      --------------------     -----------       ----------      -----------
      Energy from Engine:               -4.081010248165110       -111.0499         -2560.87        -10714.69
      Nuclear Internal Energy:           0.080740678955185          2.1971            50.67           211.98
  (c) Nuclear Internal Energy:           0.078744357033737          2.1427            49.41           206.74
      Internal Energy U:                -4.000269569209925       -108.8529         -2510.21        -10502.71
      pV/n = RT:                         0.000944186013486          0.0257             0.59             2.48
      Enthalpy H:                       -3.999325383196439       -108.8272         -2509.61        -10500.23
      -T*S:                             -0.059182592777666         -1.6104           -37.14          -155.38
  (c) -T*S:                             -0.057406986387775         -1.5621           -36.02          -150.72
      Gibbs free energy:                -4.058507975974105       -110.4376         -2546.75        -10655.61
 
 
 
  (c) The properties marked with this symbol have been corrected using 'low vibrational frequency free rotor
      interpolation corrections'. For those terms all positive frequencies are used (also ones below 20 1/cm),
      but the contribution to the partition function of small vibrational frequencies is modified as described
      in the following paper:
      S. Grimme, 'Supramolecular Binding Thermodynamics by Dispersion-Corrected Density Functional Theory'
      (Chem. Eur. J. 2012, 18, 9955-9964)
      Configuration: Dampener Frequency          :   100.000 1/cm
                     Dampener Alpha              :     4.000
                     Averaging Moment of Inertia : 1.000E-44 kg m2

--------------
Atomic charges
--------------
  Index   Atom    Charge
      1     Pa    2.6023
      2      O   -0.6518
      3      H    0.1188
      4      O   -0.6743
      5      H    0.0995
      6      O   -0.6755
      7      H    0.0951
      8      O   -0.6761
      9      H    0.0955
     10      O   -0.7793
     11      O   -0.7807
     12      S    1.5746
     13      O   -0.6688
     14      O   -0.6792


Dipole moment vector    (Debye):    -5.95972065   -8.31323339   -1.63661526
              magnitude (Debye):    10.35889130


Final PES point is a local minimum. Geometry optimization successful!


AMS application finished. Exiting.
NORMAL TERMINATION
     Total cpu time:   95890.17
  Total system time:    2366.65
 Total elapsed time:  103731.26
