 Entering Gaussian System, Link 0=/home/pcmt/gaussian/g16.C.01/g16/g16
 AtFile(1): /home/shaaban/basis.gaussian/Pa-def-TZVP
 AtFile(1): /home/shaaban/basis.gaussian/Pa-ECP60MWB
 Initial command:
 /home/pcmt/gaussian/g16.C.01/g16/l1.exe "/state/partition2/shaaban/972869.phlam-s-sakura/Gau-183009.inp" -scrdir="/state/partition2/shaaban/972869.phlam-s-sakura/"
 Entering Link 1 = /home/pcmt/gaussian/g16.C.01/g16/l1.exe PID=    183010.
  
 Copyright (c) 1988-2019, Gaussian, Inc.  All Rights Reserved.
  
 This is part of the Gaussian(R) 16 program.  It is based on
 the Gaussian(R) 09 system (copyright 2009, Gaussian, Inc.),
 the Gaussian(R) 03 system (copyright 2003, Gaussian, Inc.),
 the Gaussian(R) 98 system (copyright 1998, Gaussian, Inc.),
 the Gaussian(R) 94 system (copyright 1995, Gaussian, Inc.),
 the Gaussian 92(TM) system (copyright 1992, Gaussian, Inc.),
 the Gaussian 90(TM) system (copyright 1990, Gaussian, Inc.),
 the Gaussian 88(TM) system (copyright 1988, Gaussian, Inc.),
 the Gaussian 86(TM) system (copyright 1986, Carnegie Mellon
 University), and the Gaussian 82(TM) system (copyright 1983,
 Carnegie Mellon University). Gaussian is a federally registered
 trademark of Gaussian, Inc.
  
 This software contains proprietary and confidential information,
 including trade secrets, belonging to Gaussian, Inc.
  
 This software is provided under written license and may be
 used, copied, transmitted, or stored only in accord with that
 written license.
  
 The following legend is applicable only to US Government
 contracts under FAR:
  
                    RESTRICTED RIGHTS LEGEND
  
 Use, reproduction and disclosure by the US Government is
 subject to restrictions as set forth in subparagraphs (a)
 and (c) of the Commercial Computer Software - Restricted
 Rights clause in FAR 52.227-19.
  
 Gaussian, Inc.
 340 Quinnipiac St., Bldg. 40, Wallingford CT 06492
  
  
 ---------------------------------------------------------------
 Warning -- This program may not be used in any manner that
 competes with the business of Gaussian, Inc. or will provide
 assistance to any competitor of Gaussian, Inc.  The licensee
 of this program is prohibited from giving any competitor of
 Gaussian, Inc. access to this program.  By using this program,
 the user acknowledges that Gaussian, Inc. is engaged in the
 business of creating and licensing software in the field of
 computational chemistry and represents and warrants to the
 licensee that it is not a competitor of Gaussian, Inc. and that
 it will not use this program in any manner prohibited above.
 ---------------------------------------------------------------
  

 Cite this work as:
 Gaussian 16, Revision C.01,
 M. J. Frisch, G. W. Trucks, H. B. Schlegel, G. E. Scuseria, 
 M. A. Robb, J. R. Cheeseman, G. Scalmani, V. Barone, 
 G. A. Petersson, H. Nakatsuji, X. Li, M. Caricato, A. V. Marenich, 
 J. Bloino, B. G. Janesko, R. Gomperts, B. Mennucci, H. P. Hratchian, 
 J. V. Ortiz, A. F. Izmaylov, J. L. Sonnenberg, D. Williams-Young, 
 F. Ding, F. Lipparini, F. Egidi, J. Goings, B. Peng, A. Petrone, 
 T. Henderson, D. Ranasinghe, V. G. Zakrzewski, J. Gao, N. Rega, 
 G. Zheng, W. Liang, M. Hada, M. Ehara, K. Toyota, R. Fukuda, 
 J. Hasegawa, M. Ishida, T. Nakajima, Y. Honda, O. Kitao, H. Nakai, 
 T. Vreven, K. Throssell, J. A. Montgomery, Jr., J. E. Peralta, 
 F. Ogliaro, M. J. Bearpark, J. J. Heyd, E. N. Brothers, K. N. Kudin, 
 V. N. Staroverov, T. A. Keith, R. Kobayashi, J. Normand, 
 K. Raghavachari, A. P. Rendell, J. C. Burant, S. S. Iyengar, 
 J. Tomasi, M. Cossi, J. M. Millam, M. Klene, C. Adamo, R. Cammi, 
 J. W. Ochterski, R. L. Martin, K. Morokuma, O. Farkas, 
 J. B. Foresman, and D. J. Fox, Gaussian, Inc., Wallingford CT, 2019.
 
 ******************************************
 Gaussian 16:  ES64L-G16RevC.01  3-Jul-2019
                 4-Jul-2023 
 ******************************************
 %mem=16Gb
 %NProc=8
 Will use up to    8 processors via shared memory.
 %chk=pa_oh4_cl-bp86-cosmors-deftzvp-klamt.chk
 ----------------------------------------------------------------------
 #p BP86/GEN Pseudo=Read GFInput GFPrint IOP(6/7=3) Symm=(Loose) Int=(U
 ltraFine) Guess=(Harris) SCRF=(COSMORS) Scf=(NoVarAcc,MaxCycle=100,con
 ver=8)
 ----------------------------------------------------------------------
 1/38=1,172=1/1;
 2/12=2,17=4,18=3,40=1/2;
 3/5=7,11=2,16=1,17=8,24=110,25=1,30=1,70=12101,74=404,75=-5/1,2,3;
 4/11=8/1;
 5/5=2,6=8,7=100,38=1/2;
 6/7=3,8=2,9=2,10=2,28=1/1;
 99/5=1,9=1/99;
 Leave Link    1 at Tue Jul  4 10:46:32 2023, MaxMem=  2147483648 cpu:               0.6 elap:               0.1
 (Enter /home/pcmt/gaussian/g16.C.01/g16/l101.exe)
 ---------------------------------------------------------------
 pa_oh4_cl-bp86-cosmors-deftzvp-klamt.com SGP in PCM calculation
 ---------------------------------------------------------------
 Symbolic Z-matrix:
 Charge =  0 Multiplicity = 1
 Pa                    0.44897   0.0848    0.30927 
 O                     1.18548   1.76105  -0.70107 
 H                     1.22977   2.16926  -1.57518 
 O                    -1.50852   0.84224   0.19781 
 H                    -2.009     1.51805  -0.27482 
 O                     0.38922  -1.02794  -1.45756 
 H                    -0.0081   -1.81746  -1.84193 
 O                    -0.24446  -1.49108   1.50689 
 H                    -1.09995  -1.88605   1.72039 
 Cl                    2.9872   -0.61199   0.94104 
 
 ITRead=  0  0  0  0  0  0  0  0  0  0
 MicOpt= -1 -1 -1 -1 -1 -1 -1 -1 -1 -1
 NAtoms=     10 NQM=       10 NQMF=       0 NMMI=      0 NMMIF=      0
                NMic=       0 NMicF=      0.
                    Isotopes and Nuclear Properties:
 (Nuclear quadrupole moments (NQMom) in fm**2, nuclear magnetic moments (NMagM)
  in nuclear magnetons)

  Atom         1           2           3           4           5           6           7           8           9          10
 IAtWgt=         231          16           1          16           1          16           1          16           1          35
 AtmWgt= 231.0359000  15.9949146   1.0078250  15.9949146   1.0078250  15.9949146   1.0078250  15.9949146   1.0078250  34.9688527
 NucSpn=           3           0           1           0           1           0           1           0           1           3
 AtZEff=  -0.0000000  -0.0000000  -0.0000000  -0.0000000  -0.0000000  -0.0000000  -0.0000000  -0.0000000  -0.0000000  -0.0000000
 NQMom= -172.0000000   0.0000000   0.0000000   0.0000000   0.0000000   0.0000000   0.0000000   0.0000000   0.0000000  -8.1650000
 NMagM=    2.0100000   0.0000000   2.7928460   0.0000000   2.7928460   0.0000000   2.7928460   0.0000000   2.7928460   0.8218740
 AtZNuc=  91.0000000   8.0000000   1.0000000   8.0000000   1.0000000   8.0000000   1.0000000   8.0000000   1.0000000  17.0000000
 Leave Link  101 at Tue Jul  4 10:46:32 2023, MaxMem=  2147483648 cpu:               0.6 elap:               0.1
 (Enter /home/pcmt/gaussian/g16.C.01/g16/l202.exe)
                          Input orientation:                          
 ---------------------------------------------------------------------
 Center     Atomic      Atomic             Coordinates (Angstroms)
 Number     Number       Type             X           Y           Z
 ---------------------------------------------------------------------
      1         91           0        0.448970    0.084795    0.309273
      2          8           0        1.185481    1.761049   -0.701072
      3          1           0        1.229770    2.169261   -1.575177
      4          8           0       -1.508525    0.842235    0.197808
      5          1           0       -2.009001    1.518049   -0.274817
      6          8           0        0.389223   -1.027943   -1.457562
      7          1           0       -0.008100   -1.817458   -1.841926
      8          8           0       -0.244459   -1.491080    1.506890
      9          1           0       -1.099948   -1.886046    1.720388
     10         17           0        2.987198   -0.611993    0.941043
 ---------------------------------------------------------------------
                    Distance matrix (angstroms):
                    1          2          3          4          5
     1  Pa   0.000000
     2  O    2.091189   0.000000
     3  H    2.916470   0.965742   0.000000
     4  O    2.101886   2.984940   3.521751   0.000000
     5  H    2.904651   3.231943   3.550302   0.964663   0.000000
     6  O    2.088891   2.997462   3.307939   3.136760   3.692213
     7  H    2.907772   3.941053   4.182990   3.672296   4.193452
     8  O    2.097263   4.182842   5.007053   2.959040   3.917007
     9  H    2.876561   4.938416   5.721350   3.150984   4.049084
    10  Cl   2.706889   3.402066   4.141894   4.783168   5.565734
                    6          7          8          9         10
     6  O    0.000000
     7  H    0.963813   0.000000
     8  O    3.066599   3.372974   0.000000
     9  H    3.612941   3.726515   0.966148   0.000000
    10  Cl   3.560308   4.262613   3.396554   4.351476   0.000000
 Stoichiometry    ClH4O4Pa
 Framework group  C1[X(ClH4O4Pa)]
 Deg. of freedom    24
 Full point group                 C1      NOp   1
 Largest Abelian subgroup         C1      NOp   1
 Largest concise Abelian subgroup C1      NOp   1
                         Standard orientation:                         
 ---------------------------------------------------------------------
 Center     Atomic      Atomic             Coordinates (Angstroms)
 Number     Number       Type             X           Y           Z
 ---------------------------------------------------------------------
      1         91           0        0.171225   -0.003397   -0.095973
      2          8           0        0.155401    2.083731   -0.225260
      3          1           0        0.418596    2.881823    0.250593
      4          8           0        2.233436   -0.041308   -0.500665
      5          1           0        2.989015    0.558026   -0.522425
      6          8           0        0.324620    0.067269    1.986080
      7          1           0        0.571714   -0.472037    2.745704
      8          8           0        0.131649   -2.098754   -0.176126
      9          1           0        0.780013   -2.814370   -0.145145
     10         17           0       -2.535395    0.004013   -0.133380
 ---------------------------------------------------------------------
 Rotational constants (GHZ):           2.1427248           1.2547339           1.0513057
 Leave Link  202 at Tue Jul  4 10:46:32 2023, MaxMem=  2147483648 cpu:               0.1 elap:               0.0
 (Enter /home/pcmt/gaussian/g16.C.01/g16/l301.exe)
 General basis read from cards:  (5D, 7F)
 Centers:       1
 S 3 1.00
     Exponent=  1.2047376000D+04 Coefficients=  3.4500000000D-04
     Exponent=  1.8116841000D+03 Coefficients=  2.7420000000D-03
     Exponent=  3.4770104000D+02 Coefficients=  1.0053000000D-02
 S 1 1.00
     Exponent=  9.8678010000D+01 Coefficients=  1.0000000000D+00
 S 3 1.00
     Exponent=  5.7507376000D+01 Coefficients=  5.1528000000D-02
     Exponent=  3.3502601000D+01 Coefficients= -2.3692400000D-01
     Exponent=  1.9554451000D+01 Coefficients=  7.1904800000D-01
 S 1 1.00
     Exponent=  9.7164210000D+00 Coefficients=  1.0000000000D+00
 S 1 1.00
     Exponent=  2.6920960000D+00 Coefficients=  1.0000000000D+00
 S 1 1.00
     Exponent=  1.4538470000D+00 Coefficients=  1.0000000000D+00
 S 1 1.00
     Exponent=  5.7435200000D-01 Coefficients=  1.0000000000D+00
 S 1 1.00
     Exponent=  2.6346800000D-01 Coefficients=  1.0000000000D+00
 S 1 1.00
     Exponent=  5.6557000000D-02 Coefficients=  1.0000000000D+00
 S 1 1.00
     Exponent=  2.3169000000D-02 Coefficients=  1.0000000000D+00
 P 5 1.00
     Exponent=  2.9033676000D+03 Coefficients=  3.5000000000D-05
     Exponent=  6.4486356000D+02 Coefficients=  2.0500000000D-04
     Exponent=  2.2025896000D+02 Coefficients=  1.2510000000D-03
     Exponent=  8.0276401000D+01 Coefficients=  2.4570000000D-03
     Exponent=  2.4080211000D+01 Coefficients=  1.1190000000D-02
 P 1 1.00
     Exponent=  1.4077580000D+01 Coefficients=  1.0000000000D+00
 P 1 1.00
     Exponent=  8.2658460000D+00 Coefficients=  1.0000000000D+00
 P 1 1.00
     Exponent=  3.5948000000D+00 Coefficients=  1.0000000000D+00
 P 1 1.00
     Exponent=  1.7531110000D+00 Coefficients=  1.0000000000D+00
 P 1 1.00
     Exponent=  6.5776700000D-01 Coefficients=  1.0000000000D+00
 P 1 1.00
     Exponent=  2.8463900000D-01 Coefficients=  1.0000000000D+00
 P 1 1.00
     Exponent=  1.0054300000D-01 Coefficients=  1.0000000000D+00
 P 1 1.00
     Exponent=  3.0190000000D-02 Coefficients=  1.0000000000D+00
 D 6 1.00
     Exponent=  4.4814991000D+02 Coefficients=  2.6000000000D-05
     Exponent=  1.5446145000D+02 Coefficients=  2.2800000000D-04
     Exponent=  6.0925377000D+01 Coefficients=  9.0400000000D-04
     Exponent=  1.7032091000D+01 Coefficients=  2.5647000000D-02
     Exponent=  1.0018877000D+01 Coefficients= -1.0575100000D-01
     Exponent=  3.4091930000D+00 Coefficients=  4.4743200000D-01
 D 1 1.00
     Exponent=  1.6702130000D+00 Coefficients=  1.0000000000D+00
 D 1 1.00
     Exponent=  7.4109500000D-01 Coefficients=  1.0000000000D+00
 D 1 1.00
     Exponent=  2.6139300000D-01 Coefficients=  1.0000000000D+00
 D 1 1.00
     Exponent=  8.2811000000D-02 Coefficients=  1.0000000000D+00
 F 5 1.00
     Exponent=  8.7991327000D+01 Coefficients=  2.2600000000D-04
     Exponent=  2.8340195000D+01 Coefficients=  2.3230000000D-03
     Exponent=  1.2440994000D+01 Coefficients=  4.5850000000D-03
     Exponent=  3.9572960000D+00 Coefficients=  1.5696100000D-01
     Exponent=  1.8759440000D+00 Coefficients=  3.4497700000D-01
 F 1 1.00
     Exponent=  8.2758900000D-01 Coefficients=  1.0000000000D+00
 F 1 1.00
     Exponent=  3.3274800000D-01 Coefficients=  1.0000000000D+00
 F 1 1.00
     Exponent=  1.1468500000D-01 Coefficients=  1.0000000000D+00
 G 1 1.00
     Exponent=  3.5000000000D-01 Coefficients=  1.0000000000D+00
 ****
 Centers:       2      4      6      8
 Def2TZVP
 ****
 Centers:       3      5      7      9
 Def2TZVP
 ****
 Centers:      10
 Def2TZVP
 ****
 ======================================================================================================
                                       Pseudopotential Parameters
 ======================================================================================================
  Center     Atomic      Valence      Angular      Power
  Number     Number     Electrons     Momentum     of R      Exponent        Coefficient   SO-Coeffient
 ======================================================================================================
    1         91           31
                                      H and up 
                                                     2        1.0000000        0.00000000    0.00000000
                                      S - H
                                                     2       15.2691737      475.47573283    0.00000000
                                      P - H
                                                     2        9.9577370      207.66485962    0.00000000
                                      D - H
                                                     2        8.9431413      156.67411988    0.00000000
                                      F - H
                                                     2        7.0104666       67.98223685    0.00000000
                                      G - H
                                                     2       12.2010560      -57.63059989    0.00000000
    2          8
                                   No pseudopotential on this center.
    3          1
                                   No pseudopotential on this center.
    4          8
                                   No pseudopotential on this center.
    5          1
                                   No pseudopotential on this center.
    6          8
                                   No pseudopotential on this center.
    7          1
                                   No pseudopotential on this center.
    8          8
                                   No pseudopotential on this center.
    9          1
                                   No pseudopotential on this center.
   10         17
                                   No pseudopotential on this center.
 ======================================================================================================
 Ernie: Thresh=  0.10000D-02 Tol=  0.10000D-05 Strict=F.
 AO basis set in the form of general basis input (Overlap normalization):
      1 0
 S   3 1.00       0.000000000000
      0.1204737600D+05  0.2857094961D-01
      0.1811684100D+04  0.2270769386D+00
      0.3477010400D+03  0.8325326273D+00
 S   3 1.00       0.000000000000
      0.5750737600D+02  0.9569327984D-01
      0.3350260100D+02 -0.4399944619D+00
      0.1955445100D+02  0.1335352847D+01
 S   1 1.00       0.000000000000
      0.9867801000D+02  0.1000000000D+01
 S   1 1.00       0.000000000000
      0.9716421000D+01  0.1000000000D+01
 S   1 1.00       0.000000000000
      0.2692096000D+01  0.1000000000D+01
 S   1 1.00       0.000000000000
      0.1453847000D+01  0.1000000000D+01
 S   1 1.00       0.000000000000
      0.5743520000D+00  0.1000000000D+01
 S   1 1.00       0.000000000000
      0.2634680000D+00  0.1000000000D+01
 S   1 1.00       0.000000000000
      0.5655700000D-01  0.1000000000D+01
 S   1 1.00       0.000000000000
      0.2316900000D-01  0.1000000000D+01
 P   5 1.00       0.000000000000
      0.2903367600D+04  0.2594222647D-02
      0.6448635600D+03  0.1519473264D-01
      0.2202589600D+03  0.9272492945D-01
      0.8027640100D+02  0.1821144298D+00
      0.2408021100D+02  0.8294100404D+00
 P   1 1.00       0.000000000000
      0.1407758000D+02  0.1000000000D+01
 P   1 1.00       0.000000000000
      0.8265846000D+01  0.1000000000D+01
 P   1 1.00       0.000000000000
      0.3594800000D+01  0.1000000000D+01
 P   1 1.00       0.000000000000
      0.1753111000D+01  0.1000000000D+01
 P   1 1.00       0.000000000000
      0.6577670000D+00  0.1000000000D+01
 P   1 1.00       0.000000000000
      0.2846390000D+00  0.1000000000D+01
 P   1 1.00       0.000000000000
      0.1005430000D+00  0.1000000000D+01
 P   1 1.00       0.000000000000
      0.3019000000D-01  0.1000000000D+01
 D   6 1.00       0.000000000000
      0.4481499100D+03  0.6556927566D-04
      0.1544614500D+03  0.5749921096D-03
      0.6092537700D+02  0.2279793277D-02
      0.1703209100D+02  0.6467904664D-01
      0.1001887700D+02 -0.2666929411D+00
      0.3409193000D+01  0.1128376621D+01
 D   1 1.00       0.000000000000
      0.1670213000D+01  0.1000000000D+01
 D   1 1.00       0.000000000000
      0.7410950000D+00  0.1000000000D+01
 D   1 1.00       0.000000000000
      0.2613930000D+00  0.1000000000D+01
 D   1 1.00       0.000000000000
      0.8281100000D-01  0.1000000000D+01
 F   5 1.00       0.000000000000
      0.8799132700D+02  0.4766318191D-03
      0.2834019500D+02  0.4899184583D-02
      0.1244099400D+02  0.9669720755D-02
      0.3957296000D+01  0.3310292343D+00
      0.1875944000D+01  0.7275531640D+00
 F   1 1.00       0.000000000000
      0.8275890000D+00  0.1000000000D+01
 F   1 1.00       0.000000000000
      0.3327480000D+00  0.1000000000D+01
 F   1 1.00       0.000000000000
      0.1146850000D+00  0.1000000000D+01
 G   1 1.00       0.000000000000
      0.3500000000D+00  0.1000000000D+01
 ****
      2 0
 S   6 1.00       0.000000000000
      0.2703238263D+05  0.5722733521D-03
      0.4052387139D+04  0.4435323349D-02
      0.9223272271D+03  0.2302010771D-01
      0.2612407099D+03  0.9282249067D-01
      0.8535464135D+02  0.2937850001D+00
      0.3103503524D+02  0.6740160450D+00
 S   2 1.00       0.000000000000
      0.1226086073D+02  0.6383993703D+00
      0.4998707601D+01  0.3953458713D+00
 S   1 1.00       0.000000000000
      0.1170310816D+01  0.1000000000D+01
 S   1 1.00       0.000000000000
      0.4647474099D+00  0.1000000000D+01
 S   1 1.00       0.000000000000
      0.1850453636D+00  0.1000000000D+01
 P   4 1.00       0.000000000000
      0.6327495480D+02  0.1201833222D-01
      0.1462704938D+02  0.8300542179D-01
      0.4450122346D+01  0.3199174393D+00
      0.1527579965D+01  0.7071554292D+00
 P   1 1.00       0.000000000000
      0.5293511794D+00  0.1000000000D+01
 P   1 1.00       0.000000000000
      0.1747842127D+00  0.1000000000D+01
 D   1 1.00       0.000000000000
      0.2314000000D+01  0.1000000000D+01
 D   1 1.00       0.000000000000
      0.6450000000D+00  0.1000000000D+01
 F   1 1.00       0.000000000000
      0.1428000000D+01  0.1000000000D+01
 ****
      3 0
 S   3 1.00       0.000000000000
      0.3406134100D+02  0.2543930721D-01
      0.5123574600D+01  0.1900859489D+00
      0.1164662600D+01  0.8524411301D+00
 S   1 1.00       0.000000000000
      0.3272304100D+00  0.1000000000D+01
 S   1 1.00       0.000000000000
      0.1030724100D+00  0.1000000000D+01
 P   1 1.00       0.000000000000
      0.8000000000D+00  0.1000000000D+01
 ****
      4 0
 S   6 1.00       0.000000000000
      0.2703238263D+05  0.5722733521D-03
      0.4052387139D+04  0.4435323349D-02
      0.9223272271D+03  0.2302010771D-01
      0.2612407099D+03  0.9282249067D-01
      0.8535464135D+02  0.2937850001D+00
      0.3103503524D+02  0.6740160450D+00
 S   2 1.00       0.000000000000
      0.1226086073D+02  0.6383993703D+00
      0.4998707601D+01  0.3953458713D+00
 S   1 1.00       0.000000000000
      0.1170310816D+01  0.1000000000D+01
 S   1 1.00       0.000000000000
      0.4647474099D+00  0.1000000000D+01
 S   1 1.00       0.000000000000
      0.1850453636D+00  0.1000000000D+01
 P   4 1.00       0.000000000000
      0.6327495480D+02  0.1201833222D-01
      0.1462704938D+02  0.8300542179D-01
      0.4450122346D+01  0.3199174393D+00
      0.1527579965D+01  0.7071554292D+00
 P   1 1.00       0.000000000000
      0.5293511794D+00  0.1000000000D+01
 P   1 1.00       0.000000000000
      0.1747842127D+00  0.1000000000D+01
 D   1 1.00       0.000000000000
      0.2314000000D+01  0.1000000000D+01
 D   1 1.00       0.000000000000
      0.6450000000D+00  0.1000000000D+01
 F   1 1.00       0.000000000000
      0.1428000000D+01  0.1000000000D+01
 ****
      5 0
 S   3 1.00       0.000000000000
      0.3406134100D+02  0.2543930721D-01
      0.5123574600D+01  0.1900859489D+00
      0.1164662600D+01  0.8524411301D+00
 S   1 1.00       0.000000000000
      0.3272304100D+00  0.1000000000D+01
 S   1 1.00       0.000000000000
      0.1030724100D+00  0.1000000000D+01
 P   1 1.00       0.000000000000
      0.8000000000D+00  0.1000000000D+01
 ****
      6 0
 S   6 1.00       0.000000000000
      0.2703238263D+05  0.5722733521D-03
      0.4052387139D+04  0.4435323349D-02
      0.9223272271D+03  0.2302010771D-01
      0.2612407099D+03  0.9282249067D-01
      0.8535464135D+02  0.2937850001D+00
      0.3103503524D+02  0.6740160450D+00
 S   2 1.00       0.000000000000
      0.1226086073D+02  0.6383993703D+00
      0.4998707601D+01  0.3953458713D+00
 S   1 1.00       0.000000000000
      0.1170310816D+01  0.1000000000D+01
 S   1 1.00       0.000000000000
      0.4647474099D+00  0.1000000000D+01
 S   1 1.00       0.000000000000
      0.1850453636D+00  0.1000000000D+01
 P   4 1.00       0.000000000000
      0.6327495480D+02  0.1201833222D-01
      0.1462704938D+02  0.8300542179D-01
      0.4450122346D+01  0.3199174393D+00
      0.1527579965D+01  0.7071554292D+00
 P   1 1.00       0.000000000000
      0.5293511794D+00  0.1000000000D+01
 P   1 1.00       0.000000000000
      0.1747842127D+00  0.1000000000D+01
 D   1 1.00       0.000000000000
      0.2314000000D+01  0.1000000000D+01
 D   1 1.00       0.000000000000
      0.6450000000D+00  0.1000000000D+01
 F   1 1.00       0.000000000000
      0.1428000000D+01  0.1000000000D+01
 ****
      7 0
 S   3 1.00       0.000000000000
      0.3406134100D+02  0.2543930721D-01
      0.5123574600D+01  0.1900859489D+00
      0.1164662600D+01  0.8524411301D+00
 S   1 1.00       0.000000000000
      0.3272304100D+00  0.1000000000D+01
 S   1 1.00       0.000000000000
      0.1030724100D+00  0.1000000000D+01
 P   1 1.00       0.000000000000
      0.8000000000D+00  0.1000000000D+01
 ****
      8 0
 S   6 1.00       0.000000000000
      0.2703238263D+05  0.5722733521D-03
      0.4052387139D+04  0.4435323349D-02
      0.9223272271D+03  0.2302010771D-01
      0.2612407099D+03  0.9282249067D-01
      0.8535464135D+02  0.2937850001D+00
      0.3103503524D+02  0.6740160450D+00
 S   2 1.00       0.000000000000
      0.1226086073D+02  0.6383993703D+00
      0.4998707601D+01  0.3953458713D+00
 S   1 1.00       0.000000000000
      0.1170310816D+01  0.1000000000D+01
 S   1 1.00       0.000000000000
      0.4647474099D+00  0.1000000000D+01
 S   1 1.00       0.000000000000
      0.1850453636D+00  0.1000000000D+01
 P   4 1.00       0.000000000000
      0.6327495480D+02  0.1201833222D-01
      0.1462704938D+02  0.8300542179D-01
      0.4450122346D+01  0.3199174393D+00
      0.1527579965D+01  0.7071554292D+00
 P   1 1.00       0.000000000000
      0.5293511794D+00  0.1000000000D+01
 P   1 1.00       0.000000000000
      0.1747842127D+00  0.1000000000D+01
 D   1 1.00       0.000000000000
      0.2314000000D+01  0.1000000000D+01
 D   1 1.00       0.000000000000
      0.6450000000D+00  0.1000000000D+01
 F   1 1.00       0.000000000000
      0.1428000000D+01  0.1000000000D+01
 ****
      9 0
 S   3 1.00       0.000000000000
      0.3406134100D+02  0.2543930721D-01
      0.5123574600D+01  0.1900859489D+00
      0.1164662600D+01  0.8524411301D+00
 S   1 1.00       0.000000000000
      0.3272304100D+00  0.1000000000D+01
 S   1 1.00       0.000000000000
      0.1030724100D+00  0.1000000000D+01
 P   1 1.00       0.000000000000
      0.8000000000D+00  0.1000000000D+01
 ****
     10 0
 S   7 1.00       0.000000000000
      0.6950799094D+05  0.5145738965D-03
      0.1042615688D+05  0.3978134481D-02
      0.2373233406D+04  0.2045617867D-01
      0.6715642007D+03  0.8014810289D-01
      0.2184199979D+03  0.2345477032D+00
      0.7757224971D+02  0.4454336858D+00
      0.2888881528D+02  0.3546684250D+00
 S   3 1.00       0.000000000000
      0.1271052718D+03  0.1129368805D+00
      0.3933958296D+02  0.4837351421D+00
      0.7674067999D+01 -0.1229229739D+01
 S   2 1.00       0.000000000000
      0.3874562763D+01  0.6729682164D+00
      0.1838583257D+01  0.3495605141D+00
 S   1 1.00       0.000000000000
      0.5022905754D+00  0.1000000000D+01
 S   1 1.00       0.000000000000
      0.1796272342D+00  0.1000000000D+01
 P   5 1.00       0.000000000000
      0.6665042328D+03  0.3350250820D-02
      0.1576424169D+03  0.2676397041D-01
      0.5026252098D+02  0.1236268236D+00
      0.1853607811D+02  0.3584578792D+00
      0.7294053278D+01  0.6167729635D+00
 P   1 1.00       0.000000000000
      0.2943324899D+01  0.1000000000D+01
 P   1 1.00       0.000000000000
      0.1040497082D+01  0.1000000000D+01
 P   1 1.00       0.000000000000
      0.3845641508D+00  0.1000000000D+01
 P   1 1.00       0.000000000000
      0.1306964273D+00  0.1000000000D+01
 D   2 1.00       0.000000000000
      0.4610000000D+01  0.1826583505D+00
      0.1011000000D+01  0.9132917523D+00
 D   1 1.00       0.000000000000
      0.3390000000D+00  0.1000000000D+01
 F   1 1.00       0.000000000000
      0.7060000000D+00  0.1000000000D+01
 ****

 AO basis set (Overlap normalization):
 Atom Pa1      Shell     1 S   3     bf    1 -     1          0.323569258128         -0.006420188097         -0.181361785419
      0.1204737600D+05  0.2857094961D-01
      0.1811684100D+04  0.2270769386D+00
      0.3477010400D+03  0.8325326273D+00
 Atom Pa1      Shell     2 S   3     bf    2 -     2          0.323569258128         -0.006420188097         -0.181361785419
      0.5750737600D+02  0.9569327984D-01
      0.3350260100D+02 -0.4399944619D+00
      0.1955445100D+02  0.1335352847D+01
 Atom Pa1      Shell     3 S   1     bf    3 -     3          0.323569258128         -0.006420188097         -0.181361785419
      0.9867801000D+02  0.1000000000D+01
 Atom Pa1      Shell     4 S   1     bf    4 -     4          0.323569258128         -0.006420188097         -0.181361785419
      0.9716421000D+01  0.1000000000D+01
 Atom Pa1      Shell     5 S   1     bf    5 -     5          0.323569258128         -0.006420188097         -0.181361785419
      0.2692096000D+01  0.1000000000D+01
 Atom Pa1      Shell     6 S   1     bf    6 -     6          0.323569258128         -0.006420188097         -0.181361785419
      0.1453847000D+01  0.1000000000D+01
 Atom Pa1      Shell     7 S   1     bf    7 -     7          0.323569258128         -0.006420188097         -0.181361785419
      0.5743520000D+00  0.1000000000D+01
 Atom Pa1      Shell     8 S   1     bf    8 -     8          0.323569258128         -0.006420188097         -0.181361785419
      0.2634680000D+00  0.1000000000D+01
 Atom Pa1      Shell     9 S   1     bf    9 -     9          0.323569258128         -0.006420188097         -0.181361785419
      0.5655700000D-01  0.1000000000D+01
 Atom Pa1      Shell    10 S   1     bf   10 -    10          0.323569258128         -0.006420188097         -0.181361785419
      0.2316900000D-01  0.1000000000D+01
 Atom Pa1      Shell    11 P   5     bf   11 -    13          0.323569258128         -0.006420188097         -0.181361785419
      0.2903367600D+04  0.2594222647D-02
      0.6448635600D+03  0.1519473264D-01
      0.2202589600D+03  0.9272492945D-01
      0.8027640100D+02  0.1821144298D+00
      0.2408021100D+02  0.8294100404D+00
 Atom Pa1      Shell    12 P   1     bf   14 -    16          0.323569258128         -0.006420188097         -0.181361785419
      0.1407758000D+02  0.1000000000D+01
 Atom Pa1      Shell    13 P   1     bf   17 -    19          0.323569258128         -0.006420188097         -0.181361785419
      0.8265846000D+01  0.1000000000D+01
 Atom Pa1      Shell    14 P   1     bf   20 -    22          0.323569258128         -0.006420188097         -0.181361785419
      0.3594800000D+01  0.1000000000D+01
 Atom Pa1      Shell    15 P   1     bf   23 -    25          0.323569258128         -0.006420188097         -0.181361785419
      0.1753111000D+01  0.1000000000D+01
 Atom Pa1      Shell    16 P   1     bf   26 -    28          0.323569258128         -0.006420188097         -0.181361785419
      0.6577670000D+00  0.1000000000D+01
 Atom Pa1      Shell    17 P   1     bf   29 -    31          0.323569258128         -0.006420188097         -0.181361785419
      0.2846390000D+00  0.1000000000D+01
 Atom Pa1      Shell    18 P   1     bf   32 -    34          0.323569258128         -0.006420188097         -0.181361785419
      0.1005430000D+00  0.1000000000D+01
 Atom Pa1      Shell    19 P   1     bf   35 -    37          0.323569258128         -0.006420188097         -0.181361785419
      0.3019000000D-01  0.1000000000D+01
 Atom Pa1      Shell    20 D   6     bf   38 -    42          0.323569258128         -0.006420188097         -0.181361785419
      0.4481499100D+03  0.6556927566D-04
      0.1544614500D+03  0.5749921096D-03
      0.6092537700D+02  0.2279793277D-02
      0.1703209100D+02  0.6467904664D-01
      0.1001887700D+02 -0.2666929411D+00
      0.3409193000D+01  0.1128376621D+01
 Atom Pa1      Shell    21 D   1     bf   43 -    47          0.323569258128         -0.006420188097         -0.181361785419
      0.1670213000D+01  0.1000000000D+01
 Atom Pa1      Shell    22 D   1     bf   48 -    52          0.323569258128         -0.006420188097         -0.181361785419
      0.7410950000D+00  0.1000000000D+01
 Atom Pa1      Shell    23 D   1     bf   53 -    57          0.323569258128         -0.006420188097         -0.181361785419
      0.2613930000D+00  0.1000000000D+01
 Atom Pa1      Shell    24 D   1     bf   58 -    62          0.323569258128         -0.006420188097         -0.181361785419
      0.8281100000D-01  0.1000000000D+01
 Atom Pa1      Shell    25 F   5     bf   63 -    69          0.323569258128         -0.006420188097         -0.181361785419
      0.8799132700D+02  0.4766318191D-03
      0.2834019500D+02  0.4899184583D-02
      0.1244099400D+02  0.9669720755D-02
      0.3957296000D+01  0.3310292343D+00
      0.1875944000D+01  0.7275531640D+00
 Atom Pa1      Shell    26 F   1     bf   70 -    76          0.323569258128         -0.006420188097         -0.181361785419
      0.8275890000D+00  0.1000000000D+01
 Atom Pa1      Shell    27 F   1     bf   77 -    83          0.323569258128         -0.006420188097         -0.181361785419
      0.3327480000D+00  0.1000000000D+01
 Atom Pa1      Shell    28 F   1     bf   84 -    90          0.323569258128         -0.006420188097         -0.181361785419
      0.1146850000D+00  0.1000000000D+01
 Atom Pa1      Shell    29 G   1     bf   91 -    99          0.323569258128         -0.006420188097         -0.181361785419
      0.3500000000D+00  0.1000000000D+01
 Atom O2       Shell    30 S   6     bf  100 -   100          0.293665589336          3.937681491008         -0.425679764614
      0.2703238263D+05  0.5722733521D-03
      0.4052387139D+04  0.4435323349D-02
      0.9223272271D+03  0.2302010771D-01
      0.2612407099D+03  0.9282249067D-01
      0.8535464135D+02  0.2937850001D+00
      0.3103503524D+02  0.6740160450D+00
 Atom O2       Shell    31 S   2     bf  101 -   101          0.293665589336          3.937681491008         -0.425679764614
      0.1226086073D+02  0.6383993703D+00
      0.4998707601D+01  0.3953458713D+00
 Atom O2       Shell    32 S   1     bf  102 -   102          0.293665589336          3.937681491008         -0.425679764614
      0.1170310816D+01  0.1000000000D+01
 Atom O2       Shell    33 S   1     bf  103 -   103          0.293665589336          3.937681491008         -0.425679764614
      0.4647474099D+00  0.1000000000D+01
 Atom O2       Shell    34 S   1     bf  104 -   104          0.293665589336          3.937681491008         -0.425679764614
      0.1850453636D+00  0.1000000000D+01
 Atom O2       Shell    35 P   4     bf  105 -   107          0.293665589336          3.937681491008         -0.425679764614
      0.6327495480D+02  0.1201833222D-01
      0.1462704938D+02  0.8300542179D-01
      0.4450122346D+01  0.3199174393D+00
      0.1527579965D+01  0.7071554292D+00
 Atom O2       Shell    36 P   1     bf  108 -   110          0.293665589336          3.937681491008         -0.425679764614
      0.5293511794D+00  0.1000000000D+01
 Atom O2       Shell    37 P   1     bf  111 -   113          0.293665589336          3.937681491008         -0.425679764614
      0.1747842127D+00  0.1000000000D+01
 Atom O2       Shell    38 D   1     bf  114 -   118          0.293665589336          3.937681491008         -0.425679764614
      0.2314000000D+01  0.1000000000D+01
 Atom O2       Shell    39 D   1     bf  119 -   123          0.293665589336          3.937681491008         -0.425679764614
      0.6450000000D+00  0.1000000000D+01
 Atom O2       Shell    40 F   1     bf  124 -   130          0.293665589336          3.937681491008         -0.425679764614
      0.1428000000D+01  0.1000000000D+01
 Atom H3       Shell    41 S   3     bf  131 -   131          0.791031932777          5.445857004355          0.473551841859
      0.3406134100D+02  0.2543930721D-01
      0.5123574600D+01  0.1900859489D+00
      0.1164662600D+01  0.8524411301D+00
 Atom H3       Shell    42 S   1     bf  132 -   132          0.791031932777          5.445857004355          0.473551841859
      0.3272304100D+00  0.1000000000D+01
 Atom H3       Shell    43 S   1     bf  133 -   133          0.791031932777          5.445857004355          0.473551841859
      0.1030724100D+00  0.1000000000D+01
 Atom H3       Shell    44 P   1     bf  134 -   136          0.791031932777          5.445857004355          0.473551841859
      0.8000000000D+00  0.1000000000D+01
 Atom O4       Shell    45 S   6     bf  137 -   137          4.220582334755         -0.078060870636         -0.946120326124
      0.2703238263D+05  0.5722733521D-03
      0.4052387139D+04  0.4435323349D-02
      0.9223272271D+03  0.2302010771D-01
      0.2612407099D+03  0.9282249067D-01
      0.8535464135D+02  0.2937850001D+00
      0.3103503524D+02  0.6740160450D+00
 Atom O4       Shell    46 S   2     bf  138 -   138          4.220582334755         -0.078060870636         -0.946120326124
      0.1226086073D+02  0.6383993703D+00
      0.4998707601D+01  0.3953458713D+00
 Atom O4       Shell    47 S   1     bf  139 -   139          4.220582334755         -0.078060870636         -0.946120326124
      0.1170310816D+01  0.1000000000D+01
 Atom O4       Shell    48 S   1     bf  140 -   140          4.220582334755         -0.078060870636         -0.946120326124
      0.4647474099D+00  0.1000000000D+01
 Atom O4       Shell    49 S   1     bf  141 -   141          4.220582334755         -0.078060870636         -0.946120326124
      0.1850453636D+00  0.1000000000D+01
 Atom O4       Shell    50 P   4     bf  142 -   144          4.220582334755         -0.078060870636         -0.946120326124
      0.6327495480D+02  0.1201833222D-01
      0.1462704938D+02  0.8300542179D-01
      0.4450122346D+01  0.3199174393D+00
      0.1527579965D+01  0.7071554292D+00
 Atom O4       Shell    51 P   1     bf  145 -   147          4.220582334755         -0.078060870636         -0.946120326124
      0.5293511794D+00  0.1000000000D+01
 Atom O4       Shell    52 P   1     bf  148 -   150          4.220582334755         -0.078060870636         -0.946120326124
      0.1747842127D+00  0.1000000000D+01
 Atom O4       Shell    53 D   1     bf  151 -   155          4.220582334755         -0.078060870636         -0.946120326124
      0.2314000000D+01  0.1000000000D+01
 Atom O4       Shell    54 D   1     bf  156 -   160          4.220582334755         -0.078060870636         -0.946120326124
      0.6450000000D+00  0.1000000000D+01
 Atom O4       Shell    55 F   1     bf  161 -   167          4.220582334755         -0.078060870636         -0.946120326124
      0.1428000000D+01  0.1000000000D+01
 Atom H5       Shell    56 S   3     bf  168 -   168          5.648420669781          1.054515923916         -0.987239372757
      0.3406134100D+02  0.2543930721D-01
      0.5123574600D+01  0.1900859489D+00
      0.1164662600D+01  0.8524411301D+00
 Atom H5       Shell    57 S   1     bf  169 -   169          5.648420669781          1.054515923916         -0.987239372757
      0.3272304100D+00  0.1000000000D+01
 Atom H5       Shell    58 S   1     bf  170 -   170          5.648420669781          1.054515923916         -0.987239372757
      0.1030724100D+00  0.1000000000D+01
 Atom H5       Shell    59 P   1     bf  171 -   173          5.648420669781          1.054515923916         -0.987239372757
      0.8000000000D+00  0.1000000000D+01
 Atom O6       Shell    60 S   6     bf  174 -   174          0.613443733485          0.127119730195          3.753146321564
      0.2703238263D+05  0.5722733521D-03
      0.4052387139D+04  0.4435323349D-02
      0.9223272271D+03  0.2302010771D-01
      0.2612407099D+03  0.9282249067D-01
      0.8535464135D+02  0.2937850001D+00
      0.3103503524D+02  0.6740160450D+00
 Atom O6       Shell    61 S   2     bf  175 -   175          0.613443733485          0.127119730195          3.753146321564
      0.1226086073D+02  0.6383993703D+00
      0.4998707601D+01  0.3953458713D+00
 Atom O6       Shell    62 S   1     bf  176 -   176          0.613443733485          0.127119730195          3.753146321564
      0.1170310816D+01  0.1000000000D+01
 Atom O6       Shell    63 S   1     bf  177 -   177          0.613443733485          0.127119730195          3.753146321564
      0.4647474099D+00  0.1000000000D+01
 Atom O6       Shell    64 S   1     bf  178 -   178          0.613443733485          0.127119730195          3.753146321564
      0.1850453636D+00  0.1000000000D+01
 Atom O6       Shell    65 P   4     bf  179 -   181          0.613443733485          0.127119730195          3.753146321564
      0.6327495480D+02  0.1201833222D-01
      0.1462704938D+02  0.8300542179D-01
      0.4450122346D+01  0.3199174393D+00
      0.1527579965D+01  0.7071554292D+00
 Atom O6       Shell    66 P   1     bf  182 -   184          0.613443733485          0.127119730195          3.753146321564
      0.5293511794D+00  0.1000000000D+01
 Atom O6       Shell    67 P   1     bf  185 -   187          0.613443733485          0.127119730195          3.753146321564
      0.1747842127D+00  0.1000000000D+01
 Atom O6       Shell    68 D   1     bf  188 -   192          0.613443733485          0.127119730195          3.753146321564
      0.2314000000D+01  0.1000000000D+01
 Atom O6       Shell    69 D   1     bf  193 -   197          0.613443733485          0.127119730195          3.753146321564
      0.6450000000D+00  0.1000000000D+01
 Atom O6       Shell    70 F   1     bf  198 -   204          0.613443733485          0.127119730195          3.753146321564
      0.1428000000D+01  0.1000000000D+01
 Atom H7       Shell    71 S   3     bf  205 -   205          1.080383400269         -0.892021354908          5.188628372370
      0.3406134100D+02  0.2543930721D-01
      0.5123574600D+01  0.1900859489D+00
      0.1164662600D+01  0.8524411301D+00
 Atom H7       Shell    72 S   1     bf  206 -   206          1.080383400269         -0.892021354908          5.188628372370
      0.3272304100D+00  0.1000000000D+01
 Atom H7       Shell    73 S   1     bf  207 -   207          1.080383400269         -0.892021354908          5.188628372370
      0.1030724100D+00  0.1000000000D+01
 Atom H7       Shell    74 P   1     bf  208 -   210          1.080383400269         -0.892021354908          5.188628372370
      0.8000000000D+00  0.1000000000D+01
 Atom O8       Shell    75 S   6     bf  211 -   211          0.248780244646         -3.966070827202         -0.332829936716
      0.2703238263D+05  0.5722733521D-03
      0.4052387139D+04  0.4435323349D-02
      0.9223272271D+03  0.2302010771D-01
      0.2612407099D+03  0.9282249067D-01
      0.8535464135D+02  0.2937850001D+00
      0.3103503524D+02  0.6740160450D+00
 Atom O8       Shell    76 S   2     bf  212 -   212          0.248780244646         -3.966070827202         -0.332829936716
      0.1226086073D+02  0.6383993703D+00
      0.4998707601D+01  0.3953458713D+00
 Atom O8       Shell    77 S   1     bf  213 -   213          0.248780244646         -3.966070827202         -0.332829936716
      0.1170310816D+01  0.1000000000D+01
 Atom O8       Shell    78 S   1     bf  214 -   214          0.248780244646         -3.966070827202         -0.332829936716
      0.4647474099D+00  0.1000000000D+01
 Atom O8       Shell    79 S   1     bf  215 -   215          0.248780244646         -3.966070827202         -0.332829936716
      0.1850453636D+00  0.1000000000D+01
 Atom O8       Shell    80 P   4     bf  216 -   218          0.248780244646         -3.966070827202         -0.332829936716
      0.6327495480D+02  0.1201833222D-01
      0.1462704938D+02  0.8300542179D-01
      0.4450122346D+01  0.3199174393D+00
      0.1527579965D+01  0.7071554292D+00
 Atom O8       Shell    81 P   1     bf  219 -   221          0.248780244646         -3.966070827202         -0.332829936716
      0.5293511794D+00  0.1000000000D+01
 Atom O8       Shell    82 P   1     bf  222 -   224          0.248780244646         -3.966070827202         -0.332829936716
      0.1747842127D+00  0.1000000000D+01
 Atom O8       Shell    83 D   1     bf  225 -   229          0.248780244646         -3.966070827202         -0.332829936716
      0.2314000000D+01  0.1000000000D+01
 Atom O8       Shell    84 D   1     bf  230 -   234          0.248780244646         -3.966070827202         -0.332829936716
      0.6450000000D+00  0.1000000000D+01
 Atom O8       Shell    85 F   1     bf  235 -   241          0.248780244646         -3.966070827202         -0.332829936716
      0.1428000000D+01  0.1000000000D+01
 Atom H9       Shell    86 S   3     bf  242 -   242          1.474011055694         -5.318387681271         -0.274284090470
      0.3406134100D+02  0.2543930721D-01
      0.5123574600D+01  0.1900859489D+00
      0.1164662600D+01  0.8524411301D+00
 Atom H9       Shell    87 S   1     bf  243 -   243          1.474011055694         -5.318387681271         -0.274284090470
      0.3272304100D+00  0.1000000000D+01
 Atom H9       Shell    88 S   1     bf  244 -   244          1.474011055694         -5.318387681271         -0.274284090470
      0.1030724100D+00  0.1000000000D+01
 Atom H9       Shell    89 P   1     bf  245 -   247          1.474011055694         -5.318387681271         -0.274284090470
      0.8000000000D+00  0.1000000000D+01
 Atom Cl10     Shell    90 S   7     bf  248 -   248         -4.791201456820          0.007583355165         -0.252050860630
      0.6950799094D+05  0.5145738965D-03
      0.1042615688D+05  0.3978134481D-02
      0.2373233406D+04  0.2045617867D-01
      0.6715642007D+03  0.8014810289D-01
      0.2184199979D+03  0.2345477032D+00
      0.7757224971D+02  0.4454336858D+00
      0.2888881528D+02  0.3546684250D+00
 Atom Cl10     Shell    91 S   3     bf  249 -   249         -4.791201456820          0.007583355165         -0.252050860630
      0.1271052718D+03  0.1129368805D+00
      0.3933958296D+02  0.4837351421D+00
      0.7674067999D+01 -0.1229229739D+01
 Atom Cl10     Shell    92 S   2     bf  250 -   250         -4.791201456820          0.007583355165         -0.252050860630
      0.3874562763D+01  0.6729682164D+00
      0.1838583257D+01  0.3495605141D+00
 Atom Cl10     Shell    93 S   1     bf  251 -   251         -4.791201456820          0.007583355165         -0.252050860630
      0.5022905754D+00  0.1000000000D+01
 Atom Cl10     Shell    94 S   1     bf  252 -   252         -4.791201456820          0.007583355165         -0.252050860630
      0.1796272342D+00  0.1000000000D+01
 Atom Cl10     Shell    95 P   5     bf  253 -   255         -4.791201456820          0.007583355165         -0.252050860630
      0.6665042328D+03  0.3350250820D-02
      0.1576424169D+03  0.2676397041D-01
      0.5026252098D+02  0.1236268236D+00
      0.1853607811D+02  0.3584578792D+00
      0.7294053278D+01  0.6167729635D+00
 Atom Cl10     Shell    96 P   1     bf  256 -   258         -4.791201456820          0.007583355165         -0.252050860630
      0.2943324899D+01  0.1000000000D+01
 Atom Cl10     Shell    97 P   1     bf  259 -   261         -4.791201456820          0.007583355165         -0.252050860630
      0.1040497082D+01  0.1000000000D+01
 Atom Cl10     Shell    98 P   1     bf  262 -   264         -4.791201456820          0.007583355165         -0.252050860630
      0.3845641508D+00  0.1000000000D+01
 Atom Cl10     Shell    99 P   1     bf  265 -   267         -4.791201456820          0.007583355165         -0.252050860630
      0.1306964273D+00  0.1000000000D+01
 Atom Cl10     Shell   100 D   2     bf  268 -   272         -4.791201456820          0.007583355165         -0.252050860630
      0.4610000000D+01  0.1826583505D+00
      0.1011000000D+01  0.9132917523D+00
 Atom Cl10     Shell   101 D   1     bf  273 -   277         -4.791201456820          0.007583355165         -0.252050860630
      0.3390000000D+00  0.1000000000D+01
 Atom Cl10     Shell   102 F   1     bf  278 -   284         -4.791201456820          0.007583355165         -0.252050860630
      0.7060000000D+00  0.1000000000D+01
 Effective core potential in the form of general ECP input:
      1 0
 Pa1-ECP   5 60
 H component
  1
  2        1.0000000        0.00000000    0.00000000
 S-H projection
  1
  2       15.2691737      475.47573283    0.00000000
 P-H projection
  1
  2        9.9577370      207.66485962    0.00000000
 D-H projection
  1
  2        8.9431413      156.67411988    0.00000000
 F-H projection
  1
  2        7.0104666       67.98223685    0.00000000
 G-H projection
  1
  2       12.2010560      -57.63059989    0.00000000
 
 There are   332 symmetry adapted cartesian basis functions of A   symmetry.
 There are   284 symmetry adapted basis functions of A   symmetry.
   284 basis functions,   513 primitive gaussians,   332 cartesian basis functions
    42 alpha electrons       42 beta electrons
       nuclear repulsion energy       557.8649202803 Hartrees.
 IExCor=  404 DFT=T Ex=B Corr=P86 ExCW=0 ScaHFX=  0.000000
 ScaDFX=  1.000000  1.000000  1.000000  1.000000 ScalE2=  1.000000  1.000000
 IRadAn=      5 IRanWt=     -1 IRanGd=            0 ICorTp=0 IEmpDi=  4
 NAtoms=   10 NActive=   10 NUniq=   10 SFac= 1.00D+00 NAtFMM=   60 NAOKFM=F Big=F
 Integral buffers will be    131072 words long.
 Raffenetti 2 integral format.
 Two-electron integral symmetry is turned on.
 Warning! Using old PCM defaults because the COSMOthermo output has been requested.
 These settings can be overridden by following keywords.
 ------------------------------------------------------------------------------
 Polarizable Continuum Model (PCM)
 =================================
 Model                : C-PCM.
 Atomic radii         : Klamt.
 XCosmo               : -1.000 (infinite dielectric limit)
 Polarization charges : Electronic and nuclear charges.
 Charge compensation  : Type 3 (Electronic density weighted correction).
 Solution method      : On-the-fly selection.
 Cavity type          : VdW (van der Waals Surface) (Alpha=1.000).
 Cavity algorithm     : GePol (No added spheres)
                        Default sphere list used, NSphG=   10.
                        Tesserae with average area of 0.200 Ang**2.
                        Smoothing algorithm: None.
                        Polarization charges: point-like.
                        Self-potential: constant (ISelfS= 1).
                        Self-field    : global E.n sum rule (ISelfD= 3).
 Solvent              : Water, Eps=  78.355300 Eps(inf)=   1.777849
 ------------------------------------------------------------------------------
 Spheres list:
 ISph  on   Nord     Re0    Alpha      Xe            Ye            Ze
    1  Pa      1    2.0000  1.170      0.171225     -0.003397     -0.095973
    2   O      2    1.7200  1.000      0.155401      2.083731     -0.225260
    3   H      3    1.3000  1.000      0.418596      2.881823      0.250593
    4   O      4    1.7200  1.000      2.233436     -0.041308     -0.500665
    5   H      5    1.3000  1.000      2.989015      0.558026     -0.522425
    6   O      6    1.7200  1.000      0.324620      0.067269      1.986080
    7   H      7    1.3000  1.000      0.571714     -0.472037      2.745704
    8   O      8    1.7200  1.000      0.131649     -2.098754     -0.176126
    9   H      9    1.3000  1.000      0.780013     -2.814370     -0.145145
   10  Cl     10    2.0500  1.000     -2.535395      0.004013     -0.133380
 ------------------------------------------------------------------------------
 GePol: Number of generator spheres                  =      10
 GePol: Total number of spheres                      =      10
 GePol: Number of exposed spheres                    =      10 (100.00%)
 GePol: Number of tesserae                           =    1039
 GePol: Average area of tesserae                     =       0.16 Ang**2
 GePol: Minimum area of tessera                      =   0.10D-02 Ang**2
 GePol: Maximum area of tessera                      =    0.35817 Ang**2
 GePol: Number of small tesserae                     =       9
 GePol: Fraction of small tesserae (<1% of avg)      =       0.87%
 GePol: Total count of vertices                      =    3430
 GePol: Maximum number of vertices in a tessera      =       5
 GePol: Cavity surface area                          =    162.883 Ang**2
 GePol: Cavity volume                                =    135.804 Ang**3
 DisRep: Neglecting contributions from atom    1 of solute.
 Leave Link  301 at Tue Jul  4 10:46:32 2023, MaxMem=  2147483648 cpu:               0.8 elap:               0.1
 (Enter /home/pcmt/gaussian/g16.C.01/g16/l302.exe)
 NPDir=0 NMtPBC=     1 NCelOv=     1 NCel=       1 NClECP=     1 NCelD=      1
         NCelK=      1 NCelE2=     1 NClLst=     1 CellRange=     0.0.
 One-electron integrals computed using PRISM.
 One-electron integral symmetry used in STVInt
   1 Symmetry operations used in ECPInt.
 ECPInt:  NShTT=    5253 NPrTT=   15930 LenC2=    5030 LenP2D=   11656.
 LDataN:  DoStor=T MaxTD1= 9 Len=  602
 NBasis=   284 RedAO= T EigKep=  5.98D-04  NBF=   284
 NBsUse=   284 1.00D-06 EigRej= -1.00D+00 NBFU=   284
 Precomputing XC quadrature grid using
 IXCGrd= 4 IRadAn=           5 IRanWt=          -1 IRanGd=           0 AccXCQ= 0.00D+00.
 Defaulting to unpruned grid for atomic number  91.
 Generated NRdTot=       0 NPtTot=           0 NUsed=           0 NTot=          32
 NSgBfM=   327   327   327   327   327 MxSgAt=    10 MxSgA2=    10.
 Leave Link  302 at Tue Jul  4 10:46:33 2023, MaxMem=  2147483648 cpu:               4.8 elap:               0.6
 (Enter /home/pcmt/gaussian/g16.C.01/g16/l303.exe)
 DipDrv:  MaxL=1.
 Leave Link  303 at Tue Jul  4 10:46:33 2023, MaxMem=  2147483648 cpu:               0.3 elap:               0.1
 (Enter /home/pcmt/gaussian/g16.C.01/g16/l401.exe)
 ExpMin= 2.32D-02 ExpMax= 6.95D+04 ExpMxC= 1.20D+04 IAcc=3 IRadAn=         5 AccDes= 0.00D+00
 Harris functional with IExCor=  404 and IRadAn=       5 diagonalized for initial guess.
 HarFok:  IExCor=  404 AccDes= 0.00D+00 IRadAn=         5 IDoV= 1 UseB2=F ITyADJ=14
 ICtDFT=  3500011 ScaDFX=  1.000000  1.000000  1.000000  1.000000
 Defaulting to unpruned grid for atomic number  91.
 FoFCou: FMM=F IPFlag=           0 FMFlag=      100000 FMFlg1=           0
         NFxFlg=           0 DoJE=T BraDBF=F KetDBF=T FulRan=T
         wScrn=  0.000000 ICntrl=       500 IOpCl=  0 I1Cent=   200000004 NGrid=           0
         NMat0=    1 NMatS0=      1 NMatT0=    0 NMatD0=    1 NMtDS0=    0 NMtDT0=    0
 Petite list used in FoFCou.
 Harris En= -1207.00559359820    
 JPrj=0 DoOrth=F DoCkMO=F.
 Leave Link  401 at Tue Jul  4 10:46:34 2023, MaxMem=  2147483648 cpu:              11.5 elap:               1.5
 (Enter /home/pcmt/gaussian/g16.C.01/g16/l502.exe)
 Keep J ints in memory in canonical form, NReq=837395235.
 FoFCou: FMM=F IPFlag=           0 FMFlag=           0 FMFlg1=           0
         NFxFlg=           0 DoJE=F BraDBF=F KetDBF=F FulRan=T
         wScrn=  0.000000 ICntrl=       600 IOpCl=  0 I1Cent=           0 NGrid=           0
         NMat0=    1 NMatS0=  40470 NMatT0=    0 NMatD0=    1 NMtDS0=    0 NMtDT0=    0
 Symmetry not used in FoFCou.
 Two-electron integral symmetry not used.
 Closed shell SCF:
 Using DIIS extrapolation, IDIIS=  1040.
 NGot=  2147483648 LenX=  1328326755 LenY=  1328216090
 Requested convergence on RMS density matrix=1.00D-08 within 100 cycles.
 Requested convergence on MAX density matrix=1.00D-06.
 Requested convergence on             energy=1.00D-06.
 No special actions if energy rises.

 Cycle   1  Pass 1  IDiag  1:
 Defaulting to unpruned grid for atomic number  91.
 Defaulting to unpruned grid for atomic number  91.
 Defaulting to unpruned grid for atomic number  91.
 Defaulting to unpruned grid for atomic number  91.
 Defaulting to unpruned grid for atomic number  91.
 Defaulting to unpruned grid for atomic number  91.
 Defaulting to unpruned grid for atomic number  91.
 Defaulting to unpruned grid for atomic number  91.
 Inv3:  Mode=1 IEnd=     3238563.
 Iteration    1 A*A^-1 deviation from unit magnitude is 3.33D-15 for    616.
 Iteration    1 A*A^-1 deviation from orthogonality  is 2.78D-15 for   1024    616.
 Iteration    1 A^-1*A deviation from unit magnitude is 3.22D-15 for   1020.
 Iteration    1 A^-1*A deviation from orthogonality  is 4.89D-15 for   1024    616.
 E= -1204.69713078865    
 DIIS: error= 4.36D-02 at cycle   1 NSaved=   1.
 NSaved= 1 IEnMin= 1 EnMin= -1204.69713078865     IErMin= 1 ErrMin= 4.36D-02
 ErrMax= 4.36D-02  0.00D+00 EMaxC= 1.00D-01 BMatC= 1.41D+00 BMatP= 1.41D+00
 IDIUse=3 WtCom= 5.64D-01 WtEn= 4.36D-01
 Coeff-Com:  0.100D+01
 Coeff-En:   0.100D+01
 Coeff:      0.100D+01
 Gap=     0.200 Goal=   None    Shift=    0.000
 GapD=    0.200 DampG=1.000 DampE=0.250 DampFc=0.2500 IDamp=-1.
 Damping current iteration by 2.50D-01
 RMSDP=1.39D-02 MaxDP=1.35D+00              OVMax= 9.94D-01

 Cycle   2  Pass 1  IDiag  1:
 E= -1202.59261914338     Delta-E=        2.104511645270 Rises=F Damp=T
 DIIS: error= 4.11D-02 at cycle   2 NSaved=   2.
 NSaved= 2 IEnMin= 1 EnMin= -1204.69713078865     IErMin= 2 ErrMin= 4.11D-02
 ErrMax= 4.11D-02  0.00D+00 EMaxC= 1.00D-01 BMatC= 1.32D+00 BMatP= 1.41D+00
 IDIUse=3 WtCom= 5.89D-01 WtEn= 4.11D-01
 Coeff-Com:  0.490D+00 0.510D+00
 Coeff-En:   0.739D+00 0.261D+00
 Coeff:      0.592D+00 0.408D+00
 Gap=     0.029 Goal=   None    Shift=    0.000
 RMSDP=3.60D-03 MaxDP=1.18D-01 DE= 2.10D+00 OVMax= 9.66D-01

 Cycle   3  Pass 1  IDiag  1:
 E= -1205.20058783338     Delta-E=       -2.607968689996 Rises=F Damp=F
 DIIS: error= 2.85D-02 at cycle   3 NSaved=   3.
 NSaved= 3 IEnMin= 3 EnMin= -1205.20058783338     IErMin= 3 ErrMin= 2.85D-02
 ErrMax= 2.85D-02  0.00D+00 EMaxC= 1.00D-01 BMatC= 5.82D-01 BMatP= 1.32D+00
 IDIUse=3 WtCom= 7.15D-01 WtEn= 2.85D-01
 EnCoef did     2 forward-backward iterations
 Coeff-Com:  0.292D+00 0.340D+00 0.368D+00
 Coeff-En:   0.269D+00 0.778D-01 0.653D+00
 Coeff:      0.285D+00 0.265D+00 0.449D+00
 Gap=     0.259 Goal=   None    Shift=    0.000
 RMSDP=2.88D-03 MaxDP=1.51D-01 DE=-2.61D+00 OVMax= 1.32D-01

 Cycle   4  Pass 1  IDiag  1:
 E= -1205.58186535791     Delta-E=       -0.381277524528 Rises=F Damp=F
 DIIS: error= 1.27D-02 at cycle   4 NSaved=   4.
 NSaved= 4 IEnMin= 4 EnMin= -1205.58186535791     IErMin= 4 ErrMin= 1.27D-02
 ErrMax= 1.27D-02  0.00D+00 EMaxC= 1.00D-01 BMatC= 1.09D-01 BMatP= 5.82D-01
 IDIUse=3 WtCom= 8.73D-01 WtEn= 1.27D-01
 Coeff-Com: -0.707D-01 0.127D+00 0.205D+00 0.739D+00
 Coeff-En:   0.000D+00 0.000D+00 0.401D-01 0.960D+00
 Coeff:     -0.617D-01 0.111D+00 0.184D+00 0.767D+00
 Gap=     0.151 Goal=   None    Shift=    0.000
 RMSDP=7.80D-04 MaxDP=3.11D-02 DE=-3.81D-01 OVMax= 6.60D-02

 Cycle   5  Pass 1  IDiag  1:
 E= -1205.65852215973     Delta-E=       -0.076656801818 Rises=F Damp=F
 DIIS: error= 4.24D-03 at cycle   5 NSaved=   5.
 NSaved= 5 IEnMin= 5 EnMin= -1205.65852215973     IErMin= 5 ErrMin= 4.24D-03
 ErrMax= 4.24D-03  0.00D+00 EMaxC= 1.00D-01 BMatC= 9.27D-03 BMatP= 1.09D-01
 IDIUse=3 WtCom= 9.58D-01 WtEn= 4.24D-02
 Coeff-Com: -0.493D-01 0.333D-01 0.143D-01 0.337D+00 0.665D+00
 Coeff-En:   0.000D+00 0.000D+00 0.000D+00 0.252D-01 0.975D+00
 Coeff:     -0.472D-01 0.319D-01 0.137D-01 0.324D+00 0.678D+00
 Gap=     0.136 Goal=   None    Shift=    0.000
 RMSDP=4.09D-04 MaxDP=3.05D-02 DE=-7.67D-02 OVMax= 3.95D-02

 Cycle   6  Pass 1  IDiag  1:
 E= -1205.66423230791     Delta-E=       -0.005710148187 Rises=F Damp=F
 DIIS: error= 2.62D-03 at cycle   6 NSaved=   6.
 NSaved= 6 IEnMin= 6 EnMin= -1205.66423230791     IErMin= 6 ErrMin= 2.62D-03
 ErrMax= 2.62D-03  0.00D+00 EMaxC= 1.00D-01 BMatC= 3.50D-03 BMatP= 9.27D-03
 IDIUse=3 WtCom= 9.74D-01 WtEn= 2.62D-02
 Coeff-Com: -0.776D-02-0.407D-03-0.415D-01-0.384D-01 0.399D+00 0.689D+00
 Coeff-En:   0.000D+00 0.000D+00 0.000D+00 0.000D+00 0.183D+00 0.817D+00
 Coeff:     -0.756D-02-0.397D-03-0.404D-01-0.374D-01 0.393D+00 0.692D+00
 Gap=     0.124 Goal=   None    Shift=    0.000
 RMSDP=3.11D-04 MaxDP=1.81D-02 DE=-5.71D-03 OVMax= 2.52D-02

 Cycle   7  Pass 1  IDiag  1:
 E= -1205.66822877004     Delta-E=       -0.003996462126 Rises=F Damp=F
 DIIS: error= 1.50D-03 at cycle   7 NSaved=   7.
 NSaved= 7 IEnMin= 7 EnMin= -1205.66822877004     IErMin= 7 ErrMin= 1.50D-03
 ErrMax= 1.50D-03  0.00D+00 EMaxC= 1.00D-01 BMatC= 1.88D-03 BMatP= 3.50D-03
 IDIUse=3 WtCom= 9.85D-01 WtEn= 1.50D-02
 Coeff-Com:  0.879D-02-0.390D-02-0.302D-01-0.773D-01 0.249D+00 0.519D+00
 Coeff-Com:  0.335D+00
 Coeff-En:   0.000D+00 0.000D+00 0.000D+00 0.000D+00 0.000D+00 0.000D+00
 Coeff-En:   0.100D+01
 Coeff:      0.866D-02-0.385D-02-0.297D-01-0.761D-01 0.245D+00 0.511D+00
 Coeff:      0.345D+00
 Gap=     0.123 Goal=   None    Shift=    0.000
 RMSDP=9.72D-05 MaxDP=5.51D-03 DE=-4.00D-03 OVMax= 8.67D-03

 Cycle   8  Pass 1  IDiag  1:
 E= -1205.66877047746     Delta-E=       -0.000541707419 Rises=F Damp=F
 DIIS: error= 1.66D-03 at cycle   8 NSaved=   8.
 NSaved= 8 IEnMin= 8 EnMin= -1205.66877047746     IErMin= 7 ErrMin= 1.50D-03
 ErrMax= 1.66D-03  0.00D+00 EMaxC= 1.00D-01 BMatC= 1.79D-03 BMatP= 1.88D-03
 IDIUse=3 WtCom= 9.85D-01 WtEn= 1.50D-02
 Coeff-Com:  0.155D-01-0.306D-02-0.130D-01-0.465D-01 0.186D+00 0.310D+00
 Coeff-Com:  0.112D+00 0.439D+00
 Coeff-En:   0.000D+00 0.000D+00 0.000D+00 0.000D+00 0.000D+00 0.000D+00
 Coeff-En:   0.148D-01 0.985D+00
 Coeff:      0.153D-01-0.302D-02-0.128D-01-0.458D-01 0.183D+00 0.305D+00
 Coeff:      0.111D+00 0.448D+00
 Gap=     0.123 Goal=   None    Shift=    0.000
 RMSDP=4.54D-05 MaxDP=5.60D-03 DE=-5.42D-04 OVMax= 2.48D-03

 Cycle   9  Pass 1  IDiag  1:
 E= -1205.66886392953     Delta-E=       -0.000093452072 Rises=F Damp=F
 DIIS: error= 1.14D-03 at cycle   9 NSaved=   9.
 NSaved= 9 IEnMin= 9 EnMin= -1205.66886392953     IErMin= 9 ErrMin= 1.14D-03
 ErrMax= 1.14D-03  0.00D+00 EMaxC= 1.00D-01 BMatC= 1.03D-03 BMatP= 1.79D-03
 IDIUse=3 WtCom= 9.89D-01 WtEn= 1.14D-02
 Coeff-Com: -0.339D-02-0.126D-02 0.234D-01 0.118D+00 0.659D-01-0.159D+00
 Coeff-Com: -0.911D+00-0.353D+00 0.222D+01
 Coeff-En:   0.000D+00 0.000D+00 0.000D+00 0.000D+00 0.000D+00 0.000D+00
 Coeff-En:   0.000D+00 0.371D-01 0.963D+00
 Coeff:     -0.335D-02-0.124D-02 0.232D-01 0.117D+00 0.652D-01-0.157D+00
 Coeff:     -0.901D+00-0.348D+00 0.221D+01
 Gap=     0.129 Goal=   None    Shift=    0.000
 RMSDP=1.03D-04 MaxDP=1.11D-02 DE=-9.35D-05 OVMax= 8.75D-03

 Cycle  10  Pass 1  IDiag  1:
 E= -1205.66914005312     Delta-E=       -0.000276123595 Rises=F Damp=F
 DIIS: error= 5.59D-04 at cycle  10 NSaved=  10.
 NSaved=10 IEnMin=10 EnMin= -1205.66914005312     IErMin=10 ErrMin= 5.59D-04
 ErrMax= 5.59D-04  0.00D+00 EMaxC= 1.00D-01 BMatC= 2.31D-04 BMatP= 1.03D-03
 IDIUse=3 WtCom= 9.94D-01 WtEn= 5.59D-03
 EnCoef did    20 forward-backward iterations
 Coeff-Com: -0.229D-02-0.106D-02 0.187D-01 0.718D-01-0.564D-01-0.197D+00
 Coeff-Com: -0.596D+00-0.201D+00 0.142D+01 0.546D+00
 Coeff-En:   0.000D+00 0.000D+00 0.000D+00 0.000D+00 0.000D+00 0.000D+00
 Coeff-En:   0.000D+00 0.308D-01 0.291D+00 0.678D+00
 Coeff:     -0.227D-02-0.105D-02 0.186D-01 0.714D-01-0.561D-01-0.195D+00
 Coeff:     -0.593D+00-0.200D+00 0.141D+01 0.546D+00
 Gap=     0.128 Goal=   None    Shift=    0.000
 RMSDP=1.48D-04 MaxDP=8.89D-03 DE=-2.76D-04 OVMax= 1.28D-02

 Cycle  11  Pass 1  IDiag  1:
 E= -1205.66944716217     Delta-E=       -0.000307109042 Rises=F Damp=F
 DIIS: error= 4.93D-04 at cycle  11 NSaved=  11.
 NSaved=11 IEnMin=11 EnMin= -1205.66944716217     IErMin=11 ErrMin= 4.93D-04
 ErrMax= 4.93D-04  0.00D+00 EMaxC= 1.00D-01 BMatC= 1.84D-04 BMatP= 2.31D-04
 IDIUse=3 WtCom= 9.95D-01 WtEn= 4.93D-03
 Coeff-Com: -0.201D-02-0.199D-04 0.539D-02 0.253D-01-0.208D-01-0.267D-01
 Coeff-Com: -0.283D+00-0.259D+00 0.681D+00 0.393D+00 0.486D+00
 Coeff-En:   0.000D+00 0.000D+00 0.000D+00 0.000D+00 0.000D+00 0.000D+00
 Coeff-En:   0.000D+00 0.000D+00 0.000D+00 0.205D+00 0.795D+00
 Coeff:     -0.200D-02-0.198D-04 0.537D-02 0.252D-01-0.207D-01-0.265D-01
 Coeff:     -0.282D+00-0.258D+00 0.678D+00 0.392D+00 0.488D+00
 Gap=     0.126 Goal=   None    Shift=    0.000
 RMSDP=6.13D-05 MaxDP=4.36D-03 DE=-3.07D-04 OVMax= 5.14D-03

 Cycle  12  Pass 1  IDiag  1:
 E= -1205.66956452848     Delta-E=       -0.000117366311 Rises=F Damp=F
 DIIS: error= 6.05D-05 at cycle  12 NSaved=  12.
 NSaved=12 IEnMin=12 EnMin= -1205.66956452848     IErMin=12 ErrMin= 6.05D-05
 ErrMax= 6.05D-05  0.00D+00 EMaxC= 1.00D-01 BMatC= 3.37D-06 BMatP= 1.84D-04
 IDIUse=1 WtCom= 1.00D+00 WtEn= 0.00D+00
 Coeff-Com: -0.103D-02-0.275D-04 0.195D-02 0.102D-01-0.916D-02-0.630D-02
 Coeff-Com: -0.121D+00-0.130D+00 0.280D+00 0.178D+00 0.294D+00 0.503D+00
 Coeff:     -0.103D-02-0.275D-04 0.195D-02 0.102D-01-0.916D-02-0.630D-02
 Coeff:     -0.121D+00-0.130D+00 0.280D+00 0.178D+00 0.294D+00 0.503D+00
 Gap=     0.124 Goal=   None    Shift=    0.000
 RMSDP=5.61D-06 MaxDP=2.51D-04 DE=-1.17D-04 OVMax= 5.14D-04

 Cycle  13  Pass 1  IDiag  1:
 E= -1205.66956721328     Delta-E=       -0.000002684804 Rises=F Damp=F
 DIIS: error= 2.95D-05 at cycle  13 NSaved=  13.
 NSaved=13 IEnMin=13 EnMin= -1205.66956721328     IErMin=13 ErrMin= 2.95D-05
 ErrMax= 2.95D-05  0.00D+00 EMaxC= 1.00D-01 BMatC= 6.88D-07 BMatP= 3.37D-06
 IDIUse=1 WtCom= 1.00D+00 WtEn= 0.00D+00
 Coeff-Com: -0.466D-03-0.295D-04 0.847D-03 0.425D-02-0.585D-02-0.430D-02
 Coeff-Com: -0.503D-01-0.581D-01 0.109D+00 0.821D-01 0.159D+00 0.355D+00
 Coeff-Com:  0.408D+00
 Coeff:     -0.466D-03-0.295D-04 0.847D-03 0.425D-02-0.585D-02-0.430D-02
 Coeff:     -0.503D-01-0.581D-01 0.109D+00 0.821D-01 0.159D+00 0.355D+00
 Coeff:      0.408D+00
 Gap=     0.124 Goal=   None    Shift=    0.000
 RMSDP=4.88D-06 MaxDP=2.78D-04 DE=-2.68D-06 OVMax= 4.59D-04

 Cycle  14  Pass 1  IDiag  1:
 E= -1205.66956798017     Delta-E=       -0.000000766886 Rises=F Damp=F
 DIIS: error= 1.65D-05 at cycle  14 NSaved=  14.
 NSaved=14 IEnMin=14 EnMin= -1205.66956798017     IErMin=14 ErrMin= 1.65D-05
 ErrMax= 1.65D-05  0.00D+00 EMaxC= 1.00D-01 BMatC= 1.83D-07 BMatP= 6.88D-07
 IDIUse=1 WtCom= 1.00D+00 WtEn= 0.00D+00
 Coeff-Com: -0.328D-04-0.657D-05 0.631D-04 0.211D-03-0.137D-02-0.134D-02
 Coeff-Com: -0.223D-02-0.713D-02-0.912D-03 0.125D-01 0.279D-01 0.109D+00
 Coeff-Com:  0.294D+00 0.570D+00
 Coeff:     -0.328D-04-0.657D-05 0.631D-04 0.211D-03-0.137D-02-0.134D-02
 Coeff:     -0.223D-02-0.713D-02-0.912D-03 0.125D-01 0.279D-01 0.109D+00
 Coeff:      0.294D+00 0.570D+00
 Gap=     0.124 Goal=   None    Shift=    0.000
 RMSDP=8.05D-07 MaxDP=5.45D-05 DE=-7.67D-07 OVMax= 5.73D-05

 Cycle  15  Pass 1  IDiag  1:
 E= -1205.66956800952     Delta-E=       -0.000000029353 Rises=F Damp=F
 DIIS: error= 8.30D-06 at cycle  15 NSaved=  15.
 NSaved=15 IEnMin=15 EnMin= -1205.66956800952     IErMin=15 ErrMin= 8.30D-06
 ErrMax= 8.30D-06  0.00D+00 EMaxC= 1.00D-01 BMatC= 5.22D-08 BMatP= 1.83D-07
 IDIUse=1 WtCom= 1.00D+00 WtEn= 0.00D+00
 Coeff-Com:  0.395D-05-0.668D-06-0.265D-04-0.670D-04-0.612D-04 0.227D-04
 Coeff-Com:  0.949D-03-0.195D-02-0.353D-02 0.460D-02 0.777D-03 0.358D-01
 Coeff-Com:  0.134D+00 0.255D+00 0.574D+00
 Coeff:      0.395D-05-0.668D-06-0.265D-04-0.670D-04-0.612D-04 0.227D-04
 Coeff:      0.949D-03-0.195D-02-0.353D-02 0.460D-02 0.777D-03 0.358D-01
 Coeff:      0.134D+00 0.255D+00 0.574D+00
 Gap=     0.124 Goal=   None    Shift=    0.000
 RMSDP=1.13D-06 MaxDP=6.65D-05 DE=-2.94D-08 OVMax= 1.00D-04

 Cycle  16  Pass 1  IDiag  1:
 E= -1205.66956804913     Delta-E=       -0.000000039613 Rises=F Damp=F
 DIIS: error= 5.84D-07 at cycle  16 NSaved=  16.
 NSaved=16 IEnMin=16 EnMin= -1205.66956804913     IErMin=16 ErrMin= 5.84D-07
 ErrMax= 5.84D-07  0.00D+00 EMaxC= 1.00D-01 BMatC= 2.64D-10 BMatP= 5.22D-08
 IDIUse=1 WtCom= 1.00D+00 WtEn= 0.00D+00
 Coeff-Com:  0.285D-05 0.158D-06-0.121D-04-0.262D-04 0.581D-04 0.924D-04
 Coeff-Com:  0.334D-03-0.397D-03-0.747D-03 0.115D-02-0.203D-02 0.577D-02
 Coeff-Com:  0.286D-01 0.485D-01 0.217D+00 0.701D+00
 Coeff:      0.285D-05 0.158D-06-0.121D-04-0.262D-04 0.581D-04 0.924D-04
 Coeff:      0.334D-03-0.397D-03-0.747D-03 0.115D-02-0.203D-02 0.577D-02
 Coeff:      0.286D-01 0.485D-01 0.217D+00 0.701D+00
 Gap=     0.124 Goal=   None    Shift=    0.000
 RMSDP=1.26D-07 MaxDP=7.08D-06 DE=-3.96D-08 OVMax= 1.10D-05

 Cycle  17  Pass 1  IDiag  1:
 E= -1205.66956804763     Delta-E=        0.000000001508 Rises=F Damp=F
 DIIS: error= 3.80D-07 at cycle  17 NSaved=  17.
 NSaved=17 IEnMin=16 EnMin= -1205.66956804913     IErMin=17 ErrMin= 3.80D-07
 ErrMax= 3.80D-07  0.00D+00 EMaxC= 1.00D-01 BMatC= 1.22D-10 BMatP= 2.64D-10
 IDIUse=1 WtCom= 1.00D+00 WtEn= 0.00D+00
 Coeff-Com:  0.104D-05 0.109D-06-0.433D-05-0.750D-05 0.297D-04 0.386D-04
 Coeff-Com:  0.919D-04-0.134D-03-0.161D-03 0.331D-03-0.103D-02 0.119D-02
 Coeff-Com:  0.795D-02 0.132D-01 0.987D-01 0.390D+00 0.489D+00
 Coeff:      0.104D-05 0.109D-06-0.433D-05-0.750D-05 0.297D-04 0.386D-04
 Coeff:      0.919D-04-0.134D-03-0.161D-03 0.331D-03-0.103D-02 0.119D-02
 Coeff:      0.795D-02 0.132D-01 0.987D-01 0.390D+00 0.489D+00
 Gap=     0.124 Goal=   None    Shift=    0.000
 RMSDP=3.04D-08 MaxDP=1.69D-06 DE= 1.51D-09 OVMax= 2.83D-06

 Cycle  18  Pass 1  IDiag  1:
 E= -1205.66956804852     Delta-E=       -0.000000000893 Rises=F Damp=F
 DIIS: error= 2.07D-07 at cycle  18 NSaved=  18.
 NSaved=18 IEnMin=16 EnMin= -1205.66956804913     IErMin=18 ErrMin= 2.07D-07
 ErrMax= 2.07D-07  0.00D+00 EMaxC= 1.00D-01 BMatC= 3.74D-11 BMatP= 1.22D-10
 IDIUse=1 WtCom= 1.00D+00 WtEn= 0.00D+00
 Coeff-Com:  0.110D-06 0.590D-08-0.361D-06 0.139D-06 0.267D-05 0.480D-07
 Coeff-Com: -0.249D-05-0.224D-04 0.694D-05 0.112D-05-0.229D-03-0.802D-04
 Coeff-Com:  0.549D-03 0.149D-02 0.331D-01 0.154D+00 0.404D+00 0.407D+00
 Coeff:      0.110D-06 0.590D-08-0.361D-06 0.139D-06 0.267D-05 0.480D-07
 Coeff:     -0.249D-05-0.224D-04 0.694D-05 0.112D-05-0.229D-03-0.802D-04
 Coeff:      0.549D-03 0.149D-02 0.331D-01 0.154D+00 0.404D+00 0.407D+00
 Gap=     0.124 Goal=   None    Shift=    0.000
 RMSDP=3.02D-08 MaxDP=1.78D-06 DE=-8.93D-10 OVMax= 2.68D-06

 Cycle  19  Pass 1  IDiag  1:
 E= -1205.66956804912     Delta-E=       -0.000000000605 Rises=F Damp=F
 DIIS: error= 1.22D-08 at cycle  19 NSaved=  19.
 NSaved=19 IEnMin=16 EnMin= -1205.66956804913     IErMin=19 ErrMin= 1.22D-08
 ErrMax= 1.22D-08  0.00D+00 EMaxC= 1.00D-01 BMatC= 9.96D-14 BMatP= 3.74D-11
 IDIUse=1 WtCom= 1.00D+00 WtEn= 0.00D+00
 Coeff-Com: -0.407D-08-0.279D-08-0.136D-07 0.926D-07 0.679D-06 0.107D-05
 Coeff-Com:  0.135D-05-0.273D-05-0.114D-05-0.122D-04-0.311D-04-0.615D-04
 Coeff-Com: -0.558D-04 0.188D-03 0.718D-02 0.328D-01 0.101D+00 0.114D+00
 Coeff-Com:  0.746D+00
 Coeff:     -0.407D-08-0.279D-08-0.136D-07 0.926D-07 0.679D-06 0.107D-05
 Coeff:      0.135D-05-0.273D-05-0.114D-05-0.122D-04-0.311D-04-0.615D-04
 Coeff:     -0.558D-04 0.188D-03 0.718D-02 0.328D-01 0.101D+00 0.114D+00
 Coeff:      0.746D+00
 Gap=     0.124 Goal=   None    Shift=    0.000
 RMSDP=9.71D-10 MaxDP=7.10D-08 DE=-6.05D-10 OVMax= 5.82D-08

 Error on nuclear    polarization charges =  0.01529
 Error on electronic polarization charges = -0.04495
 SCF Done:  E(RB-P86) =  -1205.66956805     A.U. after   19 cycles
            NFock= 19  Conv=0.97D-09     -V/T= 2.3002
 KE= 9.273135900646D+02 PE=-3.850064953413D+03 EE= 1.159216875019D+03
 --------------------------------------------------------------------
 Variational C-PCM results
 =========================
 <psi(f)|   H    |psi(f)>                     (a.u.) =   -1205.627714
 <psi(f)|H+V(f)/2|psi(f)>                     (a.u.) =   -1205.669568
 Total free energy in solution:
 - with all non electrostatic terms           (a.u.) =   -1205.652469
 --------------------------------------------------------------------
 (Polarized solute)-Solvent               (kcal/mol) =     -26.26
 --------------------------------------------------------------------
 Cavitation energy                        (kcal/mol) =      20.99
 Dispersion energy                        (kcal/mol) =     -11.51
 Repulsion energy                         (kcal/mol) =       1.25
 Total non electrostatic                  (kcal/mol) =      10.73
 --------------------------------------------------------------------
 Partition over spheres:
 Sphere  on Atom  Surface  Charge   GEl     GCav    GDR
    1     Pa1      17.28  -0.308   -5.98    0.97   -0.20
    2      O2      16.98   0.119   -0.81    2.42   -0.89
    3      H3       9.20  -0.137   -2.48    1.30   -0.91
    4      O4      17.19   0.134   -0.01    2.49   -1.04
    5      H5       9.19  -0.132   -2.92    1.30   -0.87
    6      O6      17.09   0.133   -1.23    2.50   -0.91
    7      H7       9.18  -0.135   -2.33    1.30   -0.92
    8      O8      17.00   0.126   -1.44    2.43   -0.97
    9      H9       9.20  -0.135   -2.53    1.30   -0.86
   10     Cl10     40.57   0.334   -6.54    5.00   -2.68
 --------------------------------------------------------------------
 - cavitation energy not included in the total energy.
 - dispersion energy not included in the total energy.
 - repulsion  energy not included in the total energy.
 After PCM corrections, the energy is  -1205.66956805     a.u.
 --------------------------------------------------------------------
 Writing COSMO formatted file "pa_oh4_cl-bp86-cosmors-deftzvp-klamt.cosmo"
 Recomputed dielectric energy= -0.042017 old= -0.041854 diff=-1.62D-04
 Leave Link  502 at Tue Jul  4 10:47:57 2023, MaxMem=  2147483648 cpu:             513.8 elap:              82.4
 (Enter /home/pcmt/gaussian/g16.C.01/g16/l601.exe)
 Copying SCF densities to generalized density rwf, IOpCl= 0 IROHF=0.

 **********************************************************************

            Population analysis using the SCF Density.

 **********************************************************************

 Orbital symmetries:
       Occupied  (A) (A) (A) (A) (A) (A) (A) (A) (A) (A) (A) (A)
                 (A) (A) (A) (A) (A) (A) (A) (A) (A) (A) (A) (A)
                 (A) (A) (A) (A) (A) (A) (A) (A) (A) (A) (A) (A)
                 (A) (A) (A) (A) (A) (A)
       Virtual   (A) (A) (A) (A) (A) (A) (A) (A) (A) (A) (A) (A)
                 (A) (A) (A) (A) (A) (A) (A) (A) (A) (A) (A) (A)
                 (A) (A) (A) (A) (A) (A) (A) (A) (A) (A) (A) (A)
                 (A) (A) (A) (A) (A) (A) (A) (A) (A) (A) (A) (A)
                 (A) (A) (A) (A) (A) (A) (A) (A) (A) (A) (A) (A)
                 (A) (A) (A) (A) (A) (A) (A) (A) (A) (A) (A) (A)
                 (A) (A) (A) (A) (A) (A) (A) (A) (A) (A) (A) (A)
                 (A) (A) (A) (A) (A) (A) (A) (A) (A) (A) (A) (A)
                 (A) (A) (A) (A) (A) (A) (A) (A) (A) (A) (A) (A)
                 (A) (A) (A) (A) (A) (A) (A) (A) (A) (A) (A) (A)
                 (A) (A) (A) (A) (A) (A) (A) (A) (A) (A) (A) (A)
                 (A) (A) (A) (A) (A) (A) (A) (A) (A) (A) (A) (A)
                 (A) (A) (A) (A) (A) (A) (A) (A) (A) (A) (A) (A)
                 (A) (A) (A) (A) (A) (A) (A) (A) (A) (A) (A) (A)
                 (A) (A) (A) (A) (A) (A) (A) (A) (A) (A) (A) (A)
                 (A) (A) (A) (A) (A) (A) (A) (A) (A) (A) (A) (A)
                 (A) (A) (A) (A) (A) (A) (A) (A) (A) (A) (A) (A)
                 (A) (A) (A) (A) (A) (A) (A) (A) (A) (A) (A) (A)
                 (A) (A) (A) (A) (A) (A) (A) (A) (A) (A) (A) (A)
                 (A) (A) (A) (A) (A) (A) (A) (A) (A) (A) (A) (A)
                 (A) (A)
 The electronic state is 1-A.
 Alpha  occ. eigenvalues -- -100.67207 -18.77231 -18.77177 -18.76978 -18.76754
 Alpha  occ. eigenvalues --  -11.12026  -9.13788  -7.18573  -7.18282  -7.17995
 Alpha  occ. eigenvalues --   -6.95493  -6.95360  -6.95306  -3.54055  -3.54006
 Alpha  occ. eigenvalues --   -3.53905  -3.53757  -3.53555  -1.73347  -0.96250
 Alpha  occ. eigenvalues --   -0.94006  -0.93162  -0.89366  -0.81218  -0.80432
 Alpha  occ. eigenvalues --   -0.78494  -0.69080  -0.46113  -0.43137  -0.42967
 Alpha  occ. eigenvalues --   -0.39989  -0.32535  -0.31016  -0.30441  -0.29759
 Alpha  occ. eigenvalues --   -0.29569  -0.29012  -0.28644  -0.27982  -0.27176
 Alpha  occ. eigenvalues --   -0.26502  -0.25837
 Alpha virt. eigenvalues --   -0.13458  -0.13049  -0.12223  -0.11824  -0.11037
 Alpha virt. eigenvalues --   -0.10302  -0.09574  -0.07842  -0.02003   0.00351
 Alpha virt. eigenvalues --    0.00429   0.02086   0.02503   0.02827   0.02925
 Alpha virt. eigenvalues --    0.04985   0.06887   0.11022   0.12160   0.13739
 Alpha virt. eigenvalues --    0.15629   0.20037   0.22473   0.23686   0.24395
 Alpha virt. eigenvalues --    0.25104   0.25598   0.27036   0.27477   0.29134
 Alpha virt. eigenvalues --    0.29365   0.31538   0.32107   0.32920   0.34288
 Alpha virt. eigenvalues --    0.35342   0.38467   0.39112   0.40927   0.43047
 Alpha virt. eigenvalues --    0.43760   0.44544   0.46449   0.46914   0.47814
 Alpha virt. eigenvalues --    0.49117   0.50949   0.51867   0.52806   0.54881
 Alpha virt. eigenvalues --    0.55846   0.57604   0.58165   0.60407   0.62091
 Alpha virt. eigenvalues --    0.64290   0.64764   0.68253   0.71680   0.74200
 Alpha virt. eigenvalues --    0.76528   0.80005   0.85421   0.87101   0.91275
 Alpha virt. eigenvalues --    0.96432   0.98566   1.04823   1.07050   1.07675
 Alpha virt. eigenvalues --    1.10211   1.10837   1.11344   1.12897   1.14411
 Alpha virt. eigenvalues --    1.15479   1.15871   1.16862   1.20185   1.22292
 Alpha virt. eigenvalues --    1.27297   1.28168   1.28708   1.31354   1.34777
 Alpha virt. eigenvalues --    1.36116   1.38145   1.41440   1.42137   1.44939
 Alpha virt. eigenvalues --    1.48207   1.49856   1.55526   1.56881   1.57614
 Alpha virt. eigenvalues --    1.59997   1.61642   1.67078   1.68997   1.70678
 Alpha virt. eigenvalues --    1.71597   1.73739   1.74472   1.77223   1.77914
 Alpha virt. eigenvalues --    1.79063   1.80534   1.85571   1.86288   1.87159
 Alpha virt. eigenvalues --    1.87842   1.88708   1.91373   1.95789   2.03418
 Alpha virt. eigenvalues --    2.03964   2.04688   2.06796   2.07663   2.11777
 Alpha virt. eigenvalues --    2.15028   2.16156   2.16890   2.18664   2.19586
 Alpha virt. eigenvalues --    2.19854   2.21220   2.24486   2.25125   2.26354
 Alpha virt. eigenvalues --    2.27247   2.28793   2.31355   2.44118   2.47561
 Alpha virt. eigenvalues --    2.51185   2.52112   2.59423   2.59551   2.62707
 Alpha virt. eigenvalues --    2.65817   2.66783   2.68972   2.72064   2.74139
 Alpha virt. eigenvalues --    2.76097   2.80452   2.90245   2.93112   3.02280
 Alpha virt. eigenvalues --    3.41767   3.47241   3.57695   3.65246   3.65781
 Alpha virt. eigenvalues --    3.69331   3.72432   3.76687   3.81225   3.84015
 Alpha virt. eigenvalues --    3.89052   3.97789   4.10507   4.15013   4.19816
 Alpha virt. eigenvalues --    5.00223   5.00299   5.00540   5.00838   5.01392
 Alpha virt. eigenvalues --    5.01684   5.02047   5.02468   5.06378   5.07053
 Alpha virt. eigenvalues --    5.10518   5.11141   5.12039   5.13333   5.14943
 Alpha virt. eigenvalues --    5.16530   5.31362   5.31642   5.33776   5.36651
 Alpha virt. eigenvalues --    5.37755   5.40583   5.42758   5.44367   6.00214
 Alpha virt. eigenvalues --    6.09644   6.10121   6.11161   6.14829   6.16890
 Alpha virt. eigenvalues --    6.17489   6.19787   6.21823   6.24130   6.26134
 Alpha virt. eigenvalues --    6.28696   6.29626   6.40824   6.42302   6.46717
 Alpha virt. eigenvalues --    6.48347   6.62667   6.64357   6.66788   6.76942
 Alpha virt. eigenvalues --    6.94220   6.96895   6.98900   7.07446   7.23305
 Alpha virt. eigenvalues --    7.38118   7.42204   8.11280   8.16359   8.19102
 Alpha virt. eigenvalues --    8.56541   8.87035  10.55452  10.56156  10.80064
 Alpha virt. eigenvalues --   24.95551  29.29620  29.37887  29.44055  43.22341
 Alpha virt. eigenvalues --   43.29154  43.36686  43.42799  54.04702  70.20434
 Alpha virt. eigenvalues --   70.24949  70.28787 142.60062 142.68737 142.76111
 Alpha virt. eigenvalues --  202.55907 626.07324
     Molecular Orbital Coefficients:
                           1         2         3         4         5
                           O         O         O         O         O
     Eigenvalues --  -100.67207 -18.77231 -18.77177 -18.76978 -18.76754
   1 1   Pa 1S         -0.00000  -0.00000  -0.00000  -0.00000  -0.00000
   2        2S         -0.00000  -0.00011  -0.00012  -0.00008  -0.00007
   3        3S          0.00000   0.00000   0.00000   0.00000   0.00000
   4        4S          0.00001   0.00025   0.00026   0.00017   0.00017
   5        5S         -0.00001  -0.00098  -0.00102  -0.00069  -0.00066
   6        6S          0.00000   0.00189   0.00195   0.00137   0.00127
   7        7S          0.00016  -0.00240  -0.00247  -0.00183  -0.00151
   8        8S         -0.00062   0.00195   0.00209   0.00170   0.00131
[...]
    10  Cl  -0.536671
 Sum of Mulliken charges =  -0.00000
 Mulliken charges with hydrogens summed into heavy atoms:
               1
     1  Pa   1.626879
     2  O   -0.271493
     4  O   -0.293286
     6  O   -0.259757
     8  O   -0.265673
    10  Cl  -0.536671
 Electronic spatial extent (au):  <R**2>=           1200.1690
 Charge=             -0.0000 electrons
 Dipole moment (field-independent basis, Debye):
    X=              8.0944    Y=              0.3094    Z=             -0.1427  Tot=              8.1016
 Quadrupole moment (field-independent basis, Debye-Ang):
   XX=            -83.7358   YY=            -65.8894   ZZ=            -67.8845
   XY=              1.0299   XZ=              1.1709   YZ=             -1.1951
 Traceless Quadrupole moment (field-independent basis, Debye-Ang):
   XX=            -11.2326   YY=              6.6138   ZZ=              4.6188
   XY=              1.0299   XZ=              1.1709   YZ=             -1.1951
 Octapole moment (field-independent basis, Debye-Ang**2):
  XXX=             88.9550  YYY=              5.1355  ZZZ=              6.0947  XYY=             31.8826
  XXY=              9.0228  XXZ=             -1.2697  XZZ=             16.1094  YZZ=             -8.9385
  YYZ=              6.8403  XYZ=             -2.5727
 Hexadecapole moment (field-independent basis, Debye-Ang**3):
 XXXX=           -838.1467 YYYY=           -285.0853 ZZZZ=           -182.8426 XXXY=             35.6987
 XXXZ=            -17.1188 YYYX=            -16.7836 YYYZ=             22.5890 ZZZX=             16.5082
 ZZZY=            -26.7610 XXYY=           -197.2505 XXZZ=           -181.5378 YYZZ=           -115.3092
 XXYZ=             -6.9502 YYXZ=              0.0189 ZZXY=             -4.0080
 N-N= 5.578649202803D+02 E-N=-3.850064950729D+03  KE= 9.273135900646D+02
 Orbital energies and kinetic energies (alpha):
                                 1                 2
   1         O              -100.672074        137.104078
   2         O               -18.772309         29.111981
   3         O               -18.771771         29.112113
   4         O               -18.769783         29.113121
   5         O               -18.767541         29.112772
   6         O               -11.120256          4.704528
   7         O                -9.137881         21.458334
   8         O                -7.185732          5.038124
   9         O                -7.182816          5.037230
  10         O                -7.179948          5.036228
  11         O                -6.954932         20.544544
  12         O                -6.953597         20.546724
  13         O                -6.953055         20.547514
  14         O                -3.540550          6.840084
  15         O                -3.540063          6.839699
  16         O                -3.539049          6.839260
  17         O                -3.537568          6.838296
  18         O                -3.535546          6.837827
  19         O                -1.733469          6.486485
  20         O                -0.962504          2.301795
  21         O                -0.940063          2.389166
  22         O                -0.931621          2.469540
  23         O                -0.893661          2.960819
  24         O                -0.812179          2.609647
  25         O                -0.804317          2.570269
  26         O                -0.784938          2.627757
  27         O                -0.690797          3.239659
  28         O                -0.461130          3.045235
  29         O                -0.431370          4.544681
  30         O                -0.429669          2.929945
  31         O                -0.399885          2.421396
  32         O                -0.325347          2.136446
  33         O                -0.310159          2.227666
  34         O                -0.304408          3.470595
  35         O                -0.297588          3.872006
  36         O                -0.295689          3.185351
  37         O                -0.290124          2.644816
  38         O                -0.286443          3.175533
  39         O                -0.279824          3.934262
  40         O                -0.271756          2.491577
  41         O                -0.265016          2.652712
  42         O                -0.258373          2.606982
  43         V                -0.134582        172.169398
  44         V                -0.130485          6.563613
  45         V                -0.122230         15.447318
  46         V                -0.118240          9.712826
  47         V                -0.110373         28.928980
  48         V                -0.103018        137.226608
  49         V                -0.095737         40.434438
  50         V                -0.078417          5.446718
  51         V                -0.020029         12.677189
  52         V                 0.003514          1.585990
  53         V                 0.004293          2.006324
  54         V                 0.020857          2.243746
  55         V                 0.025028          0.752934
  56         V                 0.028268          0.985343
  57         V                 0.029250          0.950018
  58         V                 0.049848          2.426290
  59         V                 0.068873          1.218362
  60         V                 0.110223          7.103652
  61         V                 0.121600          1.039309
  62         V                 0.137394          1.462326
  63         V                 0.156290          2.976759
  64         V                 0.200368          1.383258
  65         V                 0.224728          1.136185
  66         V                 0.236861          1.441358
  67         V                 0.243953          1.352265
  68         V                 0.251042          1.298138
  69         V                 0.255976          1.358913
  70         V                 0.270361          1.178953
  71         V                 0.274766          1.301319
  72         V                 0.291341          1.367811
  73         V                 0.293654          1.901233
  74         V                 0.315378          1.974306
  75         V                 0.321069          1.334041
  76         V                 0.329196          1.412900
  77         V                 0.342879          1.708013
  78         V                 0.353415          1.601140
  79         V                 0.384673          1.705160
  80         V                 0.391115          2.859483
  81         V                 0.409268          1.403459
  82         V                 0.430470          1.590036
  83         V                 0.437600          1.643204
  84         V                 0.445444          1.704140
  85         V                 0.464494          1.861311
  86         V                 0.469144          2.082807
  87         V                 0.478143          2.507894
  88         V                 0.491171          1.696251
  89         V                 0.509489          1.742295
  90         V                 0.518667          1.786150
  91         V                 0.528058          1.752836
  92         V                 0.548809          2.253916
  93         V                 0.558457          1.599075
  94         V                 0.576042          1.487891
  95         V                 0.581648          1.535663
  96         V                 0.604072          1.807379
  97         V                 0.620908          3.072756
  98         V                 0.642902          1.848799
  99         V                 0.647637          1.545975
 100         V                 0.682526          1.789694
 101         V                 0.716796          2.120516
 102         V                 0.742004          1.543634
 103         V                 0.765282          1.833791
 104         V                 0.800047          1.701307
 105         V                 0.854211          1.897924
 106         V                 0.871008          1.998302
 107         V                 0.912749          3.720344
 108         V                 0.964318          2.358719
 109         V                 0.985663          3.851968
 110         V                 1.048233          2.521325
 111         V                 1.070500          2.768007
 112         V                 1.076751          2.815584
 113         V                 1.102114          3.145484
 114         V                 1.108371          2.976627
 115         V                 1.113440          2.840030
 116         V                 1.128969          2.804678
 117         V                 1.144115          2.491774
 118         V                 1.154791          2.329776
 119         V                 1.158712          2.961861
 120         V                 1.168621          2.799568
 121         V                 1.201852          2.585034
 122         V                 1.222924          2.891653
 123         V                 1.272966          3.482921
 124         V                 1.281684          3.444699
 125         V                 1.287076          3.454313
 126         V                 1.313543          2.615461
 127         V                 1.347771          2.843689
 128         V                 1.361162          2.649156
 129         V                 1.381452          2.929848
 130         V                 1.414402          2.492375
 131         V                 1.421374          2.624526
 132         V                 1.449390          2.899450
 133         V                 1.482073          2.881726
 134         V                 1.498558          2.845340
 135         V                 1.555261          3.277017
 136         V                 1.568813          3.599846
 137         V                 1.576136          3.760880
 138         V                 1.599968          3.495294
 139         V                 1.616417          3.506550
 140         V                 1.670775          3.420782
 141         V                 1.689969          3.438492
 142         V                 1.706781          3.518213
 143         V                 1.715968          4.133723
 144         V                 1.737387          3.733404
 145         V                 1.744716          4.097579
 146         V                 1.772233          3.461183
 147         V                 1.779141          3.708015
 148         V                 1.790631          3.371046
 149         V                 1.805338          3.444589
 150         V                 1.855713          4.294742
 151         V                 1.862876          4.003121
 152         V                 1.871586          4.039206
 153         V                 1.878425          3.967308
 154         V                 1.887081          4.216216
 155         V                 1.913732          3.560254
 156         V                 1.957887          3.660781
 157         V                 2.034175          3.188980
 158         V                 2.039642          3.227661
 159         V                 2.046879          3.285292
 160         V                 2.067957          4.293015
 161         V                 2.076627          3.365973
 162         V                 2.117772          3.645071
 163         V                 2.150278          3.872435
 164         V                 2.161563          3.821524
 165         V                 2.168896          4.087783
 166         V                 2.186644          5.931265
 167         V                 2.195862          5.912869
 168         V                 2.198539          5.108015
 169         V                 2.212200          4.039832
 170         V                 2.244864          4.589447
 171         V                 2.251252          4.350576
 172         V                 2.263536          4.627222
 173         V                 2.272470          4.026067
 174         V                 2.287927          4.134788
 175         V                 2.313554          5.212667
 176         V                 2.441183          4.748876
 177         V                 2.475610          4.109641
 178         V                 2.511846          4.445146
 179         V                 2.521119          4.996820
 180         V                 2.594230          6.315230
 181         V                 2.595510          6.259712
 182         V                 2.627073          6.816010
 183         V                 2.658166          6.367628
 184         V                 2.667831          6.196318
 185         V                 2.689719          6.791676
 186         V                 2.720638          6.289562
 187         V                 2.741387          6.476781
 188         V                 2.760973          6.507441
 189         V                 2.804521          6.740825
 190         V                 2.902446          6.859722
 191         V                 2.931117          6.792857
 192         V                 3.022796          6.599322
 193         V                 3.417673          8.623411
 194         V                 3.472415          8.413925
 195         V                 3.576952          8.256062
 196         V                 3.652460          7.083667
 197         V                 3.657805          8.577077
 198         V                 3.693306          7.358609
 199         V                 3.724322          7.479820
 200         V                 3.766873          7.397965
 201         V                 3.812251          9.156840
 202         V                 3.840151          9.743259
 203         V                 3.890516          8.882903
 204         V                 3.977887          9.225890
 205         V                 4.105069          9.407996
 206         V                 4.150134          9.448200
 207         V                 4.198159          9.182895
 208         V                 5.002232          6.441186
 209         V                 5.002986          6.436918
 210         V                 5.005396          6.449350
 211         V                 5.008385          6.455292
 212         V                 5.013922          6.470426
 213         V                 5.016837          6.470158
 214         V                 5.020472          6.484161
 215         V                 5.024678          6.472197
 216         V                 5.063777          6.674841
 217         V                 5.070533          6.632924
 218         V                 5.105177          6.837748
 219         V                 5.111414          6.694657
 220         V                 5.120388          6.852490
 221         V                 5.133331          6.789867
 222         V                 5.149434          6.820517
 223         V                 5.165302          6.852556
 224         V                 5.313623          7.065483
 225         V                 5.316419          6.917000
 226         V                 5.337759          7.879026
 227         V                 5.366513          7.080072
 228         V                 5.377547          7.015225
 229         V                 5.405829          7.114885
 230         V                 5.427581          7.221072
 231         V                 5.443670          7.221327
 232         V                 6.002136         10.757401
 233         V                 6.096443          9.046173
 234         V                 6.101207          9.129735
 235         V                 6.111606          9.092425
 236         V                 6.148286          9.468405
 237         V                 6.168900          9.167857
 238         V                 6.174889          9.328415
 239         V                 6.197872          9.353869
 240         V                 6.218231          9.302308
 241         V                 6.241296          9.299789
 242         V                 6.261344          9.345126
 243         V                 6.286955          9.324028
 244         V                 6.296257          9.365256
 245         V                 6.408238          9.621709
 246         V                 6.423018          9.625673
 247         V                 6.467173          9.655905
 248         V                 6.483469          9.671301
 249         V                 6.626669         10.156864
 250         V                 6.643572         10.293648
 251         V                 6.667877         10.276749
 252         V                 6.769417         10.137505
 253         V                 6.942198         10.231404
 254         V                 6.968952         10.303682
 255         V                 6.989001          9.986445
 256         V                 7.074462         10.603946
 257         V                 7.233050         13.068368
 258         V                 7.381177         13.452555
 259         V                 7.422042         13.781170
 260         V                 8.112804         15.823482
 261         V                 8.163586         15.799665
 262         V                 8.191016         15.808894
 263         V                 8.565409         16.149710
 264         V                 8.870355         16.401060
 265         V                10.554518         33.481816
 266         V                10.561556         33.483828
 267         V                10.800642         33.466683
 268         V                24.955514         44.485229
 269         V                29.296198         36.039425
 270         V                29.378873         36.121445
 271         V                29.440552         36.183821
 272         V                43.223413        108.591327
 273         V                43.291537        108.635238
 274         V                43.366861        108.725750
 275         V                43.427988        108.785276
 276         V                54.047017         39.958925
 277         V                70.204342         83.962669
 278         V                70.249491         84.046560
 279         V                70.287874         84.119445
 280         V               142.600617        242.445615
 281         V               142.687375        242.554175
 282         V               142.761114        242.647485
 283         V               202.559072        130.069885
 284         V               626.073243       1034.486114
 Total kinetic energy from orbitals= 9.273135900646D+02
 No NMR shielding tensors so no spin-rotation constants.
 Leave Link  601 at Tue Jul  4 10:47:57 2023, MaxMem=  2147483648 cpu:               2.0 elap:               0.3
 (Enter /home/pcmt/gaussian/g16.C.01/g16/l9999.exe)

 Test job not archived.
 1\1\GINC-U-0-9\SP\RBP86\Gen\Cl1H4O4Pa1\SHAABAN\04-Jul-2023\0\\#p BP86/
 GEN Pseudo=Read GFInput GFPrint IOP(6/7=3) Symm=(Loose) Int=(UltraFine
 ) Guess=(Harris) SCRF=(COSMORS) Scf=(NoVarAcc,MaxCycle=100,conver=8)\\
 pa_oh4_cl-bp86-cosmors-deftzvp-klamt.com SGP in PCM calculation\\0,1\P
 a,0,0.4489698047,0.0847951828,0.3092734457\O,0,1.1854805989,1.76104883
 63,-0.7010718061\H,0,1.2297695899,2.1692608229,-1.575177068\O,0,-1.508
 5248851,0.8422354302,0.197808329\H,0,-2.0090009692,1.518048672,-0.2748
 173669\O,0,0.3892229212,-1.0279427686,-1.45756241\H,0,-0.0081003442,-1
 .8174583444,-1.8419257374\O,0,-0.2444585245,-1.4910800742,1.5068901123
 \H,0,-1.0999477633,-1.8860458404,1.7203881314\Cl,0,2.9871975537,-0.611
 9929625,0.9410429837\\Version=ES64L-G16RevC.01\State=1-A\HF=-1205.6695
 68\RMSD=9.709e-10\Dipole=-2.9439918,0.9783116,-0.7317509\Quadrupole=-7
 .3019228,4.3059426,2.9959803,3.5107974,-1.4977822,0.0550545\PG=C01 [X(
 Cl1H4O4Pa1)]\\@


 IN-LAWS ARE LIKE SEEDS. YOU DON'T NEED THEM
 BUT THEY COME WITH THE TOMATO.
 Job cpu time:       0 days  0 hours  8 minutes 54.9 seconds.
 Elapsed time:       0 days  0 hours  1 minutes 25.3 seconds.
 File lengths (MBytes):  RWF=     44 Int=      0 D2E=      0 Chk=      6 Scr=      1
 Normal termination of Gaussian 16 at Tue Jul  4 10:47:57 2023.
