
 Primary working directories    : /state/partition2/shaaban/863970.phlam-s-sakura/molpro.BE1R7S8WjX
 Secondary working directories  : /state/partition2/shaaban/863970.phlam-s-sakura/molpro.BE1R7S8WjX
 Wavefunction directory         : /home/shaaban/wfu/
 Main file repository           : /state/partition2/shaaban/863970.phlam-s-sakura/molpro.BE1R7S8WjX/

 id        : lill

 Nodes       nprocs
 u-0-10.local    8

 Using customized tuning parameters: mindgm=1; mindgv=20; mindgc=4; mindgr=1; noblas=0; minvec=7
 default implementation of scratch files=sf  


 Variables initialized (945), CPU time= 0.01 sec
 ***,PaO(OH)3(NO3)(H2O) - MP2 and CCSD(T)
 memory,2500, m;
 file, 1, pao_oh2_no3_h2o.ccsd-tx.int, new;
 file, 2, pao_oh2_no3_h2o.ccsd-tx.wfu, new;
 
 gprint, basis;
 gprint, orbital=10;
 
 nosym;
 
 geomtyp=xyz;
 
 geometry={
 Including file /home/shaaban/molpro/nitrate/pao_oh2_no3_h2o/pao_oh2_no3_h2o.SR.b3lyp.tz2p.xyz
 }
 
 charge=0;
 
                                                                                 ! Select X2C SR Hamiltonian
 SET,DKHO=101
 
                                                                                 ! Calculation with VTZ basis set
 basis={
 Pa=cc-pVTZ-X2C;
 O=aug-cc-pVTZ-X2C;
 H=aug-cc-pVTZ-X2C;
 N=aug-cc-pVTZ-X2C;
 }
 
                                                                                 ! Hartree-Fock calculation
 {hf;}
 
                                                                                 ! MP2 and CCSD(T) calculation
 {ccsd(t);}
 
                                                                  ! Save HF energy and CCSD(T) correlation energy for VTZ basis set
 energy_hf(1) = energr(1);
 corr_mp2(1) = EMP2-energr(1);
 corr_ccsdt(1) = ENERGT(1)-energr(1);
 
 
 Commands  initialized (802), CPU time= 0.01 sec, 659 directives.
 Default parameters read. Elapsed time= 0.12 sec

 Checking input...
 Passed
1


                                         ***  PROGRAM SYSTEM MOLPRO  ***
                                       Copyright, TTI GmbH Stuttgart, 2015
                                    Version 2020.1 linked Oct  6 2020 12:04:11


 **********************************************************************************************************************************
 LABEL *   PaO(OH)3(NO3)(H2O) - MP2 and CCSD(T)                                          
  64 bit mpp version                                                                     DATE: 30-May-22          TIME: 15:03:13  
 **********************************************************************************************************************************

 SHA1:             8c27446f6450a7499e38f603e13c65f775101d37
 **********************************************************************************************************************************

 Memory per process:      2500 MW
 Total memory per node:  20000 MW

 GA preallocation disabled
 GA check disabled

 Variable memory set to 2500.0 MW



 Permanent file  1  pao_oh2_no3_h2o.ccsd-tx.int      assigned.  Implementation=df  
 Permanent file  2  pao_oh2_no3_h2o.ccsd-tx.wfu      assigned.  Implementation=df  



 **********************************************************************************************************************************
 DATASETS  * FILE   NREC   LENGTH (MB)   RECORD NAMES
              1       1        0.03       500   
                                          VAR  

              2       1        0.03       500   
                                          VAR  

 PROGRAMS   *        TOTAL      FILE
 CPU TIMES  *         0.16      0.00
 REAL TIME  *         0.26 SEC
 DISK USED  *         0.10 MB (local),        0.84 MB (total)
 **********************************************************************************************************************************


 SETTING GEOMTYP        =    XYZ
 ZSYMEL=NOSYM

 SETTING CHARGE         =     0.00000000D+00                                  
 SETTING DKHO           =       101.00000000                                  
 SETTING BASIS          =    PA=CC-PVTZ-X2C,O=AUG-CC-PVTZ-X2C,H=AUG-CC-PVTZ-X2C,N=AUG-CC-PVTZ-X2C


 Recomputing integrals since basis changed


 Using spherical harmonics

 Library entry PA     S cc-pVTZ-X2C          selected for orbital group  1
 Library entry PA     P cc-pVTZ-X2C          selected for orbital group  1
 Library entry PA     D cc-pVTZ-X2C          selected for orbital group  1
 Library entry PA     F cc-pVTZ-X2C          selected for orbital group  1
 Library entry PA     G cc-pVTZ-X2C          selected for orbital group  1
 Library entry PA     H cc-pVTZ-X2C          selected for orbital group  1
 Library entry O      S aug-cc-pVTZ-X2C      selected for orbital group  2
 Library entry O      P aug-cc-pVTZ-X2C      selected for orbital group  2
 Library entry O      D aug-cc-pVTZ-X2C      selected for orbital group  2
 Library entry O      F aug-cc-pVTZ-X2C      selected for orbital group  2
 Library entry H      S aug-cc-pVTZ-X2C      selected for orbital group  3
 Library entry H      P aug-cc-pVTZ-X2C      selected for orbital group  3
 Library entry H      D aug-cc-pVTZ-X2C      selected for orbital group  3
 Library entry N      S aug-cc-pVTZ-X2C      selected for orbital group 11
 Library entry N      P aug-cc-pVTZ-X2C      selected for orbital group 11
 Library entry N      D aug-cc-pVTZ-X2C      selected for orbital group 11
 Library entry N      F aug-cc-pVTZ-X2C      selected for orbital group 11


 PROGRAM * SEWARD (Integral evaluation for generally contracted gaussian basis sets)     Author: Roland Lindh, 1990

 Geometry written to block  1 of record 700


 Point group  C1  



 ATOMIC COORDINATES

 NR  ATOM    CHARGE       X              Y              Z

   1  PA     91.00    0.767472288   -0.169632045   -0.716225380
   2  O       8.00    2.371517287    2.457763621   -3.232361493
   3  H       1.00    2.689524943    4.018054858   -4.098783030
   4  O       8.00   -1.303350653    1.697947757    1.397053456
   5  H       1.00   -1.248050057   -5.202767176    2.284182604
   6  O       8.00   -1.373265604   -2.314312353   -3.319098845
   7  H       1.00   -2.160828576   -3.089047032   -4.755868917
   8  O       8.00   -0.785952760   -3.472503905    2.620121548
   9  H       1.00   -2.088915734   -2.727386857    3.657782126
  10  O       8.00    4.018879300   -3.603205314   -1.178770348
  11  O       8.00    4.799611554   -0.780727063    1.699211888
  12  N       7.00    5.543473709   -2.795457976    0.551776869
  13  O       8.00    7.489670048   -3.845791909    1.050432582

 Bond lengths in Bohr (Angstrom)

 1-2  3.975815549  1-3  5.716004222  1-4  3.498872591  1-6  3.994666773  1-7  5.780713600
     ( 2.103910983)     ( 3.024779172)     ( 1.851523639)     ( 2.113886621)     ( 3.059021900)

  1- 8  4.945028082   1- 9  5.816614469   1-10  4.751317797   1-11  4.739822927   1-12  5.595800310
       ( 2.616796168)       ( 3.078019821)       ( 2.514289100)       ( 2.508206277)       ( 2.961170001)

  2- 3  1.812822081   5- 8  1.822141562   6- 7  1.812395513   8- 9  1.824733242  10-12  2.443693422
       ( 0.959304133)       ( 0.964235790)       ( 0.959078403)       ( 0.965607248)       ( 1.293146870)

 11-12  2.434969955  12-13  2.267055156
       ( 1.288530610)       ( 1.199673924)

 Bond angles

  1-2-3  160.39542968   1-3-2   13.49605845   1-6-7  168.21304878   1-7-6    8.11495091

  1- 8- 5  126.12270361   1- 8- 9  109.58736626   1- 9- 8   53.22172047   1-10-12   96.84175123

  1-11-12   97.26244627   1-12-10   57.46254222   1-12-11   57.16514131   1-12-13  179.41518475

  2-1-3    6.10851186   2-1-4  105.56241508   2-1-6   99.12814850   2-1-7   95.50116166

  2- 1- 8  174.33261600   2- 1- 9  164.71369918   2- 1-10   98.04011296   2- 1-11   93.69797390

  2- 1-12   96.26702831   3- 1- 4   99.51974524   3- 1- 6  100.83299042   3- 1- 7   97.28439662

  3- 1- 8  173.83897553   3- 1- 9  158.79441772   3- 1-10  103.98808707   3- 1-11   96.31368398

  3- 1-12  101.00430240   4- 1- 6  111.28138598   4- 1- 7  113.06840045   4- 1- 8   76.29541997

  4- 1- 9   59.32815871   4- 1-10  148.16217355   4- 1-11  105.33776461   4- 1-12  128.22509260

  5-8-9  108.15020023   6-1-7    3.67200031   6-1-8   84.99027703   6-1-9   89.46894959

  6- 1-10   85.14167257   6- 1-11  135.94878680   6- 1-12  110.67728618   7- 1- 8   88.56935610

  7- 1- 9   93.13338661   7- 1-10   85.04685474   7- 1-11  136.21471728   7- 1-12  110.71489429

  8- 1- 9   17.19091327   8- 1-10   78.34468214   8- 1-11   80.63628727   8- 1-12   78.56905708

  9- 1-10   95.24880185   9- 1-11   88.73048639   9- 1-12   92.42933270  10- 1-11   51.26609101

 10- 1-12   25.69570656  10-12-11  114.62109729  10-12-13  122.56218847  11- 1-12   25.57241242

 11-12-13  122.81634147


 BASIS DATA

   Nr Sym  Nuc  Type         Exponents   Contraction coefficients

    1.1 A     1  1s    57606659.000000     0.002669    0.000875   -0.001011   -0.000162    0.000138   -0.000062
                                           0.000029    0.000051   -0.000067   -0.000085    0.000000
    2.1 A              15333099.000000     0.001763    0.000577   -0.000669   -0.000107    0.000091   -0.000041
                                           0.000019    0.000034   -0.000045   -0.000056    0.000000
    3.1 A               5244434.800000     0.005688    0.001860   -0.002159   -0.000346    0.000294   -0.000133
                                           0.000061    0.000110   -0.000144   -0.000182    0.000000
    4.1 A               1993947.300000     0.005833    0.001897   -0.002226   -0.000357    0.000304   -0.000137
                                           0.000063    0.000114   -0.000148   -0.000188    0.000000
    5.1 A                831464.670000     0.012471    0.004046   -0.004768   -0.000766    0.000651   -0.000294
                                           0.000135    0.000243   -0.000318   -0.000402    0.000000
    6.1 A                367473.800000     0.015337    0.004923   -0.005922   -0.000954    0.000810   -0.000366
                                           0.000168    0.000303   -0.000396   -0.000502    0.000000
    7.1 A                170948.980000     0.027802    0.008860   -0.010807   -0.001745    0.001481   -0.000669
                                           0.000307    0.000553   -0.000723   -0.000913    0.000000
    8.1 A                 82498.208000     0.037893    0.011845   -0.014983   -0.002432    0.002060   -0.000931
                                           0.000428    0.000771   -0.001008   -0.001281    0.000000
    9.1 A                 41068.557000     0.063446    0.019489   -0.025472   -0.004156    0.003514   -0.001588
                                           0.000730    0.001312   -0.001713   -0.002158    0.000000
   10.1 A                 20931.097000     0.090970    0.026964   -0.037612   -0.006192    0.005220   -0.002360
                                           0.001084    0.001959   -0.002562   -0.003271    0.000000
   11.1 A                 10881.858000     0.141353    0.040137   -0.060450   -0.010069    0.008456   -0.003823
                                           0.001756    0.003150   -0.004109   -0.005142    0.000000
                           5751.850200     0.192150    0.050328   -0.087023   -0.014758    0.012320   -0.005570
                                           0.002559    0.004641   -0.006081   -0.007843    0.000000
                           3085.413800     0.245625    0.057494   -0.119370   -0.020746    0.017180   -0.007769
                                           0.003568    0.006365   -0.008281   -0.010186    0.000000
                           1676.302600     0.236828    0.048791   -0.122988   -0.021795    0.017936   -0.008112
                                           0.003728    0.006861   -0.009046   -0.012129    0.000000
                            920.364860     0.144288    0.051386   -0.045258   -0.005640    0.005268   -0.002373
                                           0.001085    0.001652   -0.001974   -0.001042    0.000000
                            507.302700    -0.025759    0.115725    0.203246    0.056561   -0.041187    0.018724
                                          -0.008598   -0.014902    0.019190    0.021482    0.000000
                            285.301180    -0.127248    0.207489    0.548666    0.172341   -0.122683    0.055908
                                          -0.025737   -0.047910    0.063712    0.088054    0.000000
                            162.083520    -0.106345    0.166212    0.606264    0.222723   -0.155054    0.070944
                                          -0.032607   -0.056240    0.072273    0.078654    0.000000
                             92.502257    -0.075897    0.111536    0.036795   -0.036386    0.019294   -0.009062
                                           0.004086    0.001475    0.001168    0.030443    0.000000
                             54.996696    -0.159518    0.199400   -0.676887   -0.645265    0.447335   -0.211910
                                           0.098395    0.193270   -0.267108   -0.419400    0.000000
                             32.498055    -0.126680    0.162427   -0.590845   -0.685716    0.477369   -0.227312
                                           0.105023    0.171409   -0.214999   -0.161690    0.000000
                             19.139224    -0.031866    0.038627   -0.102127    0.187644   -0.152132    0.072681
                                          -0.032972   -0.027495    0.028200   -0.136514    0.000000
                             11.382710     0.001867    0.000895    0.103491    0.862021   -0.976205    0.547811
                                          -0.263192   -0.581563    0.872312    1.708580    0.000000
                              6.786052     0.000710   -0.001446    0.057992    0.445035   -0.716251    0.417708
                                          -0.198179   -0.257965    0.233684   -0.803168    0.000000
                              4.149622     0.000624    0.000224    0.007493    0.066545    0.448492   -0.350229
                                           0.170540    0.219139   -0.310498    1.111350    0.000000
                              2.398648    -0.000456    0.000036    0.000333    0.014140    0.872214   -0.849732
                                           0.456257    1.306370   -2.312230   -7.677220    0.000000
                              1.389239     0.000090    0.000196   -0.000539    0.002102    0.319316   -0.431871
                                           0.230358    0.273179    0.312923   10.897300    0.000000
                              0.799685    -0.000092   -0.000045    0.000120    0.000488    0.047531    0.436228
                                          -0.277578   -1.772950    4.829150   -2.756210    0.000000
                              0.427327     0.000032    0.000027   -0.000069   -0.000720    0.030738    0.715435
                                          -0.561943   -0.897998   -3.625440   -6.603630    0.000000
                              0.220940    -0.000014   -0.000008    0.000023   -0.000086    0.010089    0.233487
                                          -0.326569    1.531090   -1.220420    6.760400    0.000000
                              0.086038     0.000004    0.000003   -0.000008   -0.000060    0.001152    0.063336
                                           0.301677    1.025940    2.677810   -2.145480    0.000000
                              0.041219    -0.000002   -0.000001    0.000004   -0.000044    0.001537    0.118995
                                           0.692734   -0.772162   -0.536170   -1.021350    0.000000
                              0.018781     0.000001    0.000000   -0.000001   -0.000024    0.000590    0.043903
                                           0.253879   -0.484754   -0.805222    1.252960    1.000000
   12.1 A     1  2px   52575799.000000     0.000013
                       15301659.000000     0.000017
                        4822461.600000     0.000052
                        1632045.600000     0.000107
                         584338.640000     0.000256
                         219508.320000     0.000572
                          86085.039000     0.001336
                          35172.956000     0.003129
                          14975.745000     0.007503
                           6652.821900     0.017986
                           3084.270200     0.042103
                           1489.211300     0.090969
                            745.288670     0.167976
                            384.521300     0.234709
                            203.927220     0.220200
                            110.523340     0.174708
                             61.345569     0.190642
                             34.404375     0.137246
                             19.094147     0.033402
                             10.684628    -0.000867
                              5.931463    -0.000935
                              3.230992    -0.000009
                              1.730655     0.000164
                              0.869483     0.000022
                              0.440589     0.000009
                              0.215859    -0.000000
                              0.091015     0.000001
                              0.040174    -0.000000
                              0.017215     0.000000
   13.1 A     1  2py   52575799.000000     0.000013
                       15301659.000000     0.000017
                        4822461.600000     0.000052
                        1632045.600000     0.000107
                         584338.640000     0.000256
                         219508.320000     0.000572
                          86085.039000     0.001336
                          35172.956000     0.003129
                          14975.745000     0.007503
                           6652.821900     0.017986
                           3084.270200     0.042103
                           1489.211300     0.090969
                            745.288670     0.167976
                            384.521300     0.234709
                            203.927220     0.220200
                            110.523340     0.174708
                             61.345569     0.190642
                             34.404375     0.137246
                             19.094147     0.033402
                             10.684628    -0.000867
                              5.931463    -0.000935
                              3.230992    -0.000009
                              1.730655     0.000164
                              0.869483     0.000022
                              0.440589     0.000009
                              0.215859    -0.000000
                              0.091015     0.000001
                              0.040174    -0.000000
                              0.017215     0.000000
   14.1 A     1  2pz   52575799.000000     0.000013
                       15301659.000000     0.000017
                        4822461.600000     0.000052
                        1632045.600000     0.000107
                         584338.640000     0.000256
                         219508.320000     0.000572
                          86085.039000     0.001336
                          35172.956000     0.003129
                          14975.745000     0.007503
                           6652.821900     0.017986
                           3084.270200     0.042103
                           1489.211300     0.090969
                            745.288670     0.167976
                            384.521300     0.234709
                            203.927220     0.220200
                            110.523340     0.174708
                             61.345569     0.190642
                             34.404375     0.137246
                             19.094147     0.033402
                             10.684628    -0.000867
                              5.931463    -0.000935
                              3.230992    -0.000009
                              1.730655     0.000164
                              0.869483     0.000022
                              0.440589     0.000009
                              0.215859    -0.000000
                              0.091015     0.000001
                              0.040174    -0.000000
                              0.017215     0.000000
   15.1 A     1  2px   52575799.000000    -0.000015
                       15301659.000000    -0.000020
                        4822461.600000    -0.000063
                        1632045.600000    -0.000128
                         584338.640000    -0.000307
                         219508.320000    -0.000688
                          86085.039000    -0.001611
                          35172.956000    -0.003789
                          14975.745000    -0.009145
                           6652.821900    -0.022135
                           3084.270200    -0.052666
                           1489.211300    -0.116756
                            745.288670    -0.223673
                            384.521300    -0.322150
                            203.927220    -0.236330
                            110.523340     0.145050
                             61.345569     0.527334
                             34.404375     0.400957
                             19.094147     0.019469
                             10.684628    -0.122609
                              5.931463    -0.050931
                              3.230992    -0.002720
                              1.730655     0.002231
                              0.869483     0.000423
                              0.440589     0.000084
                              0.215859     0.000018
                              0.091015     0.000006
                              0.040174    -0.000002
                              0.017215     0.000001
   16.1 A     1  2py   52575799.000000    -0.000015
                       15301659.000000    -0.000020
                        4822461.600000    -0.000063
                        1632045.600000    -0.000128
                         584338.640000    -0.000307
                         219508.320000    -0.000688
                          86085.039000    -0.001611
                          35172.956000    -0.003789
                          14975.745000    -0.009145
                           6652.821900    -0.022135
                           3084.270200    -0.052666
                           1489.211300    -0.116756
                            745.288670    -0.223673
                            384.521300    -0.322150
                            203.927220    -0.236330
                            110.523340     0.145050
                             61.345569     0.527334
                             34.404375     0.400957
                             19.094147     0.019469
                             10.684628    -0.122609
                              5.931463    -0.050931
                              3.230992    -0.002720
                              1.730655     0.002231
                              0.869483     0.000423
                              0.440589     0.000084
                              0.215859     0.000018
                              0.091015     0.000006
                              0.040174    -0.000002
                              0.017215     0.000001
   17.1 A     1  2pz   52575799.000000    -0.000015
                       15301659.000000    -0.000020
                        4822461.600000    -0.000063
                        1632045.600000    -0.000128
                         584338.640000    -0.000307
                         219508.320000    -0.000688
                          86085.039000    -0.001611
                          35172.956000    -0.003789
                          14975.745000    -0.009145
                           6652.821900    -0.022135
                           3084.270200    -0.052666
                           1489.211300    -0.116756
                            745.288670    -0.223673
                            384.521300    -0.322150
                            203.927220    -0.236330
                            110.523340     0.145050
                             61.345569     0.527334
                             34.404375     0.400957
                             19.094147     0.019469
                             10.684628    -0.122609
                              5.931463    -0.050931
                              3.230992    -0.002720
                              1.730655     0.002231
                              0.869483     0.000423
                              0.440589     0.000084
                              0.215859     0.000018
                              0.091015     0.000006
                              0.040174    -0.000002
                              0.017215     0.000001
   18.1 A     1  2px   52575799.000000     0.000002
                       15301659.000000     0.000002
                        4822461.600000     0.000007
                        1632045.600000     0.000015
                         584338.640000     0.000036
                         219508.320000     0.000081
                          86085.039000     0.000191
                          35172.956000     0.000452
                          14975.745000     0.001103
                           6652.821900     0.002719
                           3084.270200     0.006655
                           1489.211300     0.015415
                            745.288670     0.031304
                            384.521300     0.047289
                            203.927220     0.017930
                            110.523340    -0.123036
                             61.345569    -0.327485
                             34.404375    -0.190153
                             19.094147     0.365341
                             10.684628     0.614487
                              5.931463     0.253665
                              3.230992     0.025247
                              1.730655     0.001457
                              0.869483    -0.000189
                              0.440589     0.000178
                              0.215859    -0.000001
                              0.091015     0.000034
                              0.040174    -0.000010
                              0.017215     0.000003
   19.1 A     1  2py   52575799.000000     0.000002
                       15301659.000000     0.000002
                        4822461.600000     0.000007
                        1632045.600000     0.000015
                         584338.640000     0.000036
                         219508.320000     0.000081
                          86085.039000     0.000191
                          35172.956000     0.000452
                          14975.745000     0.001103
                           6652.821900     0.002719
                           3084.270200     0.006655
                           1489.211300     0.015415
                            745.288670     0.031304
                            384.521300     0.047289
                            203.927220     0.017930
                            110.523340    -0.123036
                             61.345569    -0.327485
                             34.404375    -0.190153
                             19.094147     0.365341
                             10.684628     0.614487
                              5.931463     0.253665
                              3.230992     0.025247
                              1.730655     0.001457
                              0.869483    -0.000189
                              0.440589     0.000178
                              0.215859    -0.000001
                              0.091015     0.000034
                              0.040174    -0.000010
                              0.017215     0.000003
   20.1 A     1  2pz   52575799.000000     0.000002
                       15301659.000000     0.000002
                        4822461.600000     0.000007
                        1632045.600000     0.000015
                         584338.640000     0.000036
                         219508.320000     0.000081
                          86085.039000     0.000191
                          35172.956000     0.000452
                          14975.745000     0.001103
                           6652.821900     0.002719
                           3084.270200     0.006655
                           1489.211300     0.015415
                            745.288670     0.031304
                            384.521300     0.047289
                            203.927220     0.017930
                            110.523340    -0.123036
                             61.345569    -0.327485
                             34.404375    -0.190153
                             19.094147     0.365341
                             10.684628     0.614487
                              5.931463     0.253665
                              3.230992     0.025247
                              1.730655     0.001457
                              0.869483    -0.000189
                              0.440589     0.000178
                              0.215859    -0.000001
                              0.091015     0.000034
                              0.040174    -0.000010
                              0.017215     0.000003
   21.1 A     1  2px   52575799.000000    -0.000002
                       15301659.000000    -0.000003
                        4822461.600000    -0.000009
                        1632045.600000    -0.000018
                         584338.640000    -0.000043
                         219508.320000    -0.000097
                          86085.039000    -0.000228
                          35172.956000    -0.000537
                          14975.745000    -0.001302
                           6652.821900    -0.003177
                           3084.270200    -0.007652
                           1489.211300    -0.017311
                            745.288670    -0.034068
                            384.521300    -0.050256
                            203.927220    -0.027762
                            110.523340     0.078094
                             61.345569     0.225253
                             34.404375     0.124053
                             19.094147    -0.273486
                             10.684628    -0.553839
                              5.931463    -0.065277
                              3.230992     0.618524
                              1.730655     0.501044
                              0.869483     0.107343
                              0.440589     0.023201
                              0.215859     0.014691
                              0.091015     0.001511
                              0.040174     0.000132
                              0.017215    -0.000015
   22.1 A     1  2py   52575799.000000    -0.000002
                       15301659.000000    -0.000003
                        4822461.600000    -0.000009
                        1632045.600000    -0.000018
                         584338.640000    -0.000043
                         219508.320000    -0.000097
                          86085.039000    -0.000228
                          35172.956000    -0.000537
                          14975.745000    -0.001302
                           6652.821900    -0.003177
                           3084.270200    -0.007652
                           1489.211300    -0.017311
                            745.288670    -0.034068
                            384.521300    -0.050256
                            203.927220    -0.027762
                            110.523340     0.078094
                             61.345569     0.225253
                             34.404375     0.124053
                             19.094147    -0.273486
                             10.684628    -0.553839
                              5.931463    -0.065277
                              3.230992     0.618524
                              1.730655     0.501044
                              0.869483     0.107343
                              0.440589     0.023201
                              0.215859     0.014691
                              0.091015     0.001511
                              0.040174     0.000132
                              0.017215    -0.000015
   23.1 A     1  2pz   52575799.000000    -0.000002
                       15301659.000000    -0.000003
                        4822461.600000    -0.000009
                        1632045.600000    -0.000018
                         584338.640000    -0.000043
                         219508.320000    -0.000097
                          86085.039000    -0.000228
                          35172.956000    -0.000537
                          14975.745000    -0.001302
                           6652.821900    -0.003177
                           3084.270200    -0.007652
                           1489.211300    -0.017311
                            745.288670    -0.034068
                            384.521300    -0.050256
                            203.927220    -0.027762
                            110.523340     0.078094
                             61.345569     0.225253
                             34.404375     0.124053
                             19.094147    -0.273486
                             10.684628    -0.553839
                              5.931463    -0.065277
                              3.230992     0.618524
                              1.730655     0.501044
                              0.869483     0.107343
                              0.440589     0.023201
                              0.215859     0.014691
                              0.091015     0.001511
                              0.040174     0.000132
                              0.017215    -0.000015
   24.1 A     1  2px   52575799.000000     0.000001
                       15301659.000000     0.000001
                        4822461.600000     0.000004
                        1632045.600000     0.000008
                         584338.640000     0.000019
                         219508.320000     0.000043
                          86085.039000     0.000102
                          35172.956000     0.000240
                          14975.745000     0.000583
                           6652.821900     0.001422
                           3084.270200     0.003426
                           1489.211300     0.007745
                            745.288670     0.015249
                            384.521300     0.022470
                            203.927220     0.012451
                            110.523340    -0.035134
                             61.345569    -0.101385
                             34.404375    -0.055104
                             19.094147     0.131617
                             10.684628     0.274237
                              5.931463     0.008683
                              3.230992    -0.421618
                              1.730655    -0.381893
                              0.869483     0.226214
                              0.440589     0.602150
                              0.215859     0.367232
                              0.091015     0.055939
                              0.040174    -0.001129
                              0.017215     0.001121
   25.1 A     1  2py   52575799.000000     0.000001
                       15301659.000000     0.000001
                        4822461.600000     0.000004
                        1632045.600000     0.000008
                         584338.640000     0.000019
                         219508.320000     0.000043
                          86085.039000     0.000102
                          35172.956000     0.000240
                          14975.745000     0.000583
                           6652.821900     0.001422
                           3084.270200     0.003426
                           1489.211300     0.007745
                            745.288670     0.015249
                            384.521300     0.022470
                            203.927220     0.012451
                            110.523340    -0.035134
                             61.345569    -0.101385
                             34.404375    -0.055104
                             19.094147     0.131617
                             10.684628     0.274237
                              5.931463     0.008683
                              3.230992    -0.421618
                              1.730655    -0.381893
                              0.869483     0.226214
                              0.440589     0.602150
                              0.215859     0.367232
                              0.091015     0.055939
                              0.040174    -0.001129
                              0.017215     0.001121
   26.1 A     1  2pz   52575799.000000     0.000001
                       15301659.000000     0.000001
                        4822461.600000     0.000004
                        1632045.600000     0.000008
                         584338.640000     0.000019
                         219508.320000     0.000043
                          86085.039000     0.000102
                          35172.956000     0.000240
                          14975.745000     0.000583
                           6652.821900     0.001422
                           3084.270200     0.003426
                           1489.211300     0.007745
                            745.288670     0.015249
                            384.521300     0.022470
                            203.927220     0.012451
                            110.523340    -0.035134
                             61.345569    -0.101385
                             34.404375    -0.055104
                             19.094147     0.131617
                             10.684628     0.274237
                              5.931463     0.008683
                              3.230992    -0.421618
                              1.730655    -0.381893
                              0.869483     0.226214
                              0.440589     0.602150
                              0.215859     0.367232
                              0.091015     0.055939
                              0.040174    -0.001129
                              0.017215     0.001121
   27.1 A     1  2px   52575799.000000    -0.000000
                       15301659.000000    -0.000000
                        4822461.600000    -0.000001
                        1632045.600000    -0.000002
                         584338.640000    -0.000005
                         219508.320000    -0.000010
                          86085.039000    -0.000024
                          35172.956000    -0.000058
                          14975.745000    -0.000140
                           6652.821900    -0.000342
                           3084.270200    -0.000823
                           1489.211300    -0.001861
                            745.288670    -0.003664
                            384.521300    -0.005398
                            203.927220    -0.002991
                            110.523340     0.008482
                             61.345569     0.024454
                             34.404375     0.013272
                             19.094147    -0.032305
                             10.684628    -0.067432
                              5.931463    -0.001366
                              3.230992     0.110673
                              1.730655     0.103187
                              0.869483    -0.077840
                              0.440589    -0.217735
                              0.215859    -0.188345
                              0.091015     0.201020
                              0.040174     0.637069
                              0.017215     0.326669
   28.1 A     1  2py   52575799.000000    -0.000000
                       15301659.000000    -0.000000
                        4822461.600000    -0.000001
                        1632045.600000    -0.000002
                         584338.640000    -0.000005
                         219508.320000    -0.000010
                          86085.039000    -0.000024
                          35172.956000    -0.000058
                          14975.745000    -0.000140
                           6652.821900    -0.000342
                           3084.270200    -0.000823
                           1489.211300    -0.001861
                            745.288670    -0.003664
                            384.521300    -0.005398
                            203.927220    -0.002991
                            110.523340     0.008482
                             61.345569     0.024454
                             34.404375     0.013272
                             19.094147    -0.032305
                             10.684628    -0.067432
                              5.931463    -0.001366
                              3.230992     0.110673
                              1.730655     0.103187
                              0.869483    -0.077840
                              0.440589    -0.217735
                              0.215859    -0.188345
                              0.091015     0.201020
                              0.040174     0.637069
                              0.017215     0.326669
   29.1 A     1  2pz   52575799.000000    -0.000000
                       15301659.000000    -0.000000
                        4822461.600000    -0.000001
                        1632045.600000    -0.000002
                         584338.640000    -0.000005
                         219508.320000    -0.000010
                          86085.039000    -0.000024
                          35172.956000    -0.000058
                          14975.745000    -0.000140
                           6652.821900    -0.000342
                           3084.270200    -0.000823
                           1489.211300    -0.001861
                            745.288670    -0.003664
                            384.521300    -0.005398
                            203.927220    -0.002991
                            110.523340     0.008482
                             61.345569     0.024454
                             34.404375     0.013272
                             19.094147    -0.032305
                             10.684628    -0.067432
                              5.931463    -0.001366
                              3.230992     0.110673
                              1.730655     0.103187
                              0.869483    -0.077840
                              0.440589    -0.217735
                              0.215859    -0.188345
                              0.091015     0.201020
                              0.040174     0.637069
                              0.017215     0.326669
   30.1 A     1  2px   52575799.000000    -0.000001
                       15301659.000000    -0.000001
                        4822461.600000    -0.000003
                        1632045.600000    -0.000005
                         584338.640000    -0.000013
                         219508.320000    -0.000028
                          86085.039000    -0.000066
                          35172.956000    -0.000156
                          14975.745000    -0.000379
                           6652.821900    -0.000925
                           3084.270200    -0.002224
                           1489.211300    -0.005040
                            745.288670    -0.009895
                            384.521300    -0.014653
                            203.927220    -0.007970
                            110.523340     0.022757
                             61.345569     0.067049
                             34.404375     0.034635
                             19.094147    -0.086605
                             10.684628    -0.190567
                              5.931463     0.011210
                              3.230992     0.295370
                              1.730655     0.357708
                              0.869483    -0.483437
                              0.440589    -0.603385
                              0.215859     0.215887
                              0.091015     0.715465
                              0.040174     0.271767
                              0.017215     0.004114
   31.1 A     1  2py   52575799.000000    -0.000001
                       15301659.000000    -0.000001
                        4822461.600000    -0.000003
                        1632045.600000    -0.000005
                         584338.640000    -0.000013
                         219508.320000    -0.000028
                          86085.039000    -0.000066
                          35172.956000    -0.000156
                          14975.745000    -0.000379
                           6652.821900    -0.000925
                           3084.270200    -0.002224
                           1489.211300    -0.005040
                            745.288670    -0.009895
                            384.521300    -0.014653
                            203.927220    -0.007970
                            110.523340     0.022757
                             61.345569     0.067049
                             34.404375     0.034635
                             19.094147    -0.086605
                             10.684628    -0.190567
                              5.931463     0.011210
                              3.230992     0.295370
                              1.730655     0.357708
                              0.869483    -0.483437
                              0.440589    -0.603385
                              0.215859     0.215887
                              0.091015     0.715465
                              0.040174     0.271767
                              0.017215     0.004114
   32.1 A     1  2pz   52575799.000000    -0.000001
                       15301659.000000    -0.000001
                        4822461.600000    -0.000003
                        1632045.600000    -0.000005
                         584338.640000    -0.000013
                         219508.320000    -0.000028
                          86085.039000    -0.000066
                          35172.956000    -0.000156
                          14975.745000    -0.000379
                           6652.821900    -0.000925
                           3084.270200    -0.002224
                           1489.211300    -0.005040
                            745.288670    -0.009895
                            384.521300    -0.014653
                            203.927220    -0.007970
                            110.523340     0.022757
                             61.345569     0.067049
                             34.404375     0.034635
                             19.094147    -0.086605
                             10.684628    -0.190567
                              5.931463     0.011210
                              3.230992     0.295370
                              1.730655     0.357708
                              0.869483    -0.483437
                              0.440589    -0.603385
                              0.215859     0.215887
                              0.091015     0.715465
                              0.040174     0.271767
                              0.017215     0.004114
   33.1 A     1  2px   52575799.000000    -0.000001
                       15301659.000000    -0.000001
                        4822461.600000    -0.000004
                        1632045.600000    -0.000009
                         584338.640000    -0.000021
                         219508.320000    -0.000047
                          86085.039000    -0.000111
                          35172.956000    -0.000263
                          14975.745000    -0.000636
                           6652.821900    -0.001554
                           3084.270200    -0.003739
                           1489.211300    -0.008475
                            745.288670    -0.016642
                            384.521300    -0.024644
                            203.927220    -0.013367
                            110.523340     0.038637
                             61.345569     0.114090
                             34.404375     0.057493
                             19.094147    -0.152735
                             10.684628    -0.335275
                              5.931463     0.054116
                              3.230992     0.556566
                              1.730655     0.705542
                              0.869483    -1.835570
                              0.440589    -0.012121
                              0.215859     1.665730
                              0.091015    -0.585220
                              0.040174    -0.541179
                              0.017215     0.007323
   34.1 A     1  2py   52575799.000000    -0.000001
                       15301659.000000    -0.000001
                        4822461.600000    -0.000004
                        1632045.600000    -0.000009
                         584338.640000    -0.000021
                         219508.320000    -0.000047
                          86085.039000    -0.000111
                          35172.956000    -0.000263
                          14975.745000    -0.000636
                           6652.821900    -0.001554
                           3084.270200    -0.003739
                           1489.211300    -0.008475
                            745.288670    -0.016642
                            384.521300    -0.024644
                            203.927220    -0.013367
                            110.523340     0.038637
                             61.345569     0.114090
                             34.404375     0.057493
                             19.094147    -0.152735
                             10.684628    -0.335275
                              5.931463     0.054116
                              3.230992     0.556566
                              1.730655     0.705542
                              0.869483    -1.835570
                              0.440589    -0.012121
                              0.215859     1.665730
                              0.091015    -0.585220
                              0.040174    -0.541179
                              0.017215     0.007323
   35.1 A     1  2pz   52575799.000000    -0.000001
                       15301659.000000    -0.000001
                        4822461.600000    -0.000004
                        1632045.600000    -0.000009
                         584338.640000    -0.000021
                         219508.320000    -0.000047
                          86085.039000    -0.000111
                          35172.956000    -0.000263
                          14975.745000    -0.000636
                           6652.821900    -0.001554
                           3084.270200    -0.003739
                           1489.211300    -0.008475
                            745.288670    -0.016642
                            384.521300    -0.024644
                            203.927220    -0.013367
                            110.523340     0.038637
                             61.345569     0.114090
                             34.404375     0.057493
                             19.094147    -0.152735
                             10.684628    -0.335275
                              5.931463     0.054116
                              3.230992     0.556566
                              1.730655     0.705542
                              0.869483    -1.835570
                              0.440589    -0.012121
                              0.215859     1.665730
                              0.091015    -0.585220
                              0.040174    -0.541179
                              0.017215     0.007323
   36.1 A     1  2px   52575799.000000    -0.000001
                       15301659.000000    -0.000002
                        4822461.600000    -0.000006
                        1632045.600000    -0.000012
                         584338.640000    -0.000030
                         219508.320000    -0.000066
                          86085.039000    -0.000157
                          35172.956000    -0.000360
                          14975.745000    -0.000908
                           6652.821900    -0.002110
                           3084.270200    -0.005394
                           1489.211300    -0.011352
                            745.288670    -0.024563
                            384.521300    -0.031084
                            203.927220    -0.026677
                            110.523340     0.074398
                             61.345569     0.122621
                             34.404375     0.158055
                             19.094147    -0.396610
                             10.684628    -0.217370
                              5.931463    -0.310283
                              3.230992     1.975310
                              1.730655    -0.901781
                              0.869483    -2.796670
                              0.440589     4.376690
                              0.215859    -2.312120
                              0.091015    -0.328877
                              0.040174     0.867979
                              0.017215    -0.037454
   37.1 A     1  2py   52575799.000000    -0.000001
                       15301659.000000    -0.000002
                        4822461.600000    -0.000006
                        1632045.600000    -0.000012
                         584338.640000    -0.000030
                         219508.320000    -0.000066
                          86085.039000    -0.000157
                          35172.956000    -0.000360
                          14975.745000    -0.000908
                           6652.821900    -0.002110
                           3084.270200    -0.005394
                           1489.211300    -0.011352
                            745.288670    -0.024563
                            384.521300    -0.031084
                            203.927220    -0.026677
                            110.523340     0.074398
                             61.345569     0.122621
                             34.404375     0.158055
                             19.094147    -0.396610
                             10.684628    -0.217370
                              5.931463    -0.310283
                              3.230992     1.975310
                              1.730655    -0.901781
                              0.869483    -2.796670
                              0.440589     4.376690
                              0.215859    -2.312120
                              0.091015    -0.328877
                              0.040174     0.867979
                              0.017215    -0.037454
   38.1 A     1  2pz   52575799.000000    -0.000001
                       15301659.000000    -0.000002
                        4822461.600000    -0.000006
                        1632045.600000    -0.000012
                         584338.640000    -0.000030
                         219508.320000    -0.000066
                          86085.039000    -0.000157
                          35172.956000    -0.000360
                          14975.745000    -0.000908
                           6652.821900    -0.002110
                           3084.270200    -0.005394
                           1489.211300    -0.011352
                            745.288670    -0.024563
                            384.521300    -0.031084
                            203.927220    -0.026677
                            110.523340     0.074398
                             61.345569     0.122621
                             34.404375     0.158055
                             19.094147    -0.396610
                             10.684628    -0.217370
                              5.931463    -0.310283
                              3.230992     1.975310
                              1.730655    -0.901781
                              0.869483    -2.796670
                              0.440589     4.376690
                              0.215859    -2.312120
                              0.091015    -0.328877
                              0.040174     0.867979
                              0.017215    -0.037454
   39.1 A     1  2px   52575799.000000     0.000000
                       15301659.000000     0.000000
                        4822461.600000     0.000000
                        1632045.600000     0.000000
                         584338.640000     0.000000
                         219508.320000     0.000000
                          86085.039000     0.000000
                          35172.956000     0.000000
                          14975.745000     0.000000
                           6652.821900     0.000000
                           3084.270200     0.000000
                           1489.211300     0.000000
                            745.288670     0.000000
                            384.521300     0.000000
                            203.927220     0.000000
                            110.523340     0.000000
                             61.345569     0.000000
                             34.404375     0.000000
                             19.094147     0.000000
                             10.684628     0.000000
                              5.931463     0.000000
                              3.230992     0.000000
                              1.730655     0.000000
                              0.869483     0.000000
                              0.440589     0.000000
                              0.215859     0.000000
                              0.091015     0.000000
                              0.040174     0.000000
                              0.017215     1.000000
   40.1 A     1  2py   52575799.000000     0.000000
                       15301659.000000     0.000000
                        4822461.600000     0.000000
                        1632045.600000     0.000000
                         584338.640000     0.000000
                         219508.320000     0.000000
                          86085.039000     0.000000
                          35172.956000     0.000000
                          14975.745000     0.000000
                           6652.821900     0.000000
                           3084.270200     0.000000
                           1489.211300     0.000000
                            745.288670     0.000000
                            384.521300     0.000000
                            203.927220     0.000000
                            110.523340     0.000000
                             61.345569     0.000000
                             34.404375     0.000000
                             19.094147     0.000000
                             10.684628     0.000000
                              5.931463     0.000000
                              3.230992     0.000000
                              1.730655     0.000000
                              0.869483     0.000000
                              0.440589     0.000000
                              0.215859     0.000000
                              0.091015     0.000000
                              0.040174     0.000000
                              0.017215     1.000000
   41.1 A     1  2pz   52575799.000000     0.000000
                       15301659.000000     0.000000
                        4822461.600000     0.000000
                        1632045.600000     0.000000
                         584338.640000     0.000000
                         219508.320000     0.000000
                          86085.039000     0.000000
                          35172.956000     0.000000
                          14975.745000     0.000000
                           6652.821900     0.000000
                           3084.270200     0.000000
                           1489.211300     0.000000
                            745.288670     0.000000
                            384.521300     0.000000
                            203.927220     0.000000
                            110.523340     0.000000
                             61.345569     0.000000
                             34.404375     0.000000
                             19.094147     0.000000
                             10.684628     0.000000
                              5.931463     0.000000
                              3.230992     0.000000
                              1.730655     0.000000
                              0.869483     0.000000
                              0.440589     0.000000
                              0.215859     0.000000
                              0.091015     0.000000
                              0.040174     0.000000
                              0.017215     1.000000
   42.1 A     1  3d0     105911.200000     0.000020
                          24974.572000     0.000129
                           8108.852700     0.000677
                           3150.520500     0.003052
                           1380.647900     0.011950
                            658.188950     0.039706
                            332.909040     0.108875
                            176.023220     0.231727
                             95.780704     0.354949
                             53.337287     0.336096
                             29.864821     0.140603
                             16.526778    -0.033742
                              9.155323    -0.064042
                              4.984876    -0.024095
                              2.636633    -0.002233
                              1.354062     0.000305
                              0.656031     0.000103
                              0.269853     0.000008
                              0.103443     0.000000
                              0.036685     0.000000
   43.1 A     1  3d2-    105911.200000     0.000020
                          24974.572000     0.000129
                           8108.852700     0.000677
                           3150.520500     0.003052
                           1380.647900     0.011950
                            658.188950     0.039706
                            332.909040     0.108875
                            176.023220     0.231727
                             95.780704     0.354949
                             53.337287     0.336096
                             29.864821     0.140603
                             16.526778    -0.033742
                              9.155323    -0.064042
                              4.984876    -0.024095
                              2.636633    -0.002233
                              1.354062     0.000305
                              0.656031     0.000103
                              0.269853     0.000008
                              0.103443     0.000000
                              0.036685     0.000000
   44.1 A     1  3d1+    105911.200000     0.000020
                          24974.572000     0.000129
                           8108.852700     0.000677
                           3150.520500     0.003052
                           1380.647900     0.011950
                            658.188950     0.039706
                            332.909040     0.108875
                            176.023220     0.231727
                             95.780704     0.354949
                             53.337287     0.336096
                             29.864821     0.140603
                             16.526778    -0.033742
                              9.155323    -0.064042
                              4.984876    -0.024095
                              2.636633    -0.002233
                              1.354062     0.000305
                              0.656031     0.000103
                              0.269853     0.000008
                              0.103443     0.000000
                              0.036685     0.000000
   45.1 A     1  3d2+    105911.200000     0.000020
                          24974.572000     0.000129
                           8108.852700     0.000677
                           3150.520500     0.003052
                           1380.647900     0.011950
                            658.188950     0.039706
                            332.909040     0.108875
                            176.023220     0.231727
                             95.780704     0.354949
                             53.337287     0.336096
                             29.864821     0.140603
                             16.526778    -0.033742
                              9.155323    -0.064042
                              4.984876    -0.024095
                              2.636633    -0.002233
                              1.354062     0.000305
                              0.656031     0.000103
                              0.269853     0.000008
                              0.103443     0.000000
                              0.036685     0.000000
   46.1 A     1  3d1-    105911.200000     0.000020
                          24974.572000     0.000129
                           8108.852700     0.000677
                           3150.520500     0.003052
                           1380.647900     0.011950
                            658.188950     0.039706
                            332.909040     0.108875
                            176.023220     0.231727
                             95.780704     0.354949
                             53.337287     0.336096
                             29.864821     0.140603
                             16.526778    -0.033742
                              9.155323    -0.064042
                              4.984876    -0.024095
                              2.636633    -0.002233
                              1.354062     0.000305
                              0.656031     0.000103
                              0.269853     0.000008
                              0.103443     0.000000
                              0.036685     0.000000
   47.1 A     1  3d0     105911.200000    -0.000007
                          24974.572000    -0.000047
                           8108.852700    -0.000246
                           3150.520500    -0.001113
                           1380.647900    -0.004403
                            658.188950    -0.014782
                            332.909040    -0.041545
                            176.023220    -0.089264
                             95.780704    -0.132364
                             53.337287    -0.078125
                             29.864821     0.163137
                             16.526778     0.427766
                              9.155323     0.404323
                              4.984876     0.149842
                              2.636633     0.013528
                              1.354062    -0.001244
                              0.656031    -0.000625
                              0.269853    -0.000007
                              0.103443    -0.000015
                              0.036685     0.000003
   48.1 A     1  3d2-    105911.200000    -0.000007
                          24974.572000    -0.000047
                           8108.852700    -0.000246
                           3150.520500    -0.001113
                           1380.647900    -0.004403
                            658.188950    -0.014782
                            332.909040    -0.041545
                            176.023220    -0.089264
                             95.780704    -0.132364
                             53.337287    -0.078125
                             29.864821     0.163137
                             16.526778     0.427766
                              9.155323     0.404323
                              4.984876     0.149842
                              2.636633     0.013528
                              1.354062    -0.001244
                              0.656031    -0.000625
                              0.269853    -0.000007
                              0.103443    -0.000015
                              0.036685     0.000003
   49.1 A     1  3d1+    105911.200000    -0.000007
                          24974.572000    -0.000047
                           8108.852700    -0.000246
                           3150.520500    -0.001113
                           1380.647900    -0.004403
                            658.188950    -0.014782
                            332.909040    -0.041545
                            176.023220    -0.089264
                             95.780704    -0.132364
                             53.337287    -0.078125
                             29.864821     0.163137
                             16.526778     0.427766
                              9.155323     0.404323
                              4.984876     0.149842
                              2.636633     0.013528
                              1.354062    -0.001244
                              0.656031    -0.000625
                              0.269853    -0.000007
                              0.103443    -0.000015
                              0.036685     0.000003
   50.1 A     1  3d2+    105911.200000    -0.000007
                          24974.572000    -0.000047
                           8108.852700    -0.000246
                           3150.520500    -0.001113
                           1380.647900    -0.004403
                            658.188950    -0.014782
                            332.909040    -0.041545
                            176.023220    -0.089264
                             95.780704    -0.132364
                             53.337287    -0.078125
                             29.864821     0.163137
                             16.526778     0.427766
                              9.155323     0.404323
                              4.984876     0.149842
                              2.636633     0.013528
                              1.354062    -0.001244
                              0.656031    -0.000625
                              0.269853    -0.000007
                              0.103443    -0.000015
                              0.036685     0.000003
   51.1 A     1  3d1-    105911.200000    -0.000007
                          24974.572000    -0.000047
                           8108.852700    -0.000246
                           3150.520500    -0.001113
                           1380.647900    -0.004403
                            658.188950    -0.014782
                            332.909040    -0.041545
                            176.023220    -0.089264
                             95.780704    -0.132364
                             53.337287    -0.078125
                             29.864821     0.163137
                             16.526778     0.427766
                              9.155323     0.404323
                              4.984876     0.149842
                              2.636633     0.013528
                              1.354062    -0.001244
                              0.656031    -0.000625
                              0.269853    -0.000007
                              0.103443    -0.000015
                              0.036685     0.000003
   52.1 A     1  3d0     105911.200000     0.000004
                          24974.572000     0.000029
                           8108.852700     0.000151
                           3150.520500     0.000680
                           1380.647900     0.002694
                            658.188950     0.009015
                            332.909040     0.025311
                            176.023220     0.054175
                             95.780704     0.081018
                             53.337287     0.048855
                             29.864821    -0.090265
                             16.526778    -0.246113
                              9.155323    -0.206236
                              4.984876     0.172306
                              2.636633     0.505507
                              1.354062     0.395599
                              0.656031     0.111489
                              0.269853     0.006247
                              0.103443    -0.000029
                              0.036685    -0.000036
   53.1 A     1  3d2-    105911.200000     0.000004
                          24974.572000     0.000029
                           8108.852700     0.000151
                           3150.520500     0.000680
                           1380.647900     0.002694
                            658.188950     0.009015
                            332.909040     0.025311
                            176.023220     0.054175
                             95.780704     0.081018
                             53.337287     0.048855
                             29.864821    -0.090265
                             16.526778    -0.246113
                              9.155323    -0.206236
                              4.984876     0.172306
                              2.636633     0.505507
                              1.354062     0.395599
                              0.656031     0.111489
                              0.269853     0.006247
                              0.103443    -0.000029
                              0.036685    -0.000036
   54.1 A     1  3d1+    105911.200000     0.000004
                          24974.572000     0.000029
                           8108.852700     0.000151
                           3150.520500     0.000680
                           1380.647900     0.002694
                            658.188950     0.009015
                            332.909040     0.025311
                            176.023220     0.054175
                             95.780704     0.081018
                             53.337287     0.048855
                             29.864821    -0.090265
                             16.526778    -0.246113
                              9.155323    -0.206236
                              4.984876     0.172306
                              2.636633     0.505507
                              1.354062     0.395599
                              0.656031     0.111489
                              0.269853     0.006247
                              0.103443    -0.000029
                              0.036685    -0.000036
   55.1 A     1  3d2+    105911.200000     0.000004
                          24974.572000     0.000029
                           8108.852700     0.000151
                           3150.520500     0.000680
                           1380.647900     0.002694
                            658.188950     0.009015
                            332.909040     0.025311
                            176.023220     0.054175
                             95.780704     0.081018
                             53.337287     0.048855
                             29.864821    -0.090265
                             16.526778    -0.246113
                              9.155323    -0.206236
                              4.984876     0.172306
                              2.636633     0.505507
                              1.354062     0.395599
                              0.656031     0.111489
                              0.269853     0.006247
                              0.103443    -0.000029
                              0.036685    -0.000036
   56.1 A     1  3d1-    105911.200000     0.000004
                          24974.572000     0.000029
                           8108.852700     0.000151
                           3150.520500     0.000680
                           1380.647900     0.002694
                            658.188950     0.009015
                            332.909040     0.025311
                            176.023220     0.054175
                             95.780704     0.081018
                             53.337287     0.048855
                             29.864821    -0.090265
                             16.526778    -0.246113
                              9.155323    -0.206236
                              4.984876     0.172306
                              2.636633     0.505507
                              1.354062     0.395599
                              0.656031     0.111489
                              0.269853     0.006247
                              0.103443    -0.000029
                              0.036685    -0.000036
   57.1 A     1  3d0     105911.200000    -0.000001
                          24974.572000    -0.000008
                           8108.852700    -0.000042
                           3150.520500    -0.000189
                           1380.647900    -0.000746
                            658.188950    -0.002504
                            332.909040    -0.007016
                            176.023220    -0.015063
                             95.780704    -0.022420
                             53.337287    -0.013378
                             29.864821     0.026555
                             16.526778     0.070496
                              9.155323     0.058301
                              4.984876    -0.065834
                              2.636633    -0.177473
                              1.354062    -0.127085
                              0.656031     0.181760
                              0.269853     0.495490
                              0.103443     0.447072
                              0.036685     0.116353
   58.1 A     1  3d2-    105911.200000    -0.000001
                          24974.572000    -0.000008
                           8108.852700    -0.000042
                           3150.520500    -0.000189
                           1380.647900    -0.000746
                            658.188950    -0.002504
                            332.909040    -0.007016
                            176.023220    -0.015063
                             95.780704    -0.022420
                             53.337287    -0.013378
                             29.864821     0.026555
                             16.526778     0.070496
                              9.155323     0.058301
                              4.984876    -0.065834
                              2.636633    -0.177473
                              1.354062    -0.127085
                              0.656031     0.181760
                              0.269853     0.495490
                              0.103443     0.447072
                              0.036685     0.116353
   59.1 A     1  3d1+    105911.200000    -0.000001
                          24974.572000    -0.000008
                           8108.852700    -0.000042
                           3150.520500    -0.000189
                           1380.647900    -0.000746
                            658.188950    -0.002504
                            332.909040    -0.007016
                            176.023220    -0.015063
                             95.780704    -0.022420
                             53.337287    -0.013378
                             29.864821     0.026555
                             16.526778     0.070496
                              9.155323     0.058301
                              4.984876    -0.065834
                              2.636633    -0.177473
                              1.354062    -0.127085
                              0.656031     0.181760
                              0.269853     0.495490
                              0.103443     0.447072
                              0.036685     0.116353
   60.1 A     1  3d2+    105911.200000    -0.000001
                          24974.572000    -0.000008
                           8108.852700    -0.000042
[...]
                                   10 2pz  -0.34991    11 1s   -0.35135    11 2py   0.28278    12 1s    1.96261    12 2px  -0.35967
   81.1     0.00000     0.02957     1 1s   -0.26927     1 1s   -0.85096     1 1s   -3.00719     1 1s   -3.88217     1 1s    2.29650
                                    1 2pz   0.27929     1 2py  -0.72712     1 2pz   1.55793     1 2px  -0.60003     1 2py  -2.55535
                                    1 2pz   4.35374     1 2py   0.36312     1 2px   0.30699     1 2py   1.46594     1 2pz  -2.32574
                                    1 4f2-  0.28170     2 1s    2.57120     2 2px  -0.44874     2 2py  -0.63212     2 2pz   0.47466
                                    3 1s    0.45273     4 1s    0.26289     5 1s    0.29235     5 1s   -0.38805     6 1s    1.25034
                                    6 2px   0.51616     6 2py   0.54814     6 2pz   0.53902     7 1s    1.10329     8 1s   -1.76762
                                    8 2py  -0.32093     8 2pz   0.31773
   82.1     0.00000     0.03596     1 1s   -0.51718     1 1s   -0.48809     1 1s   -0.43636     1 2py  -0.28242     1 2px  -0.25401
                                    1 2py  -1.52311     1 2pz  -0.72689     1 2px  -0.57966     1 2py  -3.40775     1 2pz  -1.48036
                                    1 2py  -0.29691     1 2px   0.73557     1 2py   2.58052     1 2pz   0.66617     1 3d1+  0.33216
                                    1 3d2- -0.27711     1 3d2+  0.26892     1 3d1-  0.30403     2 1s    1.69523     2 2px  -0.28892
                                    2 2py  -0.27773     2 2pz   0.49053     3 1s    0.71033     4 1s    1.42874     4 2px   0.31832
                                    4 2pz  -0.37475     6 1s   -2.06111     6 2px  -0.52457     6 2py  -0.69964     6 2pz  -0.56272
                                    7 1s   -0.78997     8 2px   0.29860     8 2pz  -0.36049     9 1s    0.36647     9 1s    1.58300
                                   10 1s   -0.68000    10 2py  -0.32548    11 1s    1.01916    11 2px  -0.35627    11 2pz  -0.26120
                                   12 1s   -1.00179    12 2px   0.42864
   83.1     0.00000     0.04151     1 1s   -0.54095     1 2px  -1.31124     1 2py   0.45975     1 2pz   0.72951     1 2px  -2.75382
                                    1 2py   1.41762     1 2pz   1.15290     1 2px  -0.35046     1 2pz   0.38021     1 2px   2.67916
                                    1 2py  -1.13593     1 2pz  -0.63479     1 3d1-  0.43455     1 3d2- -0.34845     1 3d1+  0.30281
                                    1 3d2+  0.25784     2 1s    1.67814     2 2py  -0.42396     2 2pz   0.34411     3 1s   -0.25097
                                    3 1s    0.79900     4 1s   -2.05841     4 2px  -0.36588     4 2pz   0.48181     5 1s    0.40865
                                    5 1s    1.58742     6 2py  -0.38306     7 1s   -0.32420     8 2px  -0.32807     8 2py   0.40590
                                    9 1s   -0.27341     9 1s   -1.03592    10 1s    1.67544    10 2py   0.54815    11 1s    1.17332
                                   11 2py  -0.26302    11 2pz  -0.35588    12 1s   -0.74817    12 1s   -2.56307    12 2px  -0.26718
                                   13 1s    0.70860
   84.1     0.00000     0.05103     1 1s    0.47087     1 1s    1.67399     1 1s    2.18345     1 1s   -3.33097     1 2px  -0.32000
                                    1 2pz   0.28380     1 2px  -0.66466     1 2py   0.53637     1 2pz   0.60441     1 2py  -0.35570
                                    1 2px  -0.98560     1 2pz  -2.29945     1 3d0   0.31685     1 3d1-  0.74404     2 1s    0.73173
                                    2 2pz   0.35676     3 1s    0.88511     4 1s   -0.97782     4 2px  -0.26794     5 1s    0.44216
                                    5 1s    2.19985     6 2px  -0.50466     6 2pz  -0.30025     7 1s   -0.63371     7 1s   -2.32224
                                    8 2px   0.42269     8 2py   0.55557    10 1s   -0.86414    10 2px  -0.40119    10 2pz  -0.29704
                                   11 1s   -2.46823    11 2px   0.35266    11 2py   0.33877    11 2pz   0.66167    12 1s    0.77512
                                   12 1s    4.95227    12 2py   0.30514    13 1s   -1.23507    13 2py  -0.27707
   85.1     0.00000     0.05545     1 2pz   0.45265     1 2pz   1.38025     1 2px  -0.28548     1 2px   0.91258     1 2py  -1.17495
                                    1 2pz  -2.57714     1 3d0  -0.41827     1 3d1+  0.75238     1 3d2+ -0.40281     1 3d1-  0.46480
                                    2 1s    1.29789     2 2pz  -0.28523     3 1s   -0.53544     3 1s   -0.38937     4 1s   -0.52978
                                    5 1s   -0.71095     5 1s   -3.54231     7 1s   -0.26674     7 1s   -1.02449     8 1s   -0.41723
                                    8 2py  -0.29612     8 2px   0.36423     8 2py  -0.69319     8 2pz  -0.57225     9 1s    1.25373
                                    9 1s    5.25255     9 2px   0.26578    10 1s    1.25567    10 2px   0.38904    10 2py   0.36358
                                   10 2pz   0.39468    12 1s   -0.29385    12 1s   -2.05711    12 2py   0.30852    12 2pz   0.27108
                                   13 1s    0.37144
   86.1     0.00000     0.06673     1 1s    0.31507     1 1s    1.00214     1 1s    3.73461     1 1s    5.35780     1 1s   -0.45876
                                    1 1s   -0.27421     1 1s  -12.75605     1 2py   0.95665     1 2pz  -0.31520     1 2px  -2.09195
                                    1 2py   3.96576     1 2pz  -2.18645     1 2px   0.89724     1 2py  -0.81289     1 2pz   0.71866
                                    1 2px   2.28604     1 2py   1.23605     1 2pz   1.48319     1 3d0   0.26428     1 3d2+  0.52564
                                    2 1s   -1.53584     3 1s    0.49273     3 1s    1.08541     4 1s   -1.62866     4 2py   0.30167
                                    5 1s   -0.29012     5 1s    1.91344     6 1s   -0.29988     6 1s   -1.92918     6 2py  -0.33065
                                    6 2pz   0.76062     7 1s    1.32275     7 1s    4.66344     7 2py   0.30070     8 1s    1.18068
                                    8 2px   0.54752     8 2py   0.26303     8 2pz  -0.48505     9 1s    1.99911    10 1s   -2.78785
                                   10 2px  -0.72703    10 2py  -0.73919    10 2pz  -0.96700    11 1s   -1.87160    11 2py   0.68493
                                   11 2pz   0.61917    12 1s    0.44030    12 1s    6.47822    12 2px  -0.87511    12 2pz  -0.47260
                                   13 1s   -0.30250
   87.1     0.00000     0.07094     1 1s    0.33181     1 1s    1.13767     1 1s    1.39621     1 1s   -0.36902     1 2px  -0.67502
                                    1 2py  -1.26171     1 2pz   0.59769     1 2px   0.41522     1 2py   0.55139     1 2pz  -0.57080
                                    1 2px   2.02795     1 2py   4.60312     1 2pz  -3.12216     1 3d1+ -0.29947     1 3d2+  0.34578
                                    2 1s    0.32513     2 1s    1.51454     2 2py   0.31866     2 2py   1.30270     2 2pz  -0.70022
                                    3 1s   -1.50961     3 1s   -5.29141     5 1s    0.79926     5 1s    3.30948     8 1s   -0.35381
                                    8 1s   -1.90710     8 2px   0.41676     8 2py   0.44316     9 1s    0.40578     9 1s    0.97093
                                   10 1s   -0.37542    12 1s    0.98675    13 1s   -0.25820
   88.1     0.00000     0.08212     1 1s    0.72631     1 1s    1.02643     1 2px  -0.42774     1 2py  -0.72984     1 2pz   0.88060
                                    1 2px  -2.30386     1 2py  -3.26059     1 2pz   3.63666     1 2px   0.60888     1 2py   0.62526
                                    1 2pz  -0.62574     1 2px   2.17388     1 2py   3.85260     1 2pz  -3.48634     1 3d0   0.71112
                                    1 3d1+  0.33713     1 3d2+ -0.53902     1 3d1- -0.54449     2 1s    0.25576     2 1s    2.63950
                                    2 2px   0.61207     2 2py   0.39159     3 1s   -1.19445     3 1s   -3.30765     3 2py   0.28195
                                    4 2px  -0.29569     5 1s    0.72599     5 1s    1.08342     6 2pz   0.33254     7 1s    0.28865
                                    8 1s   -0.30617     8 1s   -4.09712     8 2py  -0.46481     8 2pz   0.50769     9 1s    1.17781
                                    9 1s    1.20232     9 2pz  -0.25513    10 1s   -0.40812    12 1s    1.18624    12 2px   0.27602
                                   12 2py   0.32298    12 2pz  -0.39222    12 2pz  -0.31161    13 1s   -0.48642    13 2py  -0.27165
                                   13 2pz   0.33693
   89.1     0.00000     0.09941     1 1s   -0.60775     1 1s   -1.92591     1 1s   -6.95496     1 1s   -9.44886     1 1s    3.96242
                                    1 2px   0.36932     1 2px   2.09207     1 2py   0.29864     1 2px   6.45494     1 2py  -0.29442
                                    1 2pz  -1.48924     1 2px  -0.43212     1 2py   0.59655     1 2pz   0.85859     1 2px  -2.21565
                                    1 2py   0.36957     1 2pz   0.44497     1 3d2- -0.47220     1 3d2-  0.28200     1 3d0   0.50987
                                    1 3d2- -2.02306     1 3d1+  0.68769     1 3d1-  0.68829     2 1s    2.16117     2 2px   0.35445
                                    2 2pz   0.67325     3 1s   -0.57894     4 1s    2.47445     4 2py  -0.72501     4 2pz  -0.52823
                                    5 1s    0.70145     5 1s    1.27623     6 1s    0.41744     6 1s    5.07241     6 2px   0.34088
                                    6 2py   0.70013     6 2pz   1.96774     7 1s   -0.80868     7 1s    0.62756     7 2pz  -0.55314
                                    8 1s   -0.38772     8 1s    0.76685     8 2px   0.47797     8 2py   0.94342     8 2pz  -0.61440
                                    9 1s    0.45131     9 1s    0.68491    10 1s    2.15545    10 2px   0.75993    10 2py   0.35285
                                   10 2pz   0.95827    11 1s    0.28539    11 1s    2.38042    11 2py  -0.58343    11 2pz  -0.83141
                                   12 1s   -0.42033    12 1s   -6.57267    12 2px   0.66600    12 2py  -0.45440    12 2px   1.80859
                                   12 2py  -0.57407    12 2pz   0.66429    13 1s   -0.39408    13 1s   -0.76810


 HOMO     79.1    -0.443188 =     -12.0598eV
 LUMO     80.1     0.013918 =       0.3787eV
 LUMO-HOMO         0.457107 =      12.4385eV


 **********************************************************************************************************************************
 DATASETS  * FILE   NREC   LENGTH (MB)   RECORD NAMES
              1      22       62.40       500      610      700      900      950      970     1000      129      960     1700   
                                          VAR    BASINP    GEOM    SYMINP    ZMAT    AOBASIS   BASIS     P2S    ABASIS    OPER   
                                         1101     1401     1411     1412     1650     1100     1400     1410     1200     1210   
                                          SR      EKINR    POTR     PVPR    MOLCAS      S      EKIN      POT      H0       H01  
                                         1080     1600   
                                         AOSYM     SMH  

              2       6       22.86       500      610      700     1000      520     2100   
                                          VAR    BASINP    GEOM     BASIS   MCVARS     RHF  

 PROGRAMS   *        TOTAL    HF-SCF       INT      FILE
 CPU TIMES  *      1477.35    688.50    788.69      0.00
 REAL TIME  *      1974.88 SEC
 DISK USED  *       113.25 MB (local),      229.34 GB (total)
 SF USED    *         1.55 MB
 GA USED    *         0.01 MB       (max)       0.00 MB       (current)
 **********************************************************************************************************************************


 PROGRAM * CCSD (Closed-shell coupled cluster)     Authors: C. Hampel, H.-J. Werner, 1991, M. Deegan, P.J. Knowles, 1992


 Convergence thresholds:  THRVAR = 1.00D-08  THRDEN = 1.00D-06

 CCSD(T)     terms to be evaluated (factor= 1.000)


 Number of core orbitals:          47 (  47 )
 Number of closed-shell orbitals:  32 (  32 )
 Number of external orbitals:     542 ( 542 )

 Molecular orbitals read from record     2100.2  Type=RHF/CANONICAL (state 1.1)

 Number of N-1 electron functions:              32
 Number of N-2 electron functions:             528
 Number of singly external CSFs:             17344
 Number of doubly external CSFs:         150415840
 Total number of CSFs:                   150433185

 Length of J-op  integral file:               0.00 MB
 Length of K-op  integral file:              26.48 MB
 Length of 3-ext integral record:             0.00 MB

 For full I/O caching in triples, increase memory by 3335.53 Mwords to 5835.58 Mwords.

 Multipassing necessary in transformation. To avoid, increase memory by 1786.39 Mwords.

 Integral transformation finished. Total CPU:3099.20 sec, npass=  2  Memory used:2402.42 MW

 Reference energy:                 -27802.64047430

 MP2 singlet pair energy:              -1.42205730
 MP2 triplet pair energy:              -0.97590910
 MP2 correlation energy:               -2.39796640
 MP2 total energy:                 -27805.03844070

 SCS-MP2 correlation energy:           -2.31370109   (PS=  1.200000  PT=  0.333333)
 SCS-MP2 total energy:             -27804.95417539

 ITER.      SQ.NORM     CORR.ENERGY   TOTAL ENERGY   ENERGY CHANGE        DEN1      VAR(S)    VAR(P)  DIIS     TIME  TIME/IT
   1      1.58546488    -2.37647005-27805.01694434     0.02149635     0.12283209  0.40D-01  0.21D-01  1  1  4683.68  1612.90
   2      1.63083247    -2.35972143-27805.00019573     0.01674862    -0.06843996  0.87D-03  0.27D-02  2  2  6269.00  1693.29
   3      1.65880082    -2.36294987-27805.00342417    -0.00322844    -0.00814624  0.16D-02  0.24D-03  3  3  7879.14  1722.48
   4      1.67409008    -2.36100832-27805.00148261     0.00194155    -0.00525321  0.25D-03  0.54D-04  4  4  9315.14  1689.73
   5      1.68587321    -2.36045357-27805.00092787     0.00055475    -0.00246812  0.70D-04  0.85D-05  5  5 10890.06  1704.78
   6      1.69018727    -2.36022104-27805.00069534     0.00023253    -0.00045102  0.14D-04  0.29D-05  6  6 12564.64  1731.92
   7      1.69228017    -2.36005631-27805.00053061     0.00016472    -0.00004243  0.43D-05  0.59D-06  6  1 14080.79  1724.80
   8      1.69314297    -2.36002445-27805.00049875     0.00003186    -0.00010980  0.83D-06  0.20D-06  6  2 15509.12  1710.36
   9      1.69331425    -2.36001718-27805.00049148     0.00000727     0.00003281  0.27D-06  0.50D-07  6  4 16941.22  1700.18
  10      1.69341904    -2.36001676-27805.00049106     0.00000042    -0.00000345  0.63D-07  0.17D-07  6  3 18366.21  1688.92
  11      1.69345974    -2.36001396-27805.00048826     0.00000280    -0.00001311  0.21D-07  0.57D-08  6  5 19776.55  1678.06
  12      1.69346720    -2.36001599-27805.00049029    -0.00000203     0.00000798  0.75D-08  0.14D-08  6  6 21221.18  1672.41
  13      1.69346674    -2.36001691-27805.00049121    -0.00000092     0.00000081  0.14D-08  0.56D-09  6  4 22629.47  1665.01
  14      1.69346393    -2.36001701-27805.00049131    -0.00000010     0.00000145  0.29D-09  0.83D-10  6  1 24098.72  1664.13

 Norm of t1 vector:      0.27244028      S-energy:    -0.00000105      T1 diagnostic:  0.02408055
                                                                       D1 diagnostic:  0.08575994

   CPU time for triples:   1956.58 sec for i =  1 -  5 / 32 (~   0.5 % done)
   CPU time for triples:   2967.47 sec for i =  6 -  7 / 32 (~   1.3 % done)
   CPU time for triples:   2261.30 sec for i =  8 -  8 / 32 (~   1.9 % done)
   CPU time for triples:   5156.43 sec for i =  9 - 18 / 32 (~  18.9 % done)
   CPU time for triples:   4112.06 sec for i = 19 - 21 / 32 (~  29.4 % done)
   CPU time for triples:   4939.26 sec for i = 22 - 23 / 32 (~  38.3 % done)
   CPU time for triples:   4077.37 sec for i = 24 - 25 / 32 (~  48.7 % done)
   CPU time for triples:   4124.74 sec for i = 26 - 26 / 32 (~  54.6 % done)
   CPU time for triples:   2045.28 sec for i = 27 - 27 / 32 (~  60.9 % done)
   CPU time for triples:   4132.67 sec for i = 28 - 28 / 32 (~  67.7 % done)
   CPU time for triples:   4162.63 sec for i = 29 - 29 / 32 (~  75.0 % done)
   CPU time for triples:   4616.01 sec for i = 30 - 30 / 32 (~  82.8 % done)
   CPU time for triples:   3651.20 sec for i = 31 - 31 / 32 (~  91.1 % done)
   CPU time for triples:   4765.07 sec for i = 32 - 32 / 32 (  100.0 % done)

 Total CPU time for triples:  53015.62 sec


 RESULTS
 =======

  Reference energy                   -27802.6404742992    
  CCSD singlet pair energy             -1.511777887008
  CCSD triplet pair energy             -0.848238075510
  CCSD correlation energy              -2.360017009808

  Triples (T) contribution             -0.121343008798
  Total correlation energy             -2.481360018606

  CCSD total energy                  -27805.0004913090    
  CCSD[T] energy                     -27805.1370052669    
  CCSD-T energy                      -27805.1171239429    
 !CCSD(T) total energy               -27805.1218343178    

 Timing summary (sec):

 STEP                 CPU(USER)    SYS     CPU(TOT)    WALL
 Transformation       3107.46    126.10   3233.56   3567.66
 CCSD iterations     20992.24    345.07  21337.31  23297.71
 Triples             53015.62    564.13  53579.75  53795.05

 Program statistics:

 Available memory in ccsd:              2499995825
 Min. memory needed in ccsd:             336481566
 Max. memory used in ccsd:               479265790
 Max. memory used in cckext:             411905472 (14 integral passes)



 **********************************************************************************************************************************
 DATASETS  * FILE   NREC   LENGTH (MB)   RECORD NAMES
              1      23    22931.10       500      610      700      900      950      970     1000      129      960     1700   
                                          VAR    BASINP    GEOM    SYMINP    ZMAT    AOBASIS   BASIS     P2S    ABASIS    OPER   
                                         1101     1401     1411     1412     1650     1100     1400     1410     1200     1210   
                                          SR      EKINR    POTR     PVPR    MOLCAS      S      EKIN      POT      H0       H01  
                                         1080     1600     1380   
                                         AOSYM     SMH     JKOP   

              2       6       22.86       500      610      700     1000      520     2100   
                                          VAR    BASINP    GEOM     BASIS   MCVARS     RHF  

 PROGRAMS   *        TOTAL   CCSD(T)    HF-SCF       INT      FILE
 CPU TIMES  *     78592.97  77115.54    688.50    788.69      0.00
 REAL TIME  *     82638.70 SEC
 DISK USED  *        37.85 GB (local),      426.96 GB (total)
 SF USED    *        38.94 GB
 GA USED    *         0.01 MB       (max)       0.00 MB       (current)
 **********************************************************************************************************************************
 SETTING ENERGY_HF(1)   =    -27802.64047430  AU                              
 SETTING CORR_MP2(1)    =        -2.39796640  AU                              
 SETTING CORR_CCSDT(1)  =        -2.48136002  AU                              

 CCSD(T)/PA=CC-PVTZ-X2C,O=AUG-CC-PVTZ-X2C,H=AUG-CC-PVTZ-X2C,N=AUG-CC-PVTZ-X2C energy= -27805.121834317779

         CCSD(T)          HF-SCF
 -27805.12183432 -27802.64047430
 **********************************************************************************************************************************
 Molpro calculation terminated
