 Entering Gaussian System, Link 0=/home/pcmt/gaussian/g16.C.01/g16/g16
 AtFile(1): /home/shaaban/basis.gaussian/Pa-def-TZVP
 AtFile(1): /home/shaaban/basis.gaussian/Pa-ECP60MWB
 AtFile(1): /home/shaaban/basis.gaussian/I-ECP28oldMDF
 Initial command:
 /home/pcmt/gaussian/g16.C.01/g16/l1.exe "/state/partition2/shaaban/972262.phlam-s-sakura/Gau-81663.inp" -scrdir="/state/partition2/shaaban/972262.phlam-s-sakura/"
 Entering Link 1 = /home/pcmt/gaussian/g16.C.01/g16/l1.exe PID=     81664.
  
 Copyright (c) 1988-2019, Gaussian, Inc.  All Rights Reserved.
  
 This is part of the Gaussian(R) 16 program.  It is based on
 the Gaussian(R) 09 system (copyright 2009, Gaussian, Inc.),
 the Gaussian(R) 03 system (copyright 2003, Gaussian, Inc.),
 the Gaussian(R) 98 system (copyright 1998, Gaussian, Inc.),
 the Gaussian(R) 94 system (copyright 1995, Gaussian, Inc.),
 the Gaussian 92(TM) system (copyright 1992, Gaussian, Inc.),
 the Gaussian 90(TM) system (copyright 1990, Gaussian, Inc.),
 the Gaussian 88(TM) system (copyright 1988, Gaussian, Inc.),
 the Gaussian 86(TM) system (copyright 1986, Carnegie Mellon
 University), and the Gaussian 82(TM) system (copyright 1983,
 Carnegie Mellon University). Gaussian is a federally registered
 trademark of Gaussian, Inc.
  
 This software contains proprietary and confidential information,
 including trade secrets, belonging to Gaussian, Inc.
  
 This software is provided under written license and may be
 used, copied, transmitted, or stored only in accord with that
 written license.
  
 The following legend is applicable only to US Government
 contracts under FAR:
  
                    RESTRICTED RIGHTS LEGEND
  
 Use, reproduction and disclosure by the US Government is
 subject to restrictions as set forth in subparagraphs (a)
 and (c) of the Commercial Computer Software - Restricted
 Rights clause in FAR 52.227-19.
  
 Gaussian, Inc.
 340 Quinnipiac St., Bldg. 40, Wallingford CT 06492
  
  
 ---------------------------------------------------------------
 Warning -- This program may not be used in any manner that
 competes with the business of Gaussian, Inc. or will provide
 assistance to any competitor of Gaussian, Inc.  The licensee
 of this program is prohibited from giving any competitor of
 Gaussian, Inc. access to this program.  By using this program,
 the user acknowledges that Gaussian, Inc. is engaged in the
 business of creating and licensing software in the field of
 computational chemistry and represents and warrants to the
 licensee that it is not a competitor of Gaussian, Inc. and that
 it will not use this program in any manner prohibited above.
 ---------------------------------------------------------------
  

 Cite this work as:
 Gaussian 16, Revision C.01,
 M. J. Frisch, G. W. Trucks, H. B. Schlegel, G. E. Scuseria, 
 M. A. Robb, J. R. Cheeseman, G. Scalmani, V. Barone, 
 G. A. Petersson, H. Nakatsuji, X. Li, M. Caricato, A. V. Marenich, 
 J. Bloino, B. G. Janesko, R. Gomperts, B. Mennucci, H. P. Hratchian, 
 J. V. Ortiz, A. F. Izmaylov, J. L. Sonnenberg, D. Williams-Young, 
 F. Ding, F. Lipparini, F. Egidi, J. Goings, B. Peng, A. Petrone, 
 T. Henderson, D. Ranasinghe, V. G. Zakrzewski, J. Gao, N. Rega, 
 G. Zheng, W. Liang, M. Hada, M. Ehara, K. Toyota, R. Fukuda, 
 J. Hasegawa, M. Ishida, T. Nakajima, Y. Honda, O. Kitao, H. Nakai, 
 T. Vreven, K. Throssell, J. A. Montgomery, Jr., J. E. Peralta, 
 F. Ogliaro, M. J. Bearpark, J. J. Heyd, E. N. Brothers, K. N. Kudin, 
 V. N. Staroverov, T. A. Keith, R. Kobayashi, J. Normand, 
 K. Raghavachari, A. P. Rendell, J. C. Burant, S. S. Iyengar, 
 J. Tomasi, M. Cossi, J. M. Millam, M. Klene, C. Adamo, R. Cammi, 
 J. W. Ochterski, R. L. Martin, K. Morokuma, O. Farkas, 
 J. B. Foresman, and D. J. Fox, Gaussian, Inc., Wallingford CT, 2019.
 
 ******************************************
 Gaussian 16:  ES64L-G16RevC.01  3-Jul-2019
                28-Jun-2023 
 ******************************************
 %mem=16Gb
 %NProc=8
 Will use up to    8 processors via shared memory.
 %chk=pa_oh4_I-bp86-cosmors-deftzvp-gp.chk
 ----------------------------------------------------------------------
 #p BP86/GEN Pseudo=Read GFInput GFPrint IOP(6/7=3) Symm=(Loose) Int=(U
 ltraFine) Guess=(Harris) Scf=(NoVarAcc,MaxCycle=200,conver=8)
 ----------------------------------------------------------------------
 1/38=1,172=1/1;
 2/12=2,17=4,18=3,40=1/2;
 3/5=7,11=2,16=1,17=8,24=110,25=1,30=1,74=404,75=-5/1,2,3;
 4/11=8/1;
 5/5=2,6=8,7=200,38=1/2;
 6/7=3,8=2,9=2,10=2,28=1/1;
 99/5=1,9=1/99;
 Leave Link    1 at Wed Jun 28 18:32:04 2023, MaxMem=  2147483648 cpu:               9.0 elap:              20.8
 (Enter /home/pcmt/gaussian/g16.C.01/g16/l101.exe)
 -----------------------------------------------------------
 pa_oh4_I-bp86-cosmors-deftzvp-gp.com SGP in PCM calculation
 -----------------------------------------------------------
 Symbolic Z-matrix:
 Charge =  0 Multiplicity = 1
 Pa                    0.70382  -0.36614   0.04747 
 I                     2.1691    1.59694  -1.90205 
 H                    -1.7403    1.20856   0.38181 
 O                    -0.80627   0.99093   0.47752 
 H                     1.93499   1.07216   2.25011 
 O                    -0.34321  -1.11061  -1.57927 
 H                    -1.13216  -1.19641  -2.12867 
 O                     0.06988  -1.99415   1.23508 
 H                    -0.57156  -2.68987   1.04248 
 O                     1.89977   0.35457   1.60486 
 
 ITRead=  0  0  0  0  0  0  0  0  0  0
 MicOpt= -1 -1 -1 -1 -1 -1 -1 -1 -1 -1
 NAtoms=     10 NQM=       10 NQMF=       0 NMMI=      0 NMMIF=      0
                NMic=       0 NMicF=      0.
                    Isotopes and Nuclear Properties:
 (Nuclear quadrupole moments (NQMom) in fm**2, nuclear magnetic moments (NMagM)
  in nuclear magnetons)

  Atom         1           2           3           4           5           6           7           8           9          10
 IAtWgt=         231         127           1          16           1          16           1          16           1          16
 AtmWgt= 231.0359000 126.9004000   1.0078250  15.9949146   1.0078250  15.9949146   1.0078250  15.9949146   1.0078250  15.9949146
 NucSpn=           3           5           1           0           1           0           1           0           1           0
 AtZEff=  -0.0000000  -0.0000000  -0.0000000  -0.0000000  -0.0000000  -0.0000000  -0.0000000  -0.0000000  -0.0000000  -0.0000000
 NQMom= -172.0000000 -71.0000000   0.0000000   0.0000000   0.0000000   0.0000000   0.0000000   0.0000000   0.0000000   0.0000000
 NMagM=    2.0100000   2.8132800   2.7928460   0.0000000   2.7928460   0.0000000   2.7928460   0.0000000   2.7928460   0.0000000
 AtZNuc=  91.0000000  53.0000000   1.0000000   8.0000000   1.0000000   8.0000000   1.0000000   8.0000000   1.0000000   8.0000000
 Leave Link  101 at Wed Jun 28 18:32:21 2023, MaxMem=  2147483648 cpu:               9.0 elap:              17.0
 (Enter /home/pcmt/gaussian/g16.C.01/g16/l202.exe)
                          Input orientation:                          
 ---------------------------------------------------------------------
 Center     Atomic      Atomic             Coordinates (Angstroms)
 Number     Number       Type             X           Y           Z
 ---------------------------------------------------------------------
      1         91           0        0.703819   -0.366140    0.047467
      2         53           0        2.169101    1.596935   -1.902046
      3          1           0       -1.740298    1.208556    0.381811
      4          8           0       -0.806273    0.990927    0.477519
      5          1           0        1.934985    1.072158    2.250111
      6          8           0       -0.343209   -1.110614   -1.579267
      7          1           0       -1.132155   -1.196407   -2.128674
      8          8           0        0.069878   -1.994149    1.235082
      9          1           0       -0.571562   -2.689874    1.042477
     10          8           0        1.899771    0.354569    1.604861
 ---------------------------------------------------------------------
                    Distance matrix (angstroms):
                    1          2          3          4          5
     1  Pa   0.000000
     2  I    3.130705   0.000000
     3  H    2.926630   4.544253   0.000000
     4  O    2.075321   3.857775   0.963807   0.000000
     5  H    2.904498   4.191731   4.125149   3.265452   0.000000
     6  O    2.072866   3.707656   3.343087   2.976789   4.961734
     7  H    2.965761   4.330405   3.529337   3.418022   5.807538
     8  O    2.112517   5.210010   3.776524   3.201910   3.729766
     9  H    2.831321   5.878621   4.123127   3.731295   4.679107
    10  O    2.091697   3.730202   3.933859   2.999755   0.965671
                    6          7          8          9         10
     6  O    0.000000
     7  H    0.965217   0.000000
     8  O    2.978563   3.660073   0.000000
     9  H    3.069161   3.549775   0.965699   0.000000
    10  O    4.161297   5.053453   3.000288   3.961363   0.000000
 Stoichiometry    H4IO4Pa
 Framework group  C1[X(H4IO4Pa)]
 Deg. of freedom    24
 Full point group                 C1      NOp   1
 Largest Abelian subgroup         C1      NOp   1
 Largest concise Abelian subgroup C1      NOp   1
                         Standard orientation:                         
 ---------------------------------------------------------------------
 Center     Atomic      Atomic             Coordinates (Angstroms)
 Number     Number       Type             X           Y           Z
 ---------------------------------------------------------------------
      1         91           0        0.811423    0.017002   -0.093987
      2         53           0       -2.318783   -0.015997   -0.048893
      3          1           0        1.222874   -0.516946    2.753954
      4          8           0        0.965185   -0.010541    1.975446
      5          1           0        0.682798    2.866048    0.456015
      6          8           0        0.775871   -2.053727   -0.181131
      7          1           0        0.871651   -2.933002    0.205321
      8          8           0        2.861328    0.030408   -0.604319
      9          1           0        3.484465   -0.702515   -0.688566
     10          8           0        0.746889    2.107244   -0.137812
 ---------------------------------------------------------------------
 Rotational constants (GHZ):           2.1422262           0.4623932           0.4320907
 Leave Link  202 at Wed Jun 28 18:32:33 2023, MaxMem=  2147483648 cpu:               7.8 elap:              11.8
 (Enter /home/pcmt/gaussian/g16.C.01/g16/l301.exe)
 General basis read from cards:  (5D, 7F)
 Centers:       1
 S 3 1.00
     Exponent=  1.2047376000D+04 Coefficients=  3.4500000000D-04
     Exponent=  1.8116841000D+03 Coefficients=  2.7420000000D-03
     Exponent=  3.4770104000D+02 Coefficients=  1.0053000000D-02
 S 1 1.00
     Exponent=  9.8678010000D+01 Coefficients=  1.0000000000D+00
 S 3 1.00
     Exponent=  5.7507376000D+01 Coefficients=  5.1528000000D-02
     Exponent=  3.3502601000D+01 Coefficients= -2.3692400000D-01
     Exponent=  1.9554451000D+01 Coefficients=  7.1904800000D-01
 S 1 1.00
     Exponent=  9.7164210000D+00 Coefficients=  1.0000000000D+00
 S 1 1.00
     Exponent=  2.6920960000D+00 Coefficients=  1.0000000000D+00
 S 1 1.00
     Exponent=  1.4538470000D+00 Coefficients=  1.0000000000D+00
 S 1 1.00
     Exponent=  5.7435200000D-01 Coefficients=  1.0000000000D+00
 S 1 1.00
     Exponent=  2.6346800000D-01 Coefficients=  1.0000000000D+00
 S 1 1.00
     Exponent=  5.6557000000D-02 Coefficients=  1.0000000000D+00
 S 1 1.00
     Exponent=  2.3169000000D-02 Coefficients=  1.0000000000D+00
 P 5 1.00
     Exponent=  2.9033676000D+03 Coefficients=  3.5000000000D-05
     Exponent=  6.4486356000D+02 Coefficients=  2.0500000000D-04
     Exponent=  2.2025896000D+02 Coefficients=  1.2510000000D-03
     Exponent=  8.0276401000D+01 Coefficients=  2.4570000000D-03
     Exponent=  2.4080211000D+01 Coefficients=  1.1190000000D-02
 P 1 1.00
     Exponent=  1.4077580000D+01 Coefficients=  1.0000000000D+00
 P 1 1.00
     Exponent=  8.2658460000D+00 Coefficients=  1.0000000000D+00
 P 1 1.00
     Exponent=  3.5948000000D+00 Coefficients=  1.0000000000D+00
 P 1 1.00
     Exponent=  1.7531110000D+00 Coefficients=  1.0000000000D+00
 P 1 1.00
     Exponent=  6.5776700000D-01 Coefficients=  1.0000000000D+00
 P 1 1.00
     Exponent=  2.8463900000D-01 Coefficients=  1.0000000000D+00
 P 1 1.00
     Exponent=  1.0054300000D-01 Coefficients=  1.0000000000D+00
 P 1 1.00
     Exponent=  3.0190000000D-02 Coefficients=  1.0000000000D+00
 D 6 1.00
     Exponent=  4.4814991000D+02 Coefficients=  2.6000000000D-05
     Exponent=  1.5446145000D+02 Coefficients=  2.2800000000D-04
     Exponent=  6.0925377000D+01 Coefficients=  9.0400000000D-04
     Exponent=  1.7032091000D+01 Coefficients=  2.5647000000D-02
     Exponent=  1.0018877000D+01 Coefficients= -1.0575100000D-01
     Exponent=  3.4091930000D+00 Coefficients=  4.4743200000D-01
 D 1 1.00
     Exponent=  1.6702130000D+00 Coefficients=  1.0000000000D+00
 D 1 1.00
     Exponent=  7.4109500000D-01 Coefficients=  1.0000000000D+00
 D 1 1.00
     Exponent=  2.6139300000D-01 Coefficients=  1.0000000000D+00
 D 1 1.00
     Exponent=  8.2811000000D-02 Coefficients=  1.0000000000D+00
 F 5 1.00
     Exponent=  8.7991327000D+01 Coefficients=  2.2600000000D-04
     Exponent=  2.8340195000D+01 Coefficients=  2.3230000000D-03
     Exponent=  1.2440994000D+01 Coefficients=  4.5850000000D-03
     Exponent=  3.9572960000D+00 Coefficients=  1.5696100000D-01
     Exponent=  1.8759440000D+00 Coefficients=  3.4497700000D-01
 F 1 1.00
     Exponent=  8.2758900000D-01 Coefficients=  1.0000000000D+00
 F 1 1.00
     Exponent=  3.3274800000D-01 Coefficients=  1.0000000000D+00
 F 1 1.00
     Exponent=  1.1468500000D-01 Coefficients=  1.0000000000D+00
 G 1 1.00
     Exponent=  3.5000000000D-01 Coefficients=  1.0000000000D+00
 ****
 Centers:       4      6      8     10
 Def2TZVP
 ****
 Centers:       3      5      7      9
 Def2TZVP
 ****
 Centers:       2
 Def2TZVP
 ****
 ======================================================================================================
                                       Pseudopotential Parameters
 ======================================================================================================
  Center     Atomic      Valence      Angular      Power
  Number     Number     Electrons     Momentum     of R      Exponent        Coefficient   SO-Coeffient
 ======================================================================================================
    1         91           31
                                      H and up 
                                                     2        1.0000000        0.00000000    0.00000000
                                      S - H
                                                     2       15.2691737      475.47573283    0.00000000
                                      P - H
                                                     2        9.9577370      207.66485962    0.00000000
                                      D - H
                                                     2        8.9431413      156.67411988    0.00000000
                                      F - H
                                                     2        7.0104666       67.98223685    0.00000000
                                      G - H
                                                     2       12.2010560      -57.63059989    0.00000000
    2         53           25
                                      G and up 
                                                     2        1.0000000        0.00000000    0.00000000
                                      S - G
                                                     2       40.0158350       49.99429300    0.00000000
                                                     2       17.4297470      281.02531700    0.00000000
                                                     2        9.0054840       61.57332600    0.00000000
                                      P - G
                                                     2       15.3554660       67.44284100    0.00000000
                                                     2       14.9718330      134.88113700    0.00000000
                                                     2        8.9601640       14.67505100    0.00000000
                                                     2        8.2590960       29.37566600    0.00000000
                                      D - G
                                                     2       15.0689080       35.43952900    0.00000000
                                                     2       14.5553220       53.17605700    0.00000000
                                                     2        6.7186470        9.06719500    0.00000000
                                                     2        6.4563930       13.20693700    0.00000000
                                                     2        1.1917790        0.08933500    0.00000000
                                                     2        1.2911570        0.05238000    0.00000000
                                      F - G
                                                     2       19.4586090      -21.84204000    0.00000000
                                                     2       19.3492600      -28.46819100    0.00000000
                                                     2        4.8237670       -0.24371300    0.00000000
                                                     2        4.8843150       -0.32080400    0.00000000
    3          1
                                   No pseudopotential on this center.
    4          8
                                   No pseudopotential on this center.
    5          1
                                   No pseudopotential on this center.
    6          8
                                   No pseudopotential on this center.
    7          1
                                   No pseudopotential on this center.
    8          8
                                   No pseudopotential on this center.
    9          1
                                   No pseudopotential on this center.
   10          8
                                   No pseudopotential on this center.
 ======================================================================================================
 Ernie: Thresh=  0.10000D-02 Tol=  0.10000D-05 Strict=F.
 AO basis set in the form of general basis input (Overlap normalization):
      1 0
 S   3 1.00       0.000000000000
      0.1204737600D+05  0.2857094961D-01
      0.1811684100D+04  0.2270769386D+00
      0.3477010400D+03  0.8325326273D+00
 S   3 1.00       0.000000000000
      0.5750737600D+02  0.9569327984D-01
      0.3350260100D+02 -0.4399944619D+00
      0.1955445100D+02  0.1335352847D+01
 S   1 1.00       0.000000000000
      0.9867801000D+02  0.1000000000D+01
 S   1 1.00       0.000000000000
      0.9716421000D+01  0.1000000000D+01
 S   1 1.00       0.000000000000
      0.2692096000D+01  0.1000000000D+01
 S   1 1.00       0.000000000000
      0.1453847000D+01  0.1000000000D+01
 S   1 1.00       0.000000000000
      0.5743520000D+00  0.1000000000D+01
 S   1 1.00       0.000000000000
      0.2634680000D+00  0.1000000000D+01
 S   1 1.00       0.000000000000
      0.5655700000D-01  0.1000000000D+01
 S   1 1.00       0.000000000000
      0.2316900000D-01  0.1000000000D+01
 P   5 1.00       0.000000000000
      0.2903367600D+04  0.2594222647D-02
      0.6448635600D+03  0.1519473264D-01
      0.2202589600D+03  0.9272492945D-01
      0.8027640100D+02  0.1821144298D+00
      0.2408021100D+02  0.8294100404D+00
 P   1 1.00       0.000000000000
      0.1407758000D+02  0.1000000000D+01
 P   1 1.00       0.000000000000
      0.8265846000D+01  0.1000000000D+01
 P   1 1.00       0.000000000000
      0.3594800000D+01  0.1000000000D+01
 P   1 1.00       0.000000000000
      0.1753111000D+01  0.1000000000D+01
 P   1 1.00       0.000000000000
      0.6577670000D+00  0.1000000000D+01
 P   1 1.00       0.000000000000
      0.2846390000D+00  0.1000000000D+01
 P   1 1.00       0.000000000000
      0.1005430000D+00  0.1000000000D+01
 P   1 1.00       0.000000000000
      0.3019000000D-01  0.1000000000D+01
 D   6 1.00       0.000000000000
      0.4481499100D+03  0.6556927566D-04
      0.1544614500D+03  0.5749921096D-03
      0.6092537700D+02  0.2279793277D-02
      0.1703209100D+02  0.6467904664D-01
      0.1001887700D+02 -0.2666929411D+00
      0.3409193000D+01  0.1128376621D+01
 D   1 1.00       0.000000000000
      0.1670213000D+01  0.1000000000D+01
 D   1 1.00       0.000000000000
      0.7410950000D+00  0.1000000000D+01
 D   1 1.00       0.000000000000
      0.2613930000D+00  0.1000000000D+01
 D   1 1.00       0.000000000000
      0.8281100000D-01  0.1000000000D+01
 F   5 1.00       0.000000000000
      0.8799132700D+02  0.4766318191D-03
      0.2834019500D+02  0.4899184583D-02
      0.1244099400D+02  0.9669720755D-02
      0.3957296000D+01  0.3310292343D+00
      0.1875944000D+01  0.7275531640D+00
 F   1 1.00       0.000000000000
      0.8275890000D+00  0.1000000000D+01
 F   1 1.00       0.000000000000
      0.3327480000D+00  0.1000000000D+01
 F   1 1.00       0.000000000000
      0.1146850000D+00  0.1000000000D+01
 G   1 1.00       0.000000000000
      0.3500000000D+00  0.1000000000D+01
 ****
      2 0
 S   5 1.00       0.000000000000
      0.5899579153D+04  0.2610056321D-03
      0.8985423877D+03  0.1669739989D-02
      0.2003723791D+03  0.4622329849D-02
      0.3141805384D+02 -0.4253426840D-01
      0.1564598784D+02  0.1036831842D+01
 S   2 1.00       0.000000000000
      0.1181574186D+02  0.6510798928D+00
      0.6461445829D+01  0.3642365936D+00
 S   1 1.00       0.000000000000
      0.2383806758D+01  0.1000000000D+01
 S   1 1.00       0.000000000000
      0.1171208966D+01  0.1000000000D+01
 S   1 1.00       0.000000000000
      0.3211587576D+00  0.1000000000D+01
 S   1 1.00       0.000000000000
      0.1238791936D+00  0.1000000000D+01
 P   4 1.00       0.000000000000
      0.1298431690D+02 -0.3868165906D-01
      0.3619950301D+01  0.3065970959D+00
      0.2023227309D+01  0.5169312450D+00
      0.1036749056D+01  0.2505722415D+00
 P   3 1.00       0.000000000000
      0.1973003055D+03  0.3192774173D-02
      0.2006141135D+02  0.2856760153D+00
      0.9763146048D+01 -0.1232820499D+01
 P   1 1.00       0.000000000000
      0.4593781600D+00  0.1000000000D+01
 P   1 1.00       0.000000000000
      0.1911653293D+00  0.1000000000D+01
 P   1 1.00       0.000000000000
      0.7487881302D-01  0.1000000000D+01
 D   6 1.00       0.000000000000
      0.1191267175D+03  0.8836386893D-03
      0.3340424013D+02  0.7315261132D-02
      0.1780591820D+02 -0.1102799620D-01
      0.4899051035D+01  0.2425357632D+00
      0.2451675311D+01  0.4726529041D+00
      0.1182069343D+01  0.3934356931D+00
 D   1 1.00       0.000000000000
      0.5292311007D+00  0.1000000000D+01
 D   1 1.00       0.000000000000
      0.1700000000D+00  0.1000000000D+01
 F   1 1.00       0.000000000000
      0.4414180800D+00  0.1000000000D+01
 F   1 1.00       0.000000000000
      0.2180000000D+01  0.1000000000D+01
 ****
      3 0
 S   3 1.00       0.000000000000
      0.3406134100D+02  0.2543930721D-01
      0.5123574600D+01  0.1900859489D+00
      0.1164662600D+01  0.8524411301D+00
 S   1 1.00       0.000000000000
      0.3272304100D+00  0.1000000000D+01
 S   1 1.00       0.000000000000
      0.1030724100D+00  0.1000000000D+01
 P   1 1.00       0.000000000000
      0.8000000000D+00  0.1000000000D+01
 ****
      4 0
 S   6 1.00       0.000000000000
      0.2703238263D+05  0.5722733521D-03
      0.4052387139D+04  0.4435323349D-02
      0.9223272271D+03  0.2302010771D-01
      0.2612407099D+03  0.9282249067D-01
      0.8535464135D+02  0.2937850001D+00
      0.3103503524D+02  0.6740160450D+00
 S   2 1.00       0.000000000000
      0.1226086073D+02  0.6383993703D+00
      0.4998707601D+01  0.3953458713D+00
 S   1 1.00       0.000000000000
      0.1170310816D+01  0.1000000000D+01
 S   1 1.00       0.000000000000
      0.4647474099D+00  0.1000000000D+01
 S   1 1.00       0.000000000000
      0.1850453636D+00  0.1000000000D+01
 P   4 1.00       0.000000000000
      0.6327495480D+02  0.1201833222D-01
      0.1462704938D+02  0.8300542179D-01
      0.4450122346D+01  0.3199174393D+00
      0.1527579965D+01  0.7071554292D+00
 P   1 1.00       0.000000000000
      0.5293511794D+00  0.1000000000D+01
 P   1 1.00       0.000000000000
      0.1747842127D+00  0.1000000000D+01
 D   1 1.00       0.000000000000
      0.2314000000D+01  0.1000000000D+01
 D   1 1.00       0.000000000000
      0.6450000000D+00  0.1000000000D+01
 F   1 1.00       0.000000000000
      0.1428000000D+01  0.1000000000D+01
 ****
      5 0
 S   3 1.00       0.000000000000
      0.3406134100D+02  0.2543930721D-01
      0.5123574600D+01  0.1900859489D+00
      0.1164662600D+01  0.8524411301D+00
 S   1 1.00       0.000000000000
      0.3272304100D+00  0.1000000000D+01
 S   1 1.00       0.000000000000
      0.1030724100D+00  0.1000000000D+01
 P   1 1.00       0.000000000000
      0.8000000000D+00  0.1000000000D+01
 ****
      6 0
 S   6 1.00       0.000000000000
      0.2703238263D+05  0.5722733521D-03
      0.4052387139D+04  0.4435323349D-02
      0.9223272271D+03  0.2302010771D-01
      0.2612407099D+03  0.9282249067D-01
      0.8535464135D+02  0.2937850001D+00
      0.3103503524D+02  0.6740160450D+00
 S   2 1.00       0.000000000000
      0.1226086073D+02  0.6383993703D+00
      0.4998707601D+01  0.3953458713D+00
 S   1 1.00       0.000000000000
      0.1170310816D+01  0.1000000000D+01
 S   1 1.00       0.000000000000
      0.4647474099D+00  0.1000000000D+01
 S   1 1.00       0.000000000000
      0.1850453636D+00  0.1000000000D+01
 P   4 1.00       0.000000000000
      0.6327495480D+02  0.1201833222D-01
      0.1462704938D+02  0.8300542179D-01
      0.4450122346D+01  0.3199174393D+00
      0.1527579965D+01  0.7071554292D+00
 P   1 1.00       0.000000000000
      0.5293511794D+00  0.1000000000D+01
 P   1 1.00       0.000000000000
      0.1747842127D+00  0.1000000000D+01
 D   1 1.00       0.000000000000
      0.2314000000D+01  0.1000000000D+01
 D   1 1.00       0.000000000000
      0.6450000000D+00  0.1000000000D+01
 F   1 1.00       0.000000000000
      0.1428000000D+01  0.1000000000D+01
 ****
      7 0
 S   3 1.00       0.000000000000
      0.3406134100D+02  0.2543930721D-01
      0.5123574600D+01  0.1900859489D+00
      0.1164662600D+01  0.8524411301D+00
 S   1 1.00       0.000000000000
      0.3272304100D+00  0.1000000000D+01
 S   1 1.00       0.000000000000
      0.1030724100D+00  0.1000000000D+01
 P   1 1.00       0.000000000000
      0.8000000000D+00  0.1000000000D+01
 ****
      8 0
 S   6 1.00       0.000000000000
      0.2703238263D+05  0.5722733521D-03
      0.4052387139D+04  0.4435323349D-02
      0.9223272271D+03  0.2302010771D-01
      0.2612407099D+03  0.9282249067D-01
      0.8535464135D+02  0.2937850001D+00
      0.3103503524D+02  0.6740160450D+00
 S   2 1.00       0.000000000000
      0.1226086073D+02  0.6383993703D+00
      0.4998707601D+01  0.3953458713D+00
 S   1 1.00       0.000000000000
      0.1170310816D+01  0.1000000000D+01
 S   1 1.00       0.000000000000
      0.4647474099D+00  0.1000000000D+01
 S   1 1.00       0.000000000000
      0.1850453636D+00  0.1000000000D+01
 P   4 1.00       0.000000000000
      0.6327495480D+02  0.1201833222D-01
      0.1462704938D+02  0.8300542179D-01
      0.4450122346D+01  0.3199174393D+00
      0.1527579965D+01  0.7071554292D+00
 P   1 1.00       0.000000000000
      0.5293511794D+00  0.1000000000D+01
 P   1 1.00       0.000000000000
      0.1747842127D+00  0.1000000000D+01
 D   1 1.00       0.000000000000
      0.2314000000D+01  0.1000000000D+01
 D   1 1.00       0.000000000000
      0.6450000000D+00  0.1000000000D+01
 F   1 1.00       0.000000000000
      0.1428000000D+01  0.1000000000D+01
 ****
      9 0
 S   3 1.00       0.000000000000
      0.3406134100D+02  0.2543930721D-01
      0.5123574600D+01  0.1900859489D+00
      0.1164662600D+01  0.8524411301D+00
 S   1 1.00       0.000000000000
      0.3272304100D+00  0.1000000000D+01
 S   1 1.00       0.000000000000
      0.1030724100D+00  0.1000000000D+01
 P   1 1.00       0.000000000000
      0.8000000000D+00  0.1000000000D+01
 ****
     10 0
 S   6 1.00       0.000000000000
      0.2703238263D+05  0.5722733521D-03
      0.4052387139D+04  0.4435323349D-02
      0.9223272271D+03  0.2302010771D-01
      0.2612407099D+03  0.9282249067D-01
      0.8535464135D+02  0.2937850001D+00
      0.3103503524D+02  0.6740160450D+00
 S   2 1.00       0.000000000000
      0.1226086073D+02  0.6383993703D+00
      0.4998707601D+01  0.3953458713D+00
 S   1 1.00       0.000000000000
      0.1170310816D+01  0.1000000000D+01
 S   1 1.00       0.000000000000
      0.4647474099D+00  0.1000000000D+01
 S   1 1.00       0.000000000000
      0.1850453636D+00  0.1000000000D+01
 P   4 1.00       0.000000000000
      0.6327495480D+02  0.1201833222D-01
      0.1462704938D+02  0.8300542179D-01
      0.4450122346D+01  0.3199174393D+00
      0.1527579965D+01  0.7071554292D+00
 P   1 1.00       0.000000000000
      0.5293511794D+00  0.1000000000D+01
 P   1 1.00       0.000000000000
      0.1747842127D+00  0.1000000000D+01
 D   1 1.00       0.000000000000
      0.2314000000D+01  0.1000000000D+01
 D   1 1.00       0.000000000000
      0.6450000000D+00  0.1000000000D+01
 F   1 1.00       0.000000000000
      0.1428000000D+01  0.1000000000D+01
 ****

 AO basis set (Overlap normalization):
 Atom Pa1      Shell     1 S   3     bf    1 -     1          1.533368136939          0.032128981656         -0.177610309718
      0.1204737600D+05  0.2857094961D-01
      0.1811684100D+04  0.2270769386D+00
      0.3477010400D+03  0.8325326273D+00
 Atom Pa1      Shell     2 S   3     bf    2 -     2          1.533368136939          0.032128981656         -0.177610309718
      0.5750737600D+02  0.9569327984D-01
      0.3350260100D+02 -0.4399944619D+00
      0.1955445100D+02  0.1335352847D+01
 Atom Pa1      Shell     3 S   1     bf    3 -     3          1.533368136939          0.032128981656         -0.177610309718
      0.9867801000D+02  0.1000000000D+01
 Atom Pa1      Shell     4 S   1     bf    4 -     4          1.533368136939          0.032128981656         -0.177610309718
      0.9716421000D+01  0.1000000000D+01
 Atom Pa1      Shell     5 S   1     bf    5 -     5          1.533368136939          0.032128981656         -0.177610309718
      0.2692096000D+01  0.1000000000D+01
 Atom Pa1      Shell     6 S   1     bf    6 -     6          1.533368136939          0.032128981656         -0.177610309718
      0.1453847000D+01  0.1000000000D+01
 Atom Pa1      Shell     7 S   1     bf    7 -     7          1.533368136939          0.032128981656         -0.177610309718
      0.5743520000D+00  0.1000000000D+01
 Atom Pa1      Shell     8 S   1     bf    8 -     8          1.533368136939          0.032128981656         -0.177610309718
      0.2634680000D+00  0.1000000000D+01
 Atom Pa1      Shell     9 S   1     bf    9 -     9          1.533368136939          0.032128981656         -0.177610309718
      0.5655700000D-01  0.1000000000D+01
 Atom Pa1      Shell    10 S   1     bf   10 -    10          1.533368136939          0.032128981656         -0.177610309718
      0.2316900000D-01  0.1000000000D+01
 Atom Pa1      Shell    11 P   5     bf   11 -    13          1.533368136939          0.032128981656         -0.177610309718
      0.2903367600D+04  0.2594222647D-02
      0.6448635600D+03  0.1519473264D-01
      0.2202589600D+03  0.9272492945D-01
      0.8027640100D+02  0.1821144298D+00
      0.2408021100D+02  0.8294100404D+00
 Atom Pa1      Shell    12 P   1     bf   14 -    16          1.533368136939          0.032128981656         -0.177610309718
      0.1407758000D+02  0.1000000000D+01
 Atom Pa1      Shell    13 P   1     bf   17 -    19          1.533368136939          0.032128981656         -0.177610309718
      0.8265846000D+01  0.1000000000D+01
 Atom Pa1      Shell    14 P   1     bf   20 -    22          1.533368136939          0.032128981656         -0.177610309718
      0.3594800000D+01  0.1000000000D+01
 Atom Pa1      Shell    15 P   1     bf   23 -    25          1.533368136939          0.032128981656         -0.177610309718
      0.1753111000D+01  0.1000000000D+01
 Atom Pa1      Shell    16 P   1     bf   26 -    28          1.533368136939          0.032128981656         -0.177610309718
      0.6577670000D+00  0.1000000000D+01
 Atom Pa1      Shell    17 P   1     bf   29 -    31          1.533368136939          0.032128981656         -0.177610309718
      0.2846390000D+00  0.1000000000D+01
 Atom Pa1      Shell    18 P   1     bf   32 -    34          1.533368136939          0.032128981656         -0.177610309718
      0.1005430000D+00  0.1000000000D+01
 Atom Pa1      Shell    19 P   1     bf   35 -    37          1.533368136939          0.032128981656         -0.177610309718
      0.3019000000D-01  0.1000000000D+01
 Atom Pa1      Shell    20 D   6     bf   38 -    42          1.533368136939          0.032128981656         -0.177610309718
      0.4481499100D+03  0.6556927566D-04
      0.1544614500D+03  0.5749921096D-03
      0.6092537700D+02  0.2279793277D-02
      0.1703209100D+02  0.6467904664D-01
      0.1001887700D+02 -0.2666929411D+00
      0.3409193000D+01  0.1128376621D+01
 Atom Pa1      Shell    21 D   1     bf   43 -    47          1.533368136939          0.032128981656         -0.177610309718
      0.1670213000D+01  0.1000000000D+01
 Atom Pa1      Shell    22 D   1     bf   48 -    52          1.533368136939          0.032128981656         -0.177610309718
      0.7410950000D+00  0.1000000000D+01
 Atom Pa1      Shell    23 D   1     bf   53 -    57          1.533368136939          0.032128981656         -0.177610309718
      0.2613930000D+00  0.1000000000D+01
 Atom Pa1      Shell    24 D   1     bf   58 -    62          1.533368136939          0.032128981656         -0.177610309718
      0.8281100000D-01  0.1000000000D+01
 Atom Pa1      Shell    25 F   5     bf   63 -    69          1.533368136939          0.032128981656         -0.177610309718
      0.8799132700D+02  0.4766318191D-03
      0.2834019500D+02  0.4899184583D-02
      0.1244099400D+02  0.9669720755D-02
      0.3957296000D+01  0.3310292343D+00
      0.1875944000D+01  0.7275531640D+00
 Atom Pa1      Shell    26 F   1     bf   70 -    76          1.533368136939          0.032128981656         -0.177610309718
      0.8275890000D+00  0.1000000000D+01
 Atom Pa1      Shell    27 F   1     bf   77 -    83          1.533368136939          0.032128981656         -0.177610309718
      0.3327480000D+00  0.1000000000D+01
 Atom Pa1      Shell    28 F   1     bf   84 -    90          1.533368136939          0.032128981656         -0.177610309718
      0.1146850000D+00  0.1000000000D+01
 Atom Pa1      Shell    29 G   1     bf   91 -    99          1.533368136939          0.032128981656         -0.177610309718
      0.3500000000D+00  0.1000000000D+01
 Atom I2       Shell    30 S   5     bf  100 -   100         -4.381865114272         -0.030229953769         -0.092395209561
      0.5899579153D+04  0.2610056321D-03
      0.8985423877D+03  0.1669739989D-02
      0.2003723791D+03  0.4622329849D-02
      0.3141805384D+02 -0.4253426840D-01
      0.1564598784D+02  0.1036831842D+01
 Atom I2       Shell    31 S   2     bf  101 -   101         -4.381865114272         -0.030229953769         -0.092395209561
      0.1181574186D+02  0.6510798928D+00
      0.6461445829D+01  0.3642365936D+00
 Atom I2       Shell    32 S   1     bf  102 -   102         -4.381865114272         -0.030229953769         -0.092395209561
      0.2383806758D+01  0.1000000000D+01
 Atom I2       Shell    33 S   1     bf  103 -   103         -4.381865114272         -0.030229953769         -0.092395209561
      0.1171208966D+01  0.1000000000D+01
 Atom I2       Shell    34 S   1     bf  104 -   104         -4.381865114272         -0.030229953769         -0.092395209561
      0.3211587576D+00  0.1000000000D+01
 Atom I2       Shell    35 S   1     bf  105 -   105         -4.381865114272         -0.030229953769         -0.092395209561
      0.1238791936D+00  0.1000000000D+01
 Atom I2       Shell    36 P   4     bf  106 -   108         -4.381865114272         -0.030229953769         -0.092395209561
      0.1298431690D+02 -0.3868165906D-01
      0.3619950301D+01  0.3065970959D+00
      0.2023227309D+01  0.5169312450D+00
      0.1036749056D+01  0.2505722415D+00
 Atom I2       Shell    37 P   3     bf  109 -   111         -4.381865114272         -0.030229953769         -0.092395209561
      0.1973003055D+03  0.3192774173D-02
      0.2006141135D+02  0.2856760153D+00
      0.9763146048D+01 -0.1232820499D+01
 Atom I2       Shell    38 P   1     bf  112 -   114         -4.381865114272         -0.030229953769         -0.092395209561
      0.4593781600D+00  0.1000000000D+01
 Atom I2       Shell    39 P   1     bf  115 -   117         -4.381865114272         -0.030229953769         -0.092395209561
      0.1911653293D+00  0.1000000000D+01
 Atom I2       Shell    40 P   1     bf  118 -   120         -4.381865114272         -0.030229953769         -0.092395209561
      0.7487881302D-01  0.1000000000D+01
 Atom I2       Shell    41 D   6     bf  121 -   125         -4.381865114272         -0.030229953769         -0.092395209561
      0.1191267175D+03  0.8836386893D-03
      0.3340424013D+02  0.7315261132D-02
      0.1780591820D+02 -0.1102799620D-01
      0.4899051035D+01  0.2425357632D+00
      0.2451675311D+01  0.4726529041D+00
      0.1182069343D+01  0.3934356931D+00
 Atom I2       Shell    42 D   1     bf  126 -   130         -4.381865114272         -0.030229953769         -0.092395209561
      0.5292311007D+00  0.1000000000D+01
 Atom I2       Shell    43 D   1     bf  131 -   135         -4.381865114272         -0.030229953769         -0.092395209561
      0.1700000000D+00  0.1000000000D+01
 Atom I2       Shell    44 F   1     bf  136 -   142         -4.381865114272         -0.030229953769         -0.092395209561
      0.4414180800D+00  0.1000000000D+01
 Atom I2       Shell    45 F   1     bf  143 -   149         -4.381865114272         -0.030229953769         -0.092395209561
      0.2180000000D+01  0.1000000000D+01
 Atom H3       Shell    46 S   3     bf  150 -   150          2.310896264109         -0.976885751501          5.204219562274
      0.3406134100D+02  0.2543930721D-01
      0.5123574600D+01  0.1900859489D+00
      0.1164662600D+01  0.8524411301D+00
 Atom H3       Shell    47 S   1     bf  151 -   151          2.310896264109         -0.976885751501          5.204219562274
      0.3272304100D+00  0.1000000000D+01
 Atom H3       Shell    48 S   1     bf  152 -   152          2.310896264109         -0.976885751501          5.204219562274
      0.1030724100D+00  0.1000000000D+01
 Atom H3       Shell    49 P   1     bf  153 -   155          2.310896264109         -0.976885751501          5.204219562274
      0.8000000000D+00  0.1000000000D+01
 Atom O4       Shell    50 S   6     bf  156 -   156          1.823935382613         -0.019919812271          3.733052847745
      0.2703238263D+05  0.5722733521D-03
      0.4052387139D+04  0.4435323349D-02
      0.9223272271D+03  0.2302010771D-01
      0.2612407099D+03  0.9282249067D-01
      0.8535464135D+02  0.2937850001D+00
      0.3103503524D+02  0.6740160450D+00
 Atom O4       Shell    51 S   2     bf  157 -   157          1.823935382613         -0.019919812271          3.733052847745
      0.1226086073D+02  0.6383993703D+00
      0.4998707601D+01  0.3953458713D+00
 Atom O4       Shell    52 S   1     bf  158 -   158          1.823935382613         -0.019919812271          3.733052847745
      0.1170310816D+01  0.1000000000D+01
 Atom O4       Shell    53 S   1     bf  159 -   159          1.823935382613         -0.019919812271          3.733052847745
      0.4647474099D+00  0.1000000000D+01
 Atom O4       Shell    54 S   1     bf  160 -   160          1.823935382613         -0.019919812271          3.733052847745
      0.1850453636D+00  0.1000000000D+01
 Atom O4       Shell    55 P   4     bf  161 -   163          1.823935382613         -0.019919812271          3.733052847745
      0.6327495480D+02  0.1201833222D-01
      0.1462704938D+02  0.8300542179D-01
      0.4450122346D+01  0.3199174393D+00
      0.1527579965D+01  0.7071554292D+00
 Atom O4       Shell    56 P   1     bf  164 -   166          1.823935382613         -0.019919812271          3.733052847745
      0.5293511794D+00  0.1000000000D+01
 Atom O4       Shell    57 P   1     bf  167 -   169          1.823935382613         -0.019919812271          3.733052847745
      0.1747842127D+00  0.1000000000D+01
 Atom O4       Shell    58 D   1     bf  170 -   174          1.823935382613         -0.019919812271          3.733052847745
      0.2314000000D+01  0.1000000000D+01
 Atom O4       Shell    59 D   1     bf  175 -   179          1.823935382613         -0.019919812271          3.733052847745
      0.6450000000D+00  0.1000000000D+01
 Atom O4       Shell    60 F   1     bf  180 -   186          1.823935382613         -0.019919812271          3.733052847745
      0.1428000000D+01  0.1000000000D+01
 Atom H5       Shell    61 S   3     bf  187 -   187          1.290302084487          5.416045996079          0.861743509119
      0.3406134100D+02  0.2543930721D-01
      0.5123574600D+01  0.1900859489D+00
      0.1164662600D+01  0.8524411301D+00
 Atom H5       Shell    62 S   1     bf  188 -   188          1.290302084487          5.416045996079          0.861743509119
      0.3272304100D+00  0.1000000000D+01
 Atom H5       Shell    63 S   1     bf  189 -   189          1.290302084487          5.416045996079          0.861743509119
      0.1030724100D+00  0.1000000000D+01
 Atom H5       Shell    64 P   1     bf  190 -   192          1.290302084487          5.416045996079          0.861743509119
      0.8000000000D+00  0.1000000000D+01
 Atom O6       Shell    65 S   6     bf  193 -   193          1.466182904360         -3.880980656101         -0.342287707961
      0.2703238263D+05  0.5722733521D-03
      0.4052387139D+04  0.4435323349D-02
      0.9223272271D+03  0.2302010771D-01
      0.2612407099D+03  0.9282249067D-01
      0.8535464135D+02  0.2937850001D+00
      0.3103503524D+02  0.6740160450D+00
 Atom O6       Shell    66 S   2     bf  194 -   194          1.466182904360         -3.880980656101         -0.342287707961
      0.1226086073D+02  0.6383993703D+00
      0.4998707601D+01  0.3953458713D+00
 Atom O6       Shell    67 S   1     bf  195 -   195          1.466182904360         -3.880980656101         -0.342287707961
      0.1170310816D+01  0.1000000000D+01
 Atom O6       Shell    68 S   1     bf  196 -   196          1.466182904360         -3.880980656101         -0.342287707961
      0.4647474099D+00  0.1000000000D+01
 Atom O6       Shell    69 S   1     bf  197 -   197          1.466182904360         -3.880980656101         -0.342287707961
      0.1850453636D+00  0.1000000000D+01
 Atom O6       Shell    70 P   4     bf  198 -   200          1.466182904360         -3.880980656101         -0.342287707961
      0.6327495480D+02  0.1201833222D-01
      0.1462704938D+02  0.8300542179D-01
      0.4450122346D+01  0.3199174393D+00
      0.1527579965D+01  0.7071554292D+00
 Atom O6       Shell    71 P   1     bf  201 -   203          1.466182904360         -3.880980656101         -0.342287707961
      0.5293511794D+00  0.1000000000D+01
 Atom O6       Shell    72 P   1     bf  204 -   206          1.466182904360         -3.880980656101         -0.342287707961
      0.1747842127D+00  0.1000000000D+01
 Atom O6       Shell    73 D   1     bf  207 -   211          1.466182904360         -3.880980656101         -0.342287707961
      0.2314000000D+01  0.1000000000D+01
 Atom O6       Shell    74 D   1     bf  212 -   216          1.466182904360         -3.880980656101         -0.342287707961
      0.6450000000D+00  0.1000000000D+01
 Atom O6       Shell    75 F   1     bf  217 -   223          1.466182904360         -3.880980656101         -0.342287707961
      0.1428000000D+01  0.1000000000D+01
 Atom H7       Shell    76 S   3     bf  224 -   224          1.647180919646         -5.542570408427          0.387999525380
      0.3406134100D+02  0.2543930721D-01
      0.5123574600D+01  0.1900859489D+00
      0.1164662600D+01  0.8524411301D+00
 Atom H7       Shell    77 S   1     bf  225 -   225          1.647180919646         -5.542570408427          0.387999525380
      0.3272304100D+00  0.1000000000D+01
 Atom H7       Shell    78 S   1     bf  226 -   226          1.647180919646         -5.542570408427          0.387999525380
      0.1030724100D+00  0.1000000000D+01
 Atom H7       Shell    79 P   1     bf  227 -   229          1.647180919646         -5.542570408427          0.387999525380
      0.8000000000D+00  0.1000000000D+01
 Atom O8       Shell    80 S   6     bf  230 -   230          5.407126095120          0.057463606283         -1.141998264470
      0.2703238263D+05  0.5722733521D-03
      0.4052387139D+04  0.4435323349D-02
      0.9223272271D+03  0.2302010771D-01
      0.2612407099D+03  0.9282249067D-01
      0.8535464135D+02  0.2937850001D+00
      0.3103503524D+02  0.6740160450D+00
 Atom O8       Shell    81 S   2     bf  231 -   231          5.407126095120          0.057463606283         -1.141998264470
      0.1226086073D+02  0.6383993703D+00
      0.4998707601D+01  0.3953458713D+00
 Atom O8       Shell    82 S   1     bf  232 -   232          5.407126095120          0.057463606283         -1.141998264470
      0.1170310816D+01  0.1000000000D+01
 Atom O8       Shell    83 S   1     bf  233 -   233          5.407126095120          0.057463606283         -1.141998264470
      0.4647474099D+00  0.1000000000D+01
 Atom O8       Shell    84 S   1     bf  234 -   234          5.407126095120          0.057463606283         -1.141998264470
      0.1850453636D+00  0.1000000000D+01
 Atom O8       Shell    85 P   4     bf  235 -   237          5.407126095120          0.057463606283         -1.141998264470
      0.6327495480D+02  0.1201833222D-01
      0.1462704938D+02  0.8300542179D-01
      0.4450122346D+01  0.3199174393D+00
      0.1527579965D+01  0.7071554292D+00
 Atom O8       Shell    86 P   1     bf  238 -   240          5.407126095120          0.057463606283         -1.141998264470
      0.5293511794D+00  0.1000000000D+01
 Atom O8       Shell    87 P   1     bf  241 -   243          5.407126095120          0.057463606283         -1.141998264470
      0.1747842127D+00  0.1000000000D+01
 Atom O8       Shell    88 D   1     bf  244 -   248          5.407126095120          0.057463606283         -1.141998264470
      0.2314000000D+01  0.1000000000D+01
 Atom O8       Shell    89 D   1     bf  249 -   253          5.407126095120          0.057463606283         -1.141998264470
      0.6450000000D+00  0.1000000000D+01
 Atom O8       Shell    90 F   1     bf  254 -   260          5.407126095120          0.057463606283         -1.141998264470
      0.1428000000D+01  0.1000000000D+01
 Atom H9       Shell    91 S   3     bf  261 -   261          6.584685071324         -1.327561030914         -1.301200793106
      0.3406134100D+02  0.2543930721D-01
      0.5123574600D+01  0.1900859489D+00
      0.1164662600D+01  0.8524411301D+00
 Atom H9       Shell    92 S   1     bf  262 -   262          6.584685071324         -1.327561030914         -1.301200793106
      0.3272304100D+00  0.1000000000D+01
 Atom H9       Shell    93 S   1     bf  263 -   263          6.584685071324         -1.327561030914         -1.301200793106
      0.1030724100D+00  0.1000000000D+01
 Atom H9       Shell    94 P   1     bf  264 -   266          6.584685071324         -1.327561030914         -1.301200793106
      0.8000000000D+00  0.1000000000D+01
 Atom O10      Shell    95 S   6     bf  267 -   267          1.411416399833          3.982114538822         -0.260426564394
      0.2703238263D+05  0.5722733521D-03
      0.4052387139D+04  0.4435323349D-02
      0.9223272271D+03  0.2302010771D-01
      0.2612407099D+03  0.9282249067D-01
      0.8535464135D+02  0.2937850001D+00
      0.3103503524D+02  0.6740160450D+00
 Atom O10      Shell    96 S   2     bf  268 -   268          1.411416399833          3.982114538822         -0.260426564394
      0.1226086073D+02  0.6383993703D+00
      0.4998707601D+01  0.3953458713D+00
 Atom O10      Shell    97 S   1     bf  269 -   269          1.411416399833          3.982114538822         -0.260426564394
      0.1170310816D+01  0.1000000000D+01
 Atom O10      Shell    98 S   1     bf  270 -   270          1.411416399833          3.982114538822         -0.260426564394
      0.4647474099D+00  0.1000000000D+01
 Atom O10      Shell    99 S   1     bf  271 -   271          1.411416399833          3.982114538822         -0.260426564394
      0.1850453636D+00  0.1000000000D+01
 Atom O10      Shell   100 P   4     bf  272 -   274          1.411416399833          3.982114538822         -0.260426564394
      0.6327495480D+02  0.1201833222D-01
      0.1462704938D+02  0.8300542179D-01
      0.4450122346D+01  0.3199174393D+00
      0.1527579965D+01  0.7071554292D+00
 Atom O10      Shell   101 P   1     bf  275 -   277          1.411416399833          3.982114538822         -0.260426564394
      0.5293511794D+00  0.1000000000D+01
 Atom O10      Shell   102 P   1     bf  278 -   280          1.411416399833          3.982114538822         -0.260426564394
      0.1747842127D+00  0.1000000000D+01
 Atom O10      Shell   103 D   1     bf  281 -   285          1.411416399833          3.982114538822         -0.260426564394
      0.2314000000D+01  0.1000000000D+01
 Atom O10      Shell   104 D   1     bf  286 -   290          1.411416399833          3.982114538822         -0.260426564394
      0.6450000000D+00  0.1000000000D+01
 Atom O10      Shell   105 F   1     bf  291 -   297          1.411416399833          3.982114538822         -0.260426564394
      0.1428000000D+01  0.1000000000D+01
 Effective core potential in the form of general ECP input:
      1 0
 Pa1-ECP   5 60
 H component
  1
  2        1.0000000        0.00000000    0.00000000
 S-H projection
  1
  2       15.2691737      475.47573283    0.00000000
 P-H projection
  1
  2        9.9577370      207.66485962    0.00000000
 D-H projection
  1
  2        8.9431413      156.67411988    0.00000000
 F-H projection
  1
  2        7.0104666       67.98223685    0.00000000
 G-H projection
  1
  2       12.2010560      -57.63059989    0.00000000
      2 0
 I2-ECP   4 28
 G component
  1
  2        1.0000000        0.00000000    0.00000000
 S-G projection
  3
  2       40.0158350       49.99429300    0.00000000
  2       17.4297470      281.02531700    0.00000000
  2        9.0054840       61.57332600    0.00000000
 P-G projection
  4
  2       15.3554660       67.44284100    0.00000000
  2       14.9718330      134.88113700    0.00000000
  2        8.9601640       14.67505100    0.00000000
  2        8.2590960       29.37566600    0.00000000
 D-G projection
  6
  2       15.0689080       35.43952900    0.00000000
  2       14.5553220       53.17605700    0.00000000
  2        6.7186470        9.06719500    0.00000000
  2        6.4563930       13.20693700    0.00000000
  2        1.1917790        0.08933500    0.00000000
  2        1.2911570        0.05238000    0.00000000
 F-G projection
  4
  2       19.4586090      -21.84204000    0.00000000
  2       19.3492600      -28.46819100    0.00000000
  2        4.8237670       -0.24371300    0.00000000
  2        4.8843150       -0.32080400    0.00000000
 
 There are   349 symmetry adapted cartesian basis functions of A   symmetry.
 There are   297 symmetry adapted basis functions of A   symmetry.
   297 basis functions,   553 primitive gaussians,   349 cartesian basis functions
    46 alpha electrons       46 beta electrons
       nuclear repulsion energy       616.9370722908 Hartrees.
 IExCor=  404 DFT=T Ex=B Corr=P86 ExCW=0 ScaHFX=  0.000000
 ScaDFX=  1.000000  1.000000  1.000000  1.000000 ScalE2=  1.000000  1.000000
 IRadAn=      5 IRanWt=     -1 IRanGd=            0 ICorTp=0 IEmpDi=  4
 NAtoms=   10 NActive=   10 NUniq=   10 SFac= 1.00D+00 NAtFMM=   60 NAOKFM=F Big=F
 Integral buffers will be    131072 words long.
 Raffenetti 2 integral format.
 Two-electron integral symmetry is turned on.
 Leave Link  301 at Wed Jun 28 18:32:47 2023, MaxMem=  2147483648 cpu:               8.0 elap:              14.6
 (Enter /home/pcmt/gaussian/g16.C.01/g16/l302.exe)
 NPDir=0 NMtPBC=     1 NCelOv=     1 NCel=       1 NClECP=     1 NCelD=      1
         NCelK=      1 NCelE2=     1 NClLst=     1 CellRange=     0.0.
 One-electron integrals computed using PRISM.
 One-electron integral symmetry used in STVInt
   1 Symmetry operations used in ECPInt.
 ECPInt:  NShTT=    5565 NPrTT=   16647 LenC2=    5300 LenP2D=   12124.
 LDataN:  DoStor=T MaxTD1= 9 Len=  602
 NBasis=   297 RedAO= T EigKep=  5.70D-04  NBF=   297
 NBsUse=   297 1.00D-06 EigRej= -1.00D+00 NBFU=   297
 Precomputing XC quadrature grid using
 IXCGrd= 4 IRadAn=           5 IRanWt=          -1 IRanGd=           0 AccXCQ= 0.00D+00.
 Defaulting to unpruned grid for atomic number  91.
 Generated NRdTot=       0 NPtTot=           0 NUsed=           0 NTot=          32
 NSgBfM=   344   343   344   344   344 MxSgAt=    10 MxSgA2=    10.
 Leave Link  302 at Wed Jun 28 18:33:21 2023, MaxMem=  2147483648 cpu:              46.8 elap:              33.4
 (Enter /home/pcmt/gaussian/g16.C.01/g16/l303.exe)
 DipDrv:  MaxL=1.
 Leave Link  303 at Wed Jun 28 18:33:29 2023, MaxMem=  2147483648 cpu:               4.7 elap:               7.5
 (Enter /home/pcmt/gaussian/g16.C.01/g16/l401.exe)
 ExpMin= 2.32D-02 ExpMax= 2.70D+04 ExpMxC= 1.20D+04 IAcc=3 IRadAn=         5 AccDes= 0.00D+00
 Harris functional with IExCor=  404 and IRadAn=       5 diagonalized for initial guess.
 HarFok:  IExCor=  404 AccDes= 0.00D+00 IRadAn=         5 IDoV= 1 UseB2=F ITyADJ=14
 ICtDFT=  3500011 ScaDFX=  1.000000  1.000000  1.000000  1.000000
 Defaulting to unpruned grid for atomic number  91.
 FoFCou: FMM=F IPFlag=           0 FMFlag=      100000 FMFlg1=           0
         NFxFlg=           0 DoJE=T BraDBF=F KetDBF=T FulRan=T
         wScrn=  0.000000 ICntrl=       500 IOpCl=  0 I1Cent=   200000004 NGrid=           0
         NMat0=    1 NMatS0=      1 NMatT0=    0 NMatD0=    1 NMtDS0=    0 NMtDT0=    0
 Petite list used in FoFCou.
 Harris En= -1044.87161892792    
 JPrj=0 DoOrth=F DoCkMO=F.
 Leave Link  401 at Wed Jun 28 18:34:03 2023, MaxMem=  2147483648 cpu:              55.6 elap:              34.7
 (Enter /home/pcmt/gaussian/g16.C.01/g16/l502.exe)
 Keep J ints in memory in canonical form, NReq=1000625204.
 FoFCou: FMM=F IPFlag=           0 FMFlag=           0 FMFlg1=           0
         NFxFlg=           0 DoJE=F BraDBF=F KetDBF=F FulRan=T
         wScrn=  0.000000 ICntrl=       600 IOpCl=  0 I1Cent=           0 NGrid=           0
         NMat0=    1 NMatS0=  44253 NMatT0=    0 NMatD0=    1 NMtDS0=    0 NMtDT0=    0
 Symmetry not used in FoFCou.
 Two-electron integral symmetry not used.
 Closed shell SCF:
 Using DIIS extrapolation, IDIIS=  1040.
 NGot=  2147483648 LenX=  1168047901 LenY=  1167925659
 Requested convergence on RMS density matrix=1.00D-08 within 200 cycles.
 Requested convergence on MAX density matrix=1.00D-06.
 Requested convergence on             energy=1.00D-06.
 No special actions if energy rises.

 Cycle   1  Pass 1  IDiag  1:
 Defaulting to unpruned grid for atomic number  91.
 Defaulting to unpruned grid for atomic number  91.
 Defaulting to unpruned grid for atomic number  91.
 Defaulting to unpruned grid for atomic number  91.
 Defaulting to unpruned grid for atomic number  91.
 Defaulting to unpruned grid for atomic number  91.
 Defaulting to unpruned grid for atomic number  91.
 Defaulting to unpruned grid for atomic number  91.
 E= -1042.19738142377    
 DIIS: error= 3.45D-02 at cycle   1 NSaved=   1.
 NSaved= 1 IEnMin= 1 EnMin= -1042.19738142377     IErMin= 1 ErrMin= 3.45D-02
 ErrMax= 3.45D-02  0.00D+00 EMaxC= 1.00D-01 BMatC= 1.44D+00 BMatP= 1.44D+00
 IDIUse=3 WtCom= 6.55D-01 WtEn= 3.45D-01
 Coeff-Com:  0.100D+01
 Coeff-En:   0.100D+01
 Coeff:      0.100D+01
 Gap=     0.105 Goal=   None    Shift=    0.000
 GapD=    0.105 DampG=1.000 DampE=0.250 DampFc=0.2500 IDamp=-1.
 Damping current iteration by 2.50D-01
 RMSDP=1.47D-02 MaxDP=1.51D+00              OVMax= 9.86D-01

 Cycle   2  Pass 1  IDiag  1:
 E= -1039.77708115124     Delta-E=        2.420300272529 Rises=F Damp=T
 DIIS: error= 4.11D-02 at cycle   2 NSaved=   2.
 NSaved= 2 IEnMin= 1 EnMin= -1042.19738142377     IErMin= 1 ErrMin= 3.45D-02
 ErrMax= 4.11D-02  0.00D+00 EMaxC= 1.00D-01 BMatC= 1.57D+00 BMatP= 1.44D+00
 IDIUse=3 WtCom= 5.89D-01 WtEn= 4.11D-01
 Coeff-Com:  0.513D+00 0.487D+00
 Coeff-En:   0.745D+00 0.255D+00
 Coeff:      0.608D+00 0.392D+00
 Gap=     0.014 Goal=   None    Shift=    0.000
 RMSDP=4.04D-03 MaxDP=1.50D-01 DE= 2.42D+00 OVMax= 9.48D-01

 Cycle   3  Pass 1  IDiag  1:
 E= -1042.47011625380     Delta-E=       -2.693035102556 Rises=F Damp=F
 DIIS: error= 3.87D-02 at cycle   3 NSaved=   3.
 NSaved= 3 IEnMin= 3 EnMin= -1042.47011625380     IErMin= 1 ErrMin= 3.45D-02
 ErrMax= 3.87D-02  0.00D+00 EMaxC= 1.00D-01 BMatC= 8.92D-01 BMatP= 1.44D+00
 IDIUse=3 WtCom= 6.13D-01 WtEn= 3.87D-01
 EnCoef did     3 forward-backward iterations
 Coeff-Com:  0.325D+00 0.338D+00 0.337D+00
 Coeff-En:   0.386D+00 0.137D+00 0.476D+00
 Coeff:      0.349D+00 0.260D+00 0.391D+00
 Gap=     0.250 Goal=   None    Shift=    0.000
 RMSDP=3.55D-03 MaxDP=1.76D-01 DE=-2.69D+00 OVMax= 2.64D-01

 Cycle   4  Pass 1  IDiag  1:
 E= -1043.16608342224     Delta-E=       -0.695967168445 Rises=F Damp=F
 DIIS: error= 6.69D-03 at cycle   4 NSaved=   4.
 NSaved= 4 IEnMin= 4 EnMin= -1043.16608342224     IErMin= 4 ErrMin= 6.69D-03
 ErrMax= 6.69D-03  0.00D+00 EMaxC= 1.00D-01 BMatC= 4.29D-02 BMatP= 8.92D-01
 IDIUse=3 WtCom= 9.33D-01 WtEn= 6.69D-02
 Coeff-Com:  0.106D-01 0.594D-01 0.173D+00 0.757D+00
 Coeff-En:   0.000D+00 0.000D+00 0.166D-01 0.983D+00
 Coeff:      0.990D-02 0.554D-01 0.162D+00 0.772D+00
 Gap=     0.117 Goal=   None    Shift=    0.000
 RMSDP=1.20D-03 MaxDP=4.62D-02 DE=-6.96D-01 OVMax= 1.77D-01

 Cycle   5  Pass 1  IDiag  1:
 E= -1043.17107026288     Delta-E=       -0.004986840636 Rises=F Damp=F
 DIIS: error= 6.96D-03 at cycle   5 NSaved=   5.
 NSaved= 5 IEnMin= 5 EnMin= -1043.17107026288     IErMin= 4 ErrMin= 6.69D-03
 ErrMax= 6.96D-03  0.00D+00 EMaxC= 1.00D-01 BMatC= 3.32D-02 BMatP= 4.29D-02
 IDIUse=3 WtCom= 9.30D-01 WtEn= 6.96D-02
 Coeff-Com: -0.330D-01 0.340D-01 0.559D-01 0.522D+00 0.422D+00
 Coeff-En:   0.000D+00 0.000D+00 0.000D+00 0.473D+00 0.527D+00
 Coeff:     -0.307D-01 0.317D-01 0.520D-01 0.518D+00 0.429D+00
 Gap=     0.075 Goal=   None    Shift=    0.000
 RMSDP=6.30D-04 MaxDP=3.54D-02 DE=-4.99D-03 OVMax= 8.58D-02

 Cycle   6  Pass 1  IDiag  1:
 E= -1043.20855296299     Delta-E=       -0.037482700114 Rises=F Damp=F
 DIIS: error= 1.43D-03 at cycle   6 NSaved=   6.
 NSaved= 6 IEnMin= 6 EnMin= -1043.20855296299     IErMin= 6 ErrMin= 1.43D-03
 ErrMax= 1.43D-03  0.00D+00 EMaxC= 1.00D-01 BMatC= 1.83D-03 BMatP= 3.32D-02
 IDIUse=3 WtCom= 9.86D-01 WtEn= 1.43D-02
 Coeff-Com: -0.179D-01 0.393D-02-0.165D-01 0.133D+00 0.144D+00 0.753D+00
 Coeff-En:   0.000D+00 0.000D+00 0.000D+00 0.000D+00 0.000D+00 0.100D+01
 Coeff:     -0.177D-01 0.387D-02-0.163D-01 0.131D+00 0.142D+00 0.757D+00
 Gap=     0.060 Goal=   None    Shift=    0.000
 RMSDP=3.11D-04 MaxDP=1.90D-02 DE=-3.75D-02 OVMax= 3.35D-02

 Cycle   7  Pass 1  IDiag  1:
 E= -1043.21036013485     Delta-E=       -0.001807171855 Rises=F Damp=F
 DIIS: error= 1.49D-03 at cycle   7 NSaved=   7.
 NSaved= 7 IEnMin= 7 EnMin= -1043.21036013485     IErMin= 6 ErrMin= 1.43D-03
 ErrMax= 1.49D-03  0.00D+00 EMaxC= 1.00D-01 BMatC= 2.36D-03 BMatP= 1.83D-03
 IDIUse=3 WtCom= 9.86D-01 WtEn= 1.43D-02
 Coeff-Com:  0.153D-03-0.201D-02-0.141D-01 0.133D-01 0.525D-01 0.563D+00
 Coeff-Com:  0.387D+00
 Coeff-En:   0.000D+00 0.000D+00 0.000D+00 0.000D+00 0.000D+00 0.160D+00
 Coeff-En:   0.840D+00
 Coeff:      0.151D-03-0.198D-02-0.139D-01 0.131D-01 0.517D-01 0.558D+00
 Coeff:      0.393D+00
 Gap=     0.062 Goal=   None    Shift=    0.000
 RMSDP=1.55D-04 MaxDP=8.73D-03 DE=-1.81D-03 OVMax= 1.42D-02

 Cycle   8  Pass 1  IDiag  1:
 E= -1043.21175671090     Delta-E=       -0.001396576049 Rises=F Damp=F
 DIIS: error= 1.84D-03 at cycle   8 NSaved=   8.
 NSaved= 8 IEnMin= 8 EnMin= -1043.21175671090     IErMin= 6 ErrMin= 1.43D-03
 ErrMax= 1.84D-03  0.00D+00 EMaxC= 1.00D-01 BMatC= 2.48D-03 BMatP= 1.83D-03
 IDIUse=3 WtCom= 9.86D-01 WtEn= 1.43D-02
 Coeff-Com:  0.116D-01-0.301D-02-0.715D-02-0.264D-01 0.309D-01 0.396D+00
 Coeff-Com:  0.270D+00 0.329D+00
 Coeff-En:   0.000D+00 0.000D+00 0.000D+00 0.000D+00 0.000D+00 0.000D+00
 Coeff-En:   0.000D+00 0.100D+01
 Coeff:      0.114D-01-0.297D-02-0.705D-02-0.260D-01 0.304D-01 0.390D+00
 Coeff:      0.266D+00 0.338D+00
 Gap=     0.062 Goal=   None    Shift=    0.000
 RMSDP=7.51D-05 MaxDP=4.33D-03 DE=-1.40D-03 OVMax= 9.50D-03

 Cycle   9  Pass 1  IDiag  1:
 E= -1043.21195392425     Delta-E=       -0.000197213350 Rises=F Damp=F
 DIIS: error= 2.03D-03 at cycle   9 NSaved=   9.
 NSaved= 9 IEnMin= 9 EnMin= -1043.21195392425     IErMin= 6 ErrMin= 1.43D-03
 ErrMax= 2.03D-03  0.00D+00 EMaxC= 1.00D-01 BMatC= 2.66D-03 BMatP= 1.83D-03
 IDIUse=3 WtCom= 9.86D-01 WtEn= 1.43D-02
 Coeff-Com:  0.107D-01-0.210D-02-0.285D-02 0.267D-01 0.831D-01 0.391D+00
 Coeff-Com: -0.182D+00-0.515D+00 0.119D+01
 Coeff-En:   0.000D+00 0.000D+00 0.000D+00 0.000D+00 0.000D+00 0.000D+00
 Coeff-En:   0.000D+00 0.000D+00 0.100D+01
 Coeff:      0.105D-01-0.207D-02-0.281D-02 0.263D-01 0.819D-01 0.385D+00
 Coeff:     -0.179D+00-0.508D+00 0.119D+01
 Gap=     0.063 Goal=   None    Shift=    0.000
 RMSDP=1.34D-04 MaxDP=1.25D-02 DE=-1.97D-04 OVMax= 1.27D-02

 Cycle  10  Pass 1  IDiag  1:
 E= -1043.21211959351     Delta-E=       -0.000165669259 Rises=F Damp=F
 DIIS: error= 1.26D-03 at cycle  10 NSaved=  10.
 NSaved=10 IEnMin=10 EnMin= -1043.21211959351     IErMin=10 ErrMin= 1.26D-03
 ErrMax= 1.26D-03  0.00D+00 EMaxC= 1.00D-01 BMatC= 7.52D-04 BMatP= 1.83D-03
 IDIUse=3 WtCom= 9.87D-01 WtEn= 1.26D-02
 Coeff-Com: -0.136D-02-0.383D-02-0.212D-03 0.707D-01 0.130D+00 0.120D+00
 Coeff-Com: -0.584D+00-0.129D+01 0.161D+01 0.945D+00
 Coeff-En:   0.000D+00 0.000D+00 0.000D+00 0.000D+00 0.000D+00 0.000D+00
 Coeff-En:   0.000D+00 0.000D+00 0.305D+00 0.695D+00
 Coeff:     -0.134D-02-0.379D-02-0.209D-03 0.699D-01 0.128D+00 0.119D+00
 Coeff:     -0.577D+00-0.127D+01 0.159D+01 0.942D+00
 Gap=     0.069 Goal=   None    Shift=    0.000
 RMSDP=1.04D-04 MaxDP=6.63D-03 DE=-1.66D-04 OVMax= 1.43D-02

 Cycle  11  Pass 1  IDiag  1:
 E= -1043.21307991350     Delta-E=       -0.000960319997 Rises=F Damp=F
 DIIS: error= 7.61D-04 at cycle  11 NSaved=  11.
 NSaved=11 IEnMin=11 EnMin= -1043.21307991350     IErMin=11 ErrMin= 7.61D-04
 ErrMax= 7.61D-04  0.00D+00 EMaxC= 1.00D-01 BMatC= 1.92D-04 BMatP= 7.52D-04
 IDIUse=3 WtCom= 9.92D-01 WtEn= 7.61D-03
 Coeff-Com:  0.584D-03-0.161D-02 0.168D-02 0.171D-01 0.456D-01-0.104D+00
 Coeff-Com: -0.476D+00-0.722D+00 0.114D+01 0.274D+00 0.828D+00
 Coeff-En:   0.000D+00 0.000D+00 0.000D+00 0.000D+00 0.000D+00 0.000D+00
 Coeff-En:   0.000D+00 0.000D+00 0.160D+00 0.000D+00 0.840D+00
 Coeff:      0.580D-03-0.160D-02 0.167D-02 0.170D-01 0.452D-01-0.103D+00
 Coeff:     -0.472D+00-0.716D+00 0.113D+01 0.271D+00 0.828D+00
 Gap=     0.068 Goal=   None    Shift=    0.000
 RMSDP=2.33D-04 MaxDP=1.33D-02 DE=-9.60D-04 OVMax= 3.25D-02

 Cycle  12  Pass 1  IDiag  1:
 E= -1043.21278958798     Delta-E=        0.000290325524 Rises=F Damp=F
 DIIS: error= 1.31D-03 at cycle  12 NSaved=  12.
 NSaved=12 IEnMin=11 EnMin= -1043.21307991350     IErMin=11 ErrMin= 7.61D-04
 ErrMax= 1.31D-03  0.00D+00 EMaxC= 1.00D-01 BMatC= 8.91D-04 BMatP= 1.92D-04
 IDIUse=3 WtCom= 9.92D-01 WtEn= 7.61D-03
 Coeff-Com: -0.120D-02-0.400D-03-0.661D-03 0.145D-01 0.330D-01-0.154D-01
 Coeff-Com: -0.259D+00-0.489D+00 0.586D+00 0.223D+00 0.670D+00 0.241D+00
 Coeff-En:   0.000D+00 0.000D+00 0.000D+00 0.000D+00 0.000D+00 0.000D+00
 Coeff-En:   0.000D+00 0.000D+00 0.000D+00 0.000D+00 0.589D+00 0.411D+00
 Coeff:     -0.119D-02-0.397D-03-0.656D-03 0.144D-01 0.327D-01-0.153D-01
 Coeff:     -0.257D+00-0.486D+00 0.581D+00 0.221D+00 0.669D+00 0.242D+00
 Gap=     0.069 Goal=   None    Shift=    0.000
 RMSDP=1.24D-04 MaxDP=6.67D-03 DE= 2.90D-04 OVMax= 1.77D-02

 Cycle  13  Pass 1  IDiag  1:
 E= -1043.21356474661     Delta-E=       -0.000775158633 Rises=F Damp=F
 DIIS: error= 1.94D-04 at cycle  13 NSaved=  13.
 NSaved=13 IEnMin=13 EnMin= -1043.21356474661     IErMin=13 ErrMin= 1.94D-04
 ErrMax= 1.94D-04  0.00D+00 EMaxC= 1.00D-01 BMatC= 1.06D-05 BMatP= 1.92D-04
 IDIUse=3 WtCom= 9.98D-01 WtEn= 1.94D-03
 Coeff-Com: -0.135D-03-0.951D-04-0.257D-03-0.148D-03 0.289D-02-0.110D-01
 Coeff-Com: -0.234D-01-0.159D-01-0.435D-02-0.347D-01 0.201D+00 0.749D-01
 Coeff-Com:  0.812D+00
 Coeff-En:   0.000D+00 0.000D+00 0.000D+00 0.000D+00 0.000D+00 0.000D+00
 Coeff-En:   0.000D+00 0.000D+00 0.000D+00 0.000D+00 0.000D+00 0.000D+00
 Coeff-En:   0.100D+01
 Coeff:     -0.135D-03-0.950D-04-0.257D-03-0.148D-03 0.288D-02-0.109D-01
 Coeff:     -0.233D-01-0.159D-01-0.434D-02-0.346D-01 0.200D+00 0.748D-01
 Coeff:      0.812D+00
 Gap=     0.065 Goal=   None    Shift=    0.000
 RMSDP=1.39D-05 MaxDP=7.33D-04 DE=-7.75D-04 OVMax= 1.79D-03

 Cycle  14  Pass 1  IDiag  1:
 E= -1043.21357002690     Delta-E=       -0.000005280284 Rises=F Damp=F
 DIIS: error= 7.78D-05 at cycle  14 NSaved=  14.
 NSaved=14 IEnMin=14 EnMin= -1043.21357002690     IErMin=14 ErrMin= 7.78D-05
 ErrMax= 7.78D-05  0.00D+00 EMaxC= 1.00D-01 BMatC= 5.75D-06 BMatP= 1.06D-05
 IDIUse=1 WtCom= 1.00D+00 WtEn= 0.00D+00
 Coeff-Com: -0.491D-04-0.539D-04-0.757D-04-0.427D-03 0.606D-03-0.466D-02
 Coeff-Com: -0.898D-03 0.126D-01-0.406D-01-0.286D-01 0.958D-01 0.168D-01
 Coeff-Com:  0.531D+00 0.419D+00
 Coeff:     -0.491D-04-0.539D-04-0.757D-04-0.427D-03 0.606D-03-0.466D-02
 Coeff:     -0.898D-03 0.126D-01-0.406D-01-0.286D-01 0.958D-01 0.168D-01
 Coeff:      0.531D+00 0.419D+00
 Gap=     0.066 Goal=   None    Shift=    0.000
 RMSDP=5.79D-06 MaxDP=3.36D-04 DE=-5.28D-06 OVMax= 7.90D-04

 Cycle  15  Pass 1  IDiag  1:
 E= -1043.21357384143     Delta-E=       -0.000003814537 Rises=F Damp=F
 DIIS: error= 3.19D-05 at cycle  15 NSaved=  15.
 NSaved=15 IEnMin=15 EnMin= -1043.21357384143     IErMin=15 ErrMin= 3.19D-05
 ErrMax= 3.19D-05  0.00D+00 EMaxC= 1.00D-01 BMatC= 9.57D-07 BMatP= 5.75D-06
 IDIUse=1 WtCom= 1.00D+00 WtEn= 0.00D+00
 Coeff-Com: -0.135D-04-0.202D-04 0.454D-04-0.510D-04-0.188D-03-0.637D-03
 Coeff-Com:  0.558D-02 0.134D-01-0.358D-01-0.132D-01 0.290D-01-0.125D-01
 Coeff-Com:  0.240D+00 0.329D+00 0.445D+00
 Coeff:     -0.135D-04-0.202D-04 0.454D-04-0.510D-04-0.188D-03-0.637D-03
 Coeff:      0.558D-02 0.134D-01-0.358D-01-0.132D-01 0.290D-01-0.125D-01
 Coeff:      0.240D+00 0.329D+00 0.445D+00
 Gap=     0.066 Goal=   None    Shift=    0.000
 RMSDP=3.75D-06 MaxDP=2.29D-04 DE=-3.81D-06 OVMax= 5.08D-04

 Cycle  16  Pass 1  IDiag  1:
 E= -1043.21357438871     Delta-E=       -0.000000547272 Rises=F Damp=F
 DIIS: error= 3.08D-06 at cycle  16 NSaved=  16.
 NSaved=16 IEnMin=16 EnMin= -1043.21357438871     IErMin=16 ErrMin= 3.08D-06
 ErrMax= 3.08D-06  0.00D+00 EMaxC= 1.00D-01 BMatC= 8.55D-09 BMatP= 9.57D-07
 IDIUse=1 WtCom= 1.00D+00 WtEn= 0.00D+00
 Coeff-Com: -0.988D-07-0.524D-05 0.354D-04 0.134D-03-0.198D-03 0.563D-03
 Coeff-Com:  0.258D-02 0.360D-02-0.130D-01-0.279D-02 0.495D-02-0.816D-02
 Coeff-Com:  0.652D-01 0.132D+00 0.258D+00 0.557D+00
 Coeff:     -0.988D-07-0.524D-05 0.354D-04 0.134D-03-0.198D-03 0.563D-03
 Coeff:      0.258D-02 0.360D-02-0.130D-01-0.279D-02 0.495D-02-0.816D-02
 Coeff:      0.652D-01 0.132D+00 0.258D+00 0.557D+00
 Gap=     0.066 Goal=   None    Shift=    0.000
 RMSDP=6.27D-07 MaxDP=4.13D-05 DE=-5.47D-07 OVMax= 6.06D-05

 Cycle  17  Pass 1  IDiag  1:
 E= -1043.21357440946     Delta-E=       -0.000000020753 Rises=F Damp=F
 DIIS: error= 6.39D-06 at cycle  17 NSaved=  17.
 NSaved=17 IEnMin=17 EnMin= -1043.21357440946     IErMin=16 ErrMin= 3.08D-06
 ErrMax= 6.39D-06  0.00D+00 EMaxC= 1.00D-01 BMatC= 1.86D-08 BMatP= 8.55D-09
 IDIUse=1 WtCom= 1.00D+00 WtEn= 0.00D+00
 Coeff-Com: -0.366D-06-0.124D-05 0.133D-04 0.334D-04-0.870D-04-0.103D-04
 Coeff-Com:  0.477D-03 0.836D-03-0.170D-02-0.124D-02-0.861D-03 0.904D-03
 Coeff-Com:  0.306D-02 0.208D-01 0.523D-01 0.154D+00 0.772D+00
 Coeff:     -0.366D-06-0.124D-05 0.133D-04 0.334D-04-0.870D-04-0.103D-04
 Coeff:      0.477D-03 0.836D-03-0.170D-02-0.124D-02-0.861D-03 0.904D-03
 Coeff:      0.306D-02 0.208D-01 0.523D-01 0.154D+00 0.772D+00
 Gap=     0.066 Goal=   None    Shift=    0.000
 RMSDP=7.54D-07 MaxDP=4.25D-05 DE=-2.08D-08 OVMax= 1.02D-04

 Cycle  18  Pass 1  IDiag  1:
 E= -1043.21357447036     Delta-E=       -0.000000060906 Rises=F Damp=F
 DIIS: error= 3.32D-07 at cycle  18 NSaved=  18.
 NSaved=18 IEnMin=18 EnMin= -1043.21357447036     IErMin=18 ErrMin= 3.32D-07
 ErrMax= 3.32D-07  0.00D+00 EMaxC= 1.00D-01 BMatC= 8.93D-11 BMatP= 8.55D-09
 IDIUse=1 WtCom= 1.00D+00 WtEn= 0.00D+00
 Coeff-Com: -0.468D-06-0.631D-06 0.764D-05 0.187D-04-0.494D-04-0.326D-04
 Coeff-Com:  0.251D-03 0.513D-03-0.683D-03-0.761D-03-0.915D-03 0.995D-03
 Coeff-Com: -0.108D-02 0.780D-02 0.225D-01 0.754D-01 0.525D+00 0.371D+00
 Coeff:     -0.468D-06-0.631D-06 0.764D-05 0.187D-04-0.494D-04-0.326D-04
 Coeff:      0.251D-03 0.513D-03-0.683D-03-0.761D-03-0.915D-03 0.995D-03
 Coeff:     -0.108D-02 0.780D-02 0.225D-01 0.754D-01 0.525D+00 0.371D+00
 Gap=     0.066 Goal=   None    Shift=    0.000
 RMSDP=3.16D-08 MaxDP=1.38D-06 DE=-6.09D-08 OVMax= 3.06D-06

 Cycle  19  Pass 1  IDiag  1:
 E= -1043.21357447040     Delta-E=       -0.000000000040 Rises=F Damp=F
 DIIS: error= 2.19D-07 at cycle  19 NSaved=  19.
 NSaved=19 IEnMin=19 EnMin= -1043.21357447040     IErMin=19 ErrMin= 2.19D-07
 ErrMax= 2.19D-07  0.00D+00 EMaxC= 1.00D-01 BMatC= 4.21D-11 BMatP= 8.93D-11
 IDIUse=1 WtCom= 1.00D+00 WtEn= 0.00D+00
 Coeff-Com: -0.153D-06-0.276D-06 0.279D-05 0.799D-05-0.191D-04-0.165D-04
 Coeff-Com:  0.108D-03 0.245D-03-0.243D-03-0.324D-03-0.467D-03 0.523D-03
 Coeff-Com: -0.121D-02 0.179D-02 0.638D-02 0.270D-01 0.236D+00 0.270D+00
 Coeff-Com:  0.460D+00
 Coeff:     -0.153D-06-0.276D-06 0.279D-05 0.799D-05-0.191D-04-0.165D-04
 Coeff:      0.108D-03 0.245D-03-0.243D-03-0.324D-03-0.467D-03 0.523D-03
 Coeff:     -0.121D-02 0.179D-02 0.638D-02 0.270D-01 0.236D+00 0.270D+00
 Coeff:      0.460D+00
 Gap=     0.066 Goal=   None    Shift=    0.000
 RMSDP=1.52D-08 MaxDP=7.78D-07 DE=-4.00D-11 OVMax= 1.74D-06

 Cycle  20  Pass 1  IDiag  1:
 E= -1043.21357447043     Delta-E=       -0.000000000021 Rises=F Damp=F
 DIIS: error= 9.33D-08 at cycle  20 NSaved=  20.
 NSaved=20 IEnMin=20 EnMin= -1043.21357447043     IErMin=20 ErrMin= 9.33D-08
 ErrMax= 9.33D-08  0.00D+00 EMaxC= 1.00D-01 BMatC= 7.64D-12 BMatP= 4.21D-11
 IDIUse=1 WtCom= 1.00D+00 WtEn= 0.00D+00
 Coeff-Com:  0.418D-07-0.504D-07 0.254D-06 0.236D-05-0.242D-05-0.108D-05
 Coeff-Com:  0.279D-04 0.654D-04-0.649D-04-0.621D-04-0.890D-04 0.977D-04
 Coeff-Com: -0.367D-03-0.120D-03-0.380D-04 0.313D-02 0.460D-01 0.896D-01
 Coeff-Com:  0.269D+00 0.593D+00
 Coeff:      0.418D-07-0.504D-07 0.254D-06 0.236D-05-0.242D-05-0.108D-05
 Coeff:      0.279D-04 0.654D-04-0.649D-04-0.621D-04-0.890D-04 0.977D-04
 Coeff:     -0.367D-03-0.120D-03-0.380D-04 0.313D-02 0.460D-01 0.896D-01
 Coeff:      0.269D+00 0.593D+00
 Gap=     0.066 Goal=   None    Shift=    0.000
 RMSDP=1.30D-08 MaxDP=7.19D-07 DE=-2.09D-11 OVMax= 1.69D-06

 Cycle  21  Pass 1  IDiag  1:
 E= -1043.21357447045     Delta-E=       -0.000000000029 Rises=F Damp=F
 DIIS: error= 2.65D-08 at cycle  21 NSaved=  20.
 NSaved=20 IEnMin=20 EnMin= -1043.21357447045     IErMin=20 ErrMin= 2.65D-08
 ErrMax= 2.65D-08  0.00D+00 EMaxC= 1.00D-01 BMatC= 2.16D-13 BMatP= 7.64D-12
 IDIUse=1 WtCom= 1.00D+00 WtEn= 0.00D+00
 Coeff-Com:  0.260D-07 0.545D-08 0.542D-06-0.231D-06-0.127D-05 0.596D-05
 Coeff-Com:  0.173D-04-0.134D-04-0.173D-04-0.178D-04 0.244D-04-0.127D-03
 Coeff-Com: -0.177D-03-0.433D-03-0.233D-03 0.810D-02 0.232D-01 0.932D-01
 Coeff-Com:  0.266D+00 0.610D+00
 Coeff:      0.260D-07 0.545D-08 0.542D-06-0.231D-06-0.127D-05 0.596D-05
 Coeff:      0.173D-04-0.134D-04-0.173D-04-0.178D-04 0.244D-04-0.127D-03
 Coeff:     -0.177D-03-0.433D-03-0.233D-03 0.810D-02 0.232D-01 0.932D-01
 Coeff:      0.266D+00 0.610D+00
 Gap=     0.066 Goal=   None    Shift=    0.000
 RMSDP=2.92D-09 MaxDP=1.64D-07 DE=-2.91D-11 OVMax= 3.76D-07

 SCF Done:  E(RB-P86) =  -1043.21357447     A.U. after   21 cycles
            NFock= 21  Conv=0.29D-08     -V/T= 2.7909
 KE= 5.825161753494D+02 PE=-3.505890398964D+03 EE= 1.263223576854D+03
 Leave Link  502 at Wed Jun 28 18:40:16 2023, MaxMem=  2147483648 cpu:            1250.9 elap:             372.2
 (Enter /home/pcmt/gaussian/g16.C.01/g16/l601.exe)
 Copying SCF densities to generalized density rwf, IOpCl= 0 IROHF=0.

 **********************************************************************

            Population analysis using the SCF Density.

 **********************************************************************

 Orbital symmetries:
       Occupied  (A) (A) (A) (A) (A) (A) (A) (A) (A) (A) (A) (A)
                 (A) (A) (A) (A) (A) (A) (A) (A) (A) (A) (A) (A)
                 (A) (A) (A) (A) (A) (A) (A) (A) (A) (A) (A) (A)
                 (A) (A) (A) (A) (A) (A) (A) (A) (A) (A)
       Virtual   (A) (A) (A) (A) (A) (A) (A) (A) (A) (A) (A) (A)
                 (A) (A) (A) (A) (A) (A) (A) (A) (A) (A) (A) (A)
                 (A) (A) (A) (A) (A) (A) (A) (A) (A) (A) (A) (A)
                 (A) (A) (A) (A) (A) (A) (A) (A) (A) (A) (A) (A)
                 (A) (A) (A) (A) (A) (A) (A) (A) (A) (A) (A) (A)
                 (A) (A) (A) (A) (A) (A) (A) (A) (A) (A) (A) (A)
                 (A) (A) (A) (A) (A) (A) (A) (A) (A) (A) (A) (A)
                 (A) (A) (A) (A) (A) (A) (A) (A) (A) (A) (A) (A)
                 (A) (A) (A) (A) (A) (A) (A) (A) (A) (A) (A) (A)
                 (A) (A) (A) (A) (A) (A) (A) (A) (A) (A) (A) (A)
                 (A) (A) (A) (A) (A) (A) (A) (A) (A) (A) (A) (A)
                 (A) (A) (A) (A) (A) (A) (A) (A) (A) (A) (A) (A)
                 (A) (A) (A) (A) (A) (A) (A) (A) (A) (A) (A) (A)
                 (A) (A) (A) (A) (A) (A) (A) (A) (A) (A) (A) (A)
                 (A) (A) (A) (A) (A) (A) (A) (A) (A) (A) (A) (A)
                 (A) (A) (A) (A) (A) (A) (A) (A) (A) (A) (A) (A)
                 (A) (A) (A) (A) (A) (A) (A) (A) (A) (A) (A) (A)
                 (A) (A) (A) (A) (A) (A) (A) (A) (A) (A) (A) (A)
                 (A) (A) (A) (A) (A) (A) (A) (A) (A) (A) (A) (A)
                 (A) (A) (A) (A) (A) (A) (A) (A) (A) (A) (A) (A)
                 (A) (A) (A) (A) (A) (A) (A) (A) (A) (A) (A)
 The electronic state is 1-A.
 Alpha  occ. eigenvalues --  -18.79019 -18.78336 -18.77845 -18.77804 -11.12333
 Alpha  occ. eigenvalues --   -7.18957  -7.18524  -7.18422  -6.56655  -4.62795
 Alpha  occ. eigenvalues --   -4.62565  -4.62455  -3.54447  -3.54427  -3.54374
 Alpha  occ. eigenvalues --   -3.54137  -3.53968  -1.76567  -1.76498  -1.76410
 Alpha  occ. eigenvalues --   -1.76212  -1.76205  -1.74008  -0.97518  -0.95391
 Alpha  occ. eigenvalues --   -0.93965  -0.90591  -0.81904  -0.81170  -0.79662
 Alpha  occ. eigenvalues --   -0.58623  -0.48070  -0.44827  -0.43738  -0.40959
 Alpha  occ. eigenvalues --   -0.32860  -0.31787  -0.31301  -0.31011  -0.30657
 Alpha  occ. eigenvalues --   -0.29812  -0.29104  -0.28210  -0.23310  -0.21284
 Alpha  occ. eigenvalues --   -0.20703
 Alpha virt. eigenvalues --   -0.14120  -0.13690  -0.12906  -0.12486  -0.11809
 Alpha virt. eigenvalues --   -0.11074  -0.09995  -0.08811  -0.03862  -0.01473
 Alpha virt. eigenvalues --   -0.00848  -0.00029   0.00728   0.01657   0.01906
 Alpha virt. eigenvalues --    0.02808   0.04997   0.08844   0.09918   0.11527
 Alpha virt. eigenvalues --    0.11729   0.16276   0.17763   0.17797   0.18323
 Alpha virt. eigenvalues --    0.19347   0.20140   0.21425   0.22761   0.24306
 Alpha virt. eigenvalues --    0.25316   0.26422   0.27638   0.28613   0.29422
 Alpha virt. eigenvalues --    0.30638   0.32126   0.32584   0.35622   0.38187
 Alpha virt. eigenvalues --    0.38990   0.39882   0.42841   0.42938   0.44312
 Alpha virt. eigenvalues --    0.44923   0.45887   0.48172   0.49490   0.51472
 Alpha virt. eigenvalues --    0.52510   0.52811   0.54923   0.55581   0.57466
 Alpha virt. eigenvalues --    0.58021   0.60340   0.60728   0.67919   0.69462
 Alpha virt. eigenvalues --    0.72098   0.73484   0.77099   0.80617   0.83721
 Alpha virt. eigenvalues --    0.84677   0.84762   0.85987   0.87389   0.88132
 Alpha virt. eigenvalues --    0.89049   0.92154   0.95735   0.98604   1.02959
 Alpha virt. eigenvalues --    1.05173   1.06397   1.07939   1.09306   1.09862
 Alpha virt. eigenvalues --    1.10572   1.11673   1.12998   1.14603   1.16092
 Alpha virt. eigenvalues --    1.16700   1.19116   1.19491   1.21295   1.25079
 Alpha virt. eigenvalues --    1.27367   1.29509   1.29917   1.33641   1.35144
 Alpha virt. eigenvalues --    1.35440   1.37079   1.38247   1.40210   1.41957
 Alpha virt. eigenvalues --    1.43415   1.47352   1.49190   1.49894   1.50731
 Alpha virt. eigenvalues --    1.52702   1.53374   1.55382   1.57045   1.60043
 Alpha virt. eigenvalues --    1.61271   1.67510   1.68853   1.69646   1.72628
 Alpha virt. eigenvalues --    1.74316   1.75723   1.77519   1.79548   1.83605
 Alpha virt. eigenvalues --    1.84357   1.88321   1.91281   1.92631   2.11669
 Alpha virt. eigenvalues --    2.13935   2.16181   2.17226   2.19361   2.22685
 Alpha virt. eigenvalues --    2.23534   2.25719   2.26540   2.29444   2.41156
 Alpha virt. eigenvalues --    2.44067   2.48013   2.52334   2.56539   2.59952
 Alpha virt. eigenvalues --    2.62047   2.64006   2.65471   2.68369   2.71960
 Alpha virt. eigenvalues --    2.74186   2.76130   2.88856   2.93361   2.97493
 Alpha virt. eigenvalues --    2.98125   2.99154   3.01962   3.02625   3.04077
 Alpha virt. eigenvalues --    3.06128   3.08498   3.40878   3.47621   3.52847
 Alpha virt. eigenvalues --    3.65926   3.66104   3.68322   3.69921   3.75264
 Alpha virt. eigenvalues --    3.79451   3.85489   3.88432   3.92137   4.08824
 Alpha virt. eigenvalues --    4.13457   4.16344   4.25997   4.98763   4.98896
 Alpha virt. eigenvalues --    4.99442   4.99857   5.00446   5.00915   5.00969
 Alpha virt. eigenvalues --    5.01742   5.04509   5.05590   5.06459   5.06876
 Alpha virt. eigenvalues --    5.10868   5.11947   5.14242   5.15860   5.28649
 Alpha virt. eigenvalues --    5.32484   5.33781   5.35580   5.38230   5.38916
 Alpha virt. eigenvalues --    5.42028   5.44931   5.96575   6.06684   6.09109
 Alpha virt. eigenvalues --    6.11422   6.13671   6.14046   6.15639   6.20487
 Alpha virt. eigenvalues --    6.21183   6.23590   6.27301   6.28624   6.31923
 Alpha virt. eigenvalues --    6.37452   6.41266   6.47527   6.48773   6.58030
 Alpha virt. eigenvalues --    6.62418   6.68350   6.73168   6.90402   6.96309
 Alpha virt. eigenvalues --    7.00970   7.11085   7.22892   7.40613   7.42475
 Alpha virt. eigenvalues --    8.10902   8.16819   8.17050   8.51643   8.84771
 Alpha virt. eigenvalues --   29.30568  29.39779  29.45142  34.42180  34.42757
 Alpha virt. eigenvalues --   34.62989  42.64107  43.20826  43.28238  43.39241
 Alpha virt. eigenvalues --   43.46020  54.06723  70.21168  70.26472  70.29477
 Alpha virt. eigenvalues --  118.66680 142.61624 142.71629 142.77740 202.57151
 Alpha virt. eigenvalues --  626.08933
     Molecular Orbital Coefficients:
                           1         2         3         4         5
[...]
   XY=             -6.9049   XZ=              1.9199   YZ=             -0.7632
 Octapole moment (field-independent basis, Debye-Ang**2):
  XXX=             30.6415  YYY=             -5.9723  ZZZ=              6.4245  XYY=             15.0737
  XXY=            -20.2564  XXZ=              0.8102  XZZ=             12.9177  YZZ=             -7.4433
  YYZ=             14.5627  XYZ=              0.2798
 Hexadecapole moment (field-independent basis, Debye-Ang**3):
 XXXX=          -1496.0384 YYYY=           -295.1538 ZZZZ=           -215.1206 XXXY=            -67.9506
 XXXZ=            -10.4029 YYYX=            -16.4459 YYYZ=             10.4445 ZZZX=             23.9499
 ZZZY=            -23.5558 XXYY=           -325.4924 XXZZ=           -298.4614 YYZZ=           -119.6631
 XXYZ=              7.8216 YYXZ=             10.7872 ZZXY=            -12.1128
 N-N= 6.169370722908D+02 E-N=-3.505890400106D+03  KE= 5.825161753494D+02
 Orbital energies and kinetic energies (alpha):
                                 1                 2
   1         O               -18.790187         29.111483
   2         O               -18.783362         29.112868
   3         O               -18.778446         29.111926
   4         O               -18.778042         29.112952
   5         O               -11.123334          4.703653
   6         O                -7.189573          5.037075
   7         O                -7.185241          5.036377
   8         O                -7.184220          5.035452
   9         O                -6.566553          3.224672
  10         O                -4.627954          4.693332
  11         O                -4.625648          4.694382
  12         O                -4.624554          4.694661
  13         O                -3.544471          6.836676
  14         O                -3.544268          6.837276
  15         O                -3.543738          6.837620
  16         O                -3.541370          6.836598
  17         O                -3.539678          6.836154
  18         O                -1.765666          7.061360
  19         O                -1.764984          7.065758
  20         O                -1.764098          7.066526
  21         O                -1.762123          7.069497
  22         O                -1.762046          7.069464
  23         O                -1.740082          6.429385
  24         O                -0.975184          2.314617
  25         O                -0.953912          2.395410
  26         O                -0.939647          2.492740
  27         O                -0.905910          2.955619
  28         O                -0.819043          2.566806
  29         O                -0.811699          2.534454
  30         O                -0.796618          2.594954
  31         O                -0.586233          1.365029
  32         O                -0.480696          3.189101
  33         O                -0.448269          3.967943
  34         O                -0.437380          2.685219
  35         O                -0.409585          2.704609
  36         O                -0.328598          2.644046
  37         O                -0.317874          2.282430
  38         O                -0.313006          2.532147
  39         O                -0.310114          3.031689
  40         O                -0.306566          2.583813
  41         O                -0.298125          2.854860
  42         O                -0.291043          4.476337
  43         O                -0.282101          3.441554
  44         O                -0.233105          3.801064
  45         O                -0.212844          1.197386
  46         O                -0.207034          1.131115
  47         V                -0.141197        105.975021
  48         V                -0.136902          6.354317
  49         V                -0.129057          5.246788
  50         V                -0.124855          6.731850
  51         V                -0.118086          5.746123
  52         V                -0.110740        180.990810
  53         V                -0.099953         69.637397
  54         V                -0.088110         21.011684
  55         V                -0.038618         21.992162
  56         V                -0.014733          4.015722
  57         V                -0.008475          1.460125
  58         V                -0.000287          1.309553
  59         V                 0.007275          1.393327
  60         V                 0.016569          1.583822
  61         V                 0.019064          1.764512
  62         V                 0.028084          1.463137
  63         V                 0.049966          0.919716
  64         V                 0.088436          5.807766
  65         V                 0.099176          4.720769
  66         V                 0.115271          2.064600
  67         V                 0.117286          1.090986
  68         V                 0.162758          0.993372
  69         V                 0.177632          0.932840
  70         V                 0.177973          0.873925
  71         V                 0.183227          0.940779
  72         V                 0.193473          1.000880
  73         V                 0.201397          1.181986
  74         V                 0.214245          1.190972
  75         V                 0.227606          1.337894
  76         V                 0.243061          1.194563
  77         V                 0.253162          1.213663
  78         V                 0.264221          1.232383
  79         V                 0.276381          1.248430
  80         V                 0.286126          1.698517
  81         V                 0.294219          1.612143
  82         V                 0.306380          1.283107
  83         V                 0.321260          1.561207
  84         V                 0.325842          1.244439
  85         V                 0.356218          1.555252
  86         V                 0.381870          1.974120
  87         V                 0.389901          1.936036
  88         V                 0.398820          1.838090
  89         V                 0.428413          1.939220
  90         V                 0.429384          1.815346
  91         V                 0.443120          1.763010
  92         V                 0.449227          1.700864
  93         V                 0.458874          2.097229
  94         V                 0.481720          1.573480
  95         V                 0.494896          1.891691
  96         V                 0.514719          1.473950
  97         V                 0.525101          1.880870
  98         V                 0.528110          1.666816
  99         V                 0.549235          2.143026
 100         V                 0.555814          1.831542
 101         V                 0.574657          1.498690
 102         V                 0.580211          2.427716
 103         V                 0.603398          1.946211
 104         V                 0.607278          1.742747
 105         V                 0.679191          1.632732
 106         V                 0.694617          1.742270
 107         V                 0.720981          1.722200
 108         V                 0.734839          1.656001
 109         V                 0.770985          2.140873
 110         V                 0.806173          2.028146
 111         V                 0.837210          2.332951
 112         V                 0.846774          2.580215
 113         V                 0.847625          2.513592
 114         V                 0.859872          2.500672
 115         V                 0.873889          2.477732
 116         V                 0.881322          2.346926
 117         V                 0.890489          2.555003
 118         V                 0.921536          2.386867
 119         V                 0.957346          3.864985
 120         V                 0.986038          2.385155
 121         V                 1.029591          2.591717
 122         V                 1.051730          2.250325
 123         V                 1.063969          2.517466
 124         V                 1.079387          2.867674
 125         V                 1.093056          3.155171
 126         V                 1.098622          3.154788
 127         V                 1.105721          3.397806
 128         V                 1.116727          3.057268
 129         V                 1.129980          2.710871
 130         V                 1.146034          2.968192
 131         V                 1.160917          2.623529
 132         V                 1.167003          3.002319
 133         V                 1.191163          2.918642
 134         V                 1.194913          2.794278
 135         V                 1.212945          2.899359
 136         V                 1.250785          3.033227
 137         V                 1.273674          3.451148
 138         V                 1.295092          3.142042
 139         V                 1.299170          2.611883
 140         V                 1.336406          3.784924
 141         V                 1.351436          3.626873
 142         V                 1.354402          3.471228
 143         V                 1.370794          3.616057
 144         V                 1.382469          3.725916
 145         V                 1.402101          2.823970
 146         V                 1.419573          3.012079
 147         V                 1.434153          2.807661
 148         V                 1.473523          3.405342
 149         V                 1.491903          4.052917
 150         V                 1.498942          3.835242
 151         V                 1.507313          3.012610
 152         V                 1.527022          3.354047
 153         V                 1.533740          3.680957
 154         V                 1.553819          3.376167
 155         V                 1.570451          3.258719
 156         V                 1.600433          3.516788
 157         V                 1.612709          3.407703
 158         V                 1.675099          3.358987
 159         V                 1.688525          3.096353
 160         V                 1.696461          3.333665
 161         V                 1.726280          3.446184
 162         V                 1.743163          3.556564
 163         V                 1.757226          3.721489
 164         V                 1.775186          3.261883
 165         V                 1.795478          3.505618
 166         V                 1.836050          3.385186
 167         V                 1.843572          3.572561
 168         V                 1.883214          3.779947
 169         V                 1.912814          3.594368
 170         V                 1.926307          3.759525
 171         V                 2.116691          4.076357
 172         V                 2.139346          3.926448
 173         V                 2.161813          3.850364
 174         V                 2.172265          3.532527
 175         V                 2.193615          3.710444
 176         V                 2.226847          4.542014
 177         V                 2.235338          4.188563
 178         V                 2.257194          5.034438
 179         V                 2.265395          4.172872
 180         V                 2.294442          4.022055
 181         V                 2.411563          4.774449
 182         V                 2.440665          4.240822
 183         V                 2.480135          4.341109
 184         V                 2.523339          4.200940
 185         V                 2.565392          6.753102
 186         V                 2.599521          6.934913
 187         V                 2.620473          7.000543
 188         V                 2.640062          6.052084
 189         V                 2.654707          6.440547
 190         V                 2.683686          6.131277
 191         V                 2.719605          6.648660
 192         V                 2.741862          6.584887
 193         V                 2.761296          6.565735
 194         V                 2.888557          7.130220
 195         V                 2.933610          7.015375
 196         V                 2.974935          9.239496
 197         V                 2.981255          9.587851
 198         V                 2.991540          9.520554
 199         V                 3.019616          9.248913
 200         V                 3.026249          8.199812
 201         V                 3.040770          9.345401
 202         V                 3.061278          8.397498
 203         V                 3.084983          9.332679
 204         V                 3.408783          8.557343
 205         V                 3.476206          8.240619
 206         V                 3.528465          8.289977
 207         V                 3.659258          7.767429
 208         V                 3.661039          7.346680
 209         V                 3.683218          7.282517
 210         V                 3.699211          8.786351
 211         V                 3.752636          7.565569
 212         V                 3.794510          9.308730
 213         V                 3.854889          9.512038
 214         V                 3.884317          9.026449
 215         V                 3.921371          9.102285
 216         V                 4.088239          9.290475
 217         V                 4.134567          9.430572
 218         V                 4.163444          8.989887
 219         V                 4.259973          9.047134
 220         V                 4.987625          6.445475
 221         V                 4.988961          6.438578
 222         V                 4.994423          6.445852
 223         V                 4.998574          6.453458
 224         V                 5.004462          6.459850
 225         V                 5.009148          6.481293
 226         V                 5.009693          6.464761
 227         V                 5.017421          6.485321
 228         V                 5.045095          6.610793
 229         V                 5.055900          6.616695
 230         V                 5.064589          6.649799
 231         V                 5.068765          6.660563
 232         V                 5.108681          6.782515
 233         V                 5.119469          6.793815
 234         V                 5.142419          6.859317
 235         V                 5.158602          6.986452
 236         V                 5.286492          6.887713
 237         V                 5.324838          6.946497
 238         V                 5.337809          7.813663
 239         V                 5.355796          7.013523
 240         V                 5.382299          7.113444
 241         V                 5.389161          7.146385
 242         V                 5.420277          7.200119
 243         V                 5.449305          7.313386
 244         V                 5.965746         10.743911
 245         V                 6.066843          8.942821
 246         V                 6.091087          9.241004
 247         V                 6.114219          9.124089
 248         V                 6.136709          9.300124
 249         V                 6.140456          9.220333
 250         V                 6.156390          9.329300
 251         V                 6.204870          9.511653
 252         V                 6.211834          9.492763
 253         V                 6.235904          9.058274
 254         V                 6.273006          9.237966
 255         V                 6.286239          9.367420
 256         V                 6.319228          9.510918
 257         V                 6.374516          9.593618
 258         V                 6.412662          9.640128
 259         V                 6.475267          9.683311
 260         V                 6.487732          9.705178
 261         V                 6.580302         10.051249
 262         V                 6.624184         10.157381
 263         V                 6.683504         10.266082
 264         V                 6.731679         10.350397
 265         V                 6.904017          9.856508
 266         V                 6.963086         10.508787
 267         V                 7.009696         10.069231
 268         V                 7.110850         10.680204
 269         V                 7.228915         13.169755
 270         V                 7.406125         13.501422
 271         V                 7.424750         13.826261
 272         V                 8.109020         15.814571
 273         V                 8.168193         15.800128
 274         V                 8.170496         15.805108
 275         V                 8.516431         16.075439
 276         V                 8.847713         16.318142
 277         V                29.305683         36.048913
 278         V                29.397785         36.129367
 279         V                29.451422         36.192819
 280         V                34.421797         27.527057
 281         V                34.427573         27.530735
 282         V                34.629889         27.687210
 283         V                42.641072         31.812401
 284         V                43.208259        108.459310
 285         V                43.282384        108.265030
 286         V                43.392410        108.754449
 287         V                43.460203        108.835452
 288         V                54.067234         39.978811
 289         V                70.211679         83.975235
 290         V                70.264722         84.070542
 291         V                70.294770         84.132601
 292         V               118.666801         48.327189
 293         V               142.616244        242.460379
 294         V               142.716286        242.584852
 295         V               142.777398        242.663280
 296         V               202.571510        130.085629
 297         V               626.089331       1034.492274
 Total kinetic energy from orbitals= 5.825161753495D+02
 No NMR shielding tensors so no spin-rotation constants.
 Leave Link  601 at Wed Jun 28 18:40:39 2023, MaxMem=  2147483648 cpu:              28.6 elap:              22.0
 (Enter /home/pcmt/gaussian/g16.C.01/g16/l9999.exe)

 Test job not archived.
 1\1\GINC-U-0-13\SP\RBP86\Gen\H4I1O4Pa1\ROOT\28-Jun-2023\0\\#p BP86/GEN
  Pseudo=Read GFInput GFPrint IOP(6/7=3) Symm=(Loose) Int=(UltraFine) G
 uess=(Harris) Scf=(NoVarAcc,MaxCycle=200,conver=8)\\pa_oh4_I-bp86-cosm
 ors-deftzvp-gp.com SGP in PCM calculation\\0,1\Pa,0,0.7038194926,-0.36
 61400475,0.047466923\I,0,2.1691008019,1.5969352208,-1.9020463839\H,0,-
 1.7402975759,1.2085564633,0.3818110319\O,0,-0.8062734242,0.9909274174,
 0.4775190844\H,0,1.9349854896,1.0721582828,2.2501106473\O,0,-0.3432094
 943,-1.1106136011,-1.5792671426\H,0,-1.1321552036,-1.196406663,-2.1286
 740677\O,0,0.0698778745,-1.9941494551,1.2350822605\H,0,-0.5715623048,-
 2.6898735779,1.0424767151\O,0,1.8997712958,0.3545694895,1.6048606822\\
 Version=ES64L-G16RevC.01\State=1-A\HF=-1043.2135745\RMSD=2.919e-09\Dip
 ole=-1.6566217,-1.1752075,0.5846652\Quadrupole=4.8304986,-0.3291219,-4
 .5013767,0.4678726,3.2961369,5.4351047\PG=C01 [X(H4I1O4Pa1)]\\@


 THE WORLD IS MADE UP OF THE WILLS, THE WON'TS, AND THE CANT'S:
 THE WILLS DO EVERYTHING,
 THE WON'TS DO NOTHING,
 THE CAN'TS CAN'T DO ANYTHING.

                               -- FROM WALT DISNEY'S "BLACK HOLE"
 Job cpu time:       0 days  0 hours 23 minutes 42.5 seconds.
 Elapsed time:       0 days  0 hours  8 minutes 54.6 seconds.
 File lengths (MBytes):  RWF=     37 Int=      0 D2E=      0 Chk=      6 Scr=      1
 Normal termination of Gaussian 16 at Wed Jun 28 18:40:40 2023.
