

 Parallel Execution: Process Information
 ==============================================================================
 Rank   Node Name                              NodeID   MyNodeRank  NodeMaster
    0   u-0-8.local                               0          0          0
    1   u-0-8.local                               0          1         -1
    2   u-0-8.local                               1          0          1
    3   u-0-8.local                               1          1         -1
    4   u-0-8.local                               2          0          2
    5   u-0-8.local                               2          1         -1
    6   u-0-8.local                               3          0          3
    7   u-0-8.local                               3          1         -1
 ==============================================================================


May use up to 31228MB of RAM as shared memory on node 0
May use up to 31250MB of RAM as shared memory on node 1
May use up to 31250MB of RAM as shared memory on node 2
May use up to 31250MB of RAM as shared memory on node 3

 *******************************************************************************
 *                                                                             *
 *  --------------------------------                                           *
 *   Amsterdam Modeling Suite (AMS)              2023.101                      *
 *  --------------------------------                                           *
 *                                               r111868 2023-03-31            *
 *                                                                             *
 *                                                                             *
 *                              =================                              *
 *                              |               |                              *
 *                              |     A M S     |                              *
 *                              |               |                              *
 *                              =================                              *
 *                                                                             *
 *                                                                             *
 *   Online information and documentation:  https://www.scm.com/support/       *
 *   E-mail:  support@scm.com   info@scm.com                                   *
 *                                                                             *
 *   Scientific publications using AMS results must be properly referenced     *
 *   See the User Manuals (or the web site) for recommended citations          *
 *   The terms and conditions of the End User License Agreement apply to       *
 *   the use of AMS, https://www.scm.com/license-terms/                        *
 *                                                                             *
 **********************  x86_64_linux_intel / intelmpi  ************************
 
 Licensed to: Dr. Val?rie Vallet / Laboratoire PhLAM UMR 8523 / Villeneuve d'Ascq Cedex / FRANCE 2023-12-11 15:27:25
 SCM User ID: u10325
  
 AMS 2023.101  RunTime: Jan15-2024 09:37:17  ShM Nodes: 4  Procs: 8

 AMS jobname: pao_oh2_c2o4_h2o.SO.b3lyp.tz2p.sp
 AMS jobid  : 1761616798

 Start   directory: /home/shaaban/ams/PhD/oxalate/pao_oh2_c2o4_h2o/gp/SP-SR-SO/
 Results directory: /home/shaaban/ams/PhD/oxalate/pao_oh2_c2o4_h2o/gp/SP-SR-SO/pao_oh2_c2o4_h2o.SO.b3lyp.tz2p.sp.results/
 Scratch directory: /state/partition2/shaaban/999634.phlam-s-sakura/amstmp_pao_oh2_c2o4_h2o.SO.b3lyp.tz2p.sp_kid0.1761616798/


 Communication costs MPI_COMM_WORLD:      2.854 usec per message,   0.0096 usec per 8-byte item
 Communication costs for intra-node:      0.604 usec per message,   0.0026 usec per 8-byte item

 RNG seed: -1059826258 605552734 -1352548307 1672418636 -1031550094 632292158 -142371515 1311865604



                      ************************************************************************
                      *  ADF 2023.101  RunTime: Jan15-2024 09:37:18  ShM Nodes: 4  Procs: 8  *
                      ************************************************************************
  

       ****************************
       * SINGLE POINT CALCULATION *
       ****************************
 
--------
Geometry
--------
Formula: C2H4O8Pa
Atoms
  Index Symbol   x (angstrom)   y (angstrom)   z (angstrom)
      1     Pa     0.66368095     0.17874414    -0.22080207
      2      O     0.85195566     1.21050878    -2.13191966
      3      H     0.50212678     2.05676864    -2.42007902
      4      O    -0.26538270     1.55836272     0.61343949
      5      H     0.14261262    -2.29098036     1.27581775
      6      O    -1.09706547    -1.40402623    -1.56630591
      7      H    -0.49413184    -1.90334517    -2.13215971
      8      O    -0.31829664    -1.50740665     0.96286801
      9      O     4.90470900    -0.56745807     0.58936755
     10      O     2.80519120     0.24469161     0.59875324
     11      O     1.96090819    -1.48073715    -1.11366691
     12      C     3.75602859    -0.57622215     0.21548093
     13      C     3.23794177    -1.64573324    -0.82939943
     14      O     3.95520987    -2.50483195    -1.28191558
     15      H    -1.05768355    -1.83695797    -0.67971291
 
Total System Charge            -1.00000
Bonding info available!
 
 
----------------
ADF Engine Input
----------------
 
 Basis
 Type TZ2P
 Core None
 End
 XC
 Hybrid B3LYP
 End
 Relativity
 Level Spin-Orbit
 End
 NumericalQuality Good
 

 Title: *** (NO TITLE) ***

 *** adf ***



 ===========================
 A T T A C H E D   F I L E S
 ===========================
  



 ===============================
 M O D E L   P A R A M E T E R S
 ===============================
  
 DENSITY FUNCTIONAL POTENTIAL (scf)
    Hybrid:                            B3LYP                                   == Not Default ==

 SPIN  (restricted / unrestr.)
    Molecule:                          Restricted                               
    Fragments:                         Restricted                               

 OTHER ASPECTS
    Relativistic Corrections:          Spin-Orbit (ZORA,MAPA)                  == Not Default ==

    Nuclear Charge Density Model:      Point Charge Nuclei                      
    Core Treatment:                    Frozen Orbital(s)                        

    Hyperfine or Zeeman Interaction:   ---                                      


 Fragment File(s)
 ----------------
 Pa:
         file : /home/shaaban/ams/PhD/oxalate/pao_oh2_c2o4_h2o/gp/SP-SR-SO/pao_oh2_c2o4_h2o.SO.b3lyp.tz2p.sp.results/t21.376DF1AB.Pa
         jobid: 0
         title: Protactinium (TZ2P, all electron)
 O:
         file : /home/shaaban/ams/PhD/oxalate/pao_oh2_c2o4_h2o/gp/SP-SR-SO/pao_oh2_c2o4_h2o.SO.b3lyp.tz2p.sp.results/t21.6BA271D4.O
         jobid: 0
         title: Oxygen (TZ2P)
 H:
         file : /home/shaaban/ams/PhD/oxalate/pao_oh2_c2o4_h2o/gp/SP-SR-SO/pao_oh2_c2o4_h2o.SO.b3lyp.tz2p.sp.results/t21.1FC863BF.H
         jobid: 0
         title: Hydrogen (TZ2P)
 C:
         file : /home/shaaban/ams/PhD/oxalate/pao_oh2_c2o4_h2o/gp/SP-SR-SO/pao_oh2_c2o4_h2o.SO.b3lyp.tz2p.sp.results/t21.24C4801F.C
         jobid: 0
         title: Carbon (TZ2P)



 ===============
 G E O M E T R Y  ***  3D  Molecule  ***
 ===============
  

 ATOMS
 =====                            X Y Z                    CHARGE
                                (Angstrom)             Nucl     +Core       At.Mass
                       --------------------------    ----------------       -------
    1  Pa              0.6637    0.1787   -0.2208     91.00     91.00      231.0359
    2  O               0.8520    1.2105   -2.1319      8.00      8.00       15.9949
    3  H               0.5021    2.0568   -2.4201      1.00      1.00        1.0078
    4  O              -0.2654    1.5584    0.6134      8.00      8.00       15.9949
    5  H               0.1426   -2.2910    1.2758      1.00      1.00        1.0078
    6  O              -1.0971   -1.4040   -1.5663      8.00      8.00       15.9949
    7  H              -0.4941   -1.9033   -2.1322      1.00      1.00        1.0078
    8  O              -0.3183   -1.5074    0.9629      8.00      8.00       15.9949
    9  O               4.9047   -0.5675    0.5894      8.00      8.00       15.9949
   10  O               2.8052    0.2447    0.5988      8.00      8.00       15.9949
   11  O               1.9609   -1.4807   -1.1137      8.00      8.00       15.9949
   12  C               3.7560   -0.5762    0.2155      6.00      6.00       12.0000
   13  C               3.2379   -1.6457   -0.8294      6.00      6.00       12.0000
   14  O               3.9552   -2.5048   -1.2819      8.00      8.00       15.9949
   15  H              -1.0577   -1.8370   -0.6797      1.00      1.00        1.0078


 FRAGMENTS
 =========                                     Atoms in this Fragment     Cart. coord.s (Angstrom)
                                               -------------------------------------------------------
    1  Pa                                                1  Pa           0.6637    0.1787   -0.2208
    2  O                                                 2  O            0.8520    1.2105   -2.1319
    3  O                                                 4  O           -0.2654    1.5584    0.6134
    4  O                                                 6  O           -1.0971   -1.4040   -1.5663
    5  O                                                 8  O           -0.3183   -1.5074    0.9629
    6  O                                                 9  O            4.9047   -0.5675    0.5894
    7  O                                                10  O            2.8052    0.2447    0.5988
    8  O                                                11  O            1.9609   -1.4807   -1.1137
    9  O                                                14  O            3.9552   -2.5048   -1.2819
   10  H                                                 3  H            0.5021    2.0568   -2.4201
   11  H                                                 5  H            0.1426   -2.2910    1.2758
   12  H                                                 7  H           -0.4941   -1.9033   -2.1322
   13  H                                                15  H           -1.0577   -1.8370   -0.6797
   14  C                                                12  C            3.7560   -0.5762    0.2155
   15  C                                                13  C            3.2379   -1.6457   -0.8294


 Interatomic Distance Matrix (Angstrom)
 --------------------------------------

   1)     0.000
   2)     2.180   0.000
   3)     2.897   0.960   0.000
   4)     1.861   2.984   3.169   0.000
   5)     2.934   4.937   5.718   3.927   0.000
   6)     2.723   3.310   3.907   3.771   3.225   0.000
   7)     3.054   3.392   4.094   4.424   3.489   0.966   0.000
   8)     2.282   4.282   4.982   3.086   0.961   2.648   3.125   0.000
   9)     4.382   5.195   5.944   5.590   5.111   6.432   6.192   5.320   0.000
  10)     2.294   3.493   4.207   3.340   3.739   4.757   4.791   3.600   2.251   0.000
  11)     2.288   3.084   4.043   4.144   3.110   3.092   2.691   3.083   3.521   2.573
          0.000
  12)     3.213   4.140   4.946   4.570   4.138   5.236   5.034   4.246   1.208   1.313
          2.410   0.000
  13)     3.213   3.943   4.871   4.962   3.799   4.404   3.961   3.985   2.440   2.408
          1.319   1.582   0.000
  14)     4.377   4.915   5.833   6.158   4.596   5.179   4.570   4.929   2.856   3.524
          2.248   2.450   1.207   0.000
  15)     2.690   3.878   4.541   3.719   2.339   0.987   1.559   1.831   6.227   4.571
          3.070   5.056   4.302   5.093   0.000

 Min. Distance =    0.9600
 Max. Distance =    6.4318



 =====================================
 S Y M M E T R Y ,   E L E C T R O N S
 =====================================
  
 Symmetry: NOSYM

 Double Group Irreducible Representations (spinor symmetry)
 -----------------------------------------------------------
 A1/2

 Symmetry is NOT used when fitting density


 Configuration of Valence Electrons
 ==================================
 ( determined in the SCF procedure )

 Total:   172

 Net Charge: -1 (Nuclei minus Electrons)

 Aufbau principle for MO occupations will be applied through SCF cycle no.     150
 Thereafter, the program will assign electrons to MOs that are spatially
 similar to the occupied MOs in a "reference" cycle ("KeepOrbitals").
 The reference cycle is always the PREVIOUS cycle: it will evolve with
 the SCF procedure.
1
 ***************************************************************************************************



                                      ****************************************
                                      *  B U I L D : (Fragments, Functions)  *
                                      ****************************************
  



 =======
 S F O s  ***  (Symmetrized Fragment Orbitals)  ***
 =======
  
 SFOs are linear combinations of (valence) Fragment Orbitals (FOs), such that the SFOs transform as the
 irreducible representations of the (molecular) symmetry group. Each SFO is therefore characterized by
 an irrep of the molecule and by a few (or only one) generating FOs.
 The SFOs constitute a symmetry-adapted basis for the Fock matrix. The MO eigenvector coefficients in
 this basis provide a direct interpretation of the MOs in terms of Frontier Orbital Theory.

 The SFOs are combined with auxiliary Core Functions (CFs) to ensure orthogonalization on the (frozen)
 Core Orbitals (COs). The Core-orthogonalized SFOs (CSFOs) constitute the true Fock basis.

 The FOs, and hence also the (C)SFOs are combinations of the elementary basis functions (BAS). The basis
 functions that participate in the description of the SFOs depend on the irrep. The indices of the
 involved functions are printed below for each irrep.
 (The complete list of primitive basis functions is printed in another section)

 Total nr. of (C)SFOs (summation over all irreps) :   439

 NOTE: a (C)SFO that is defined as a combination of more than one FO is usually NOT normalized.

 NOTE: the (C)SFOs are single group symmetry adapted orbitals.



                                       === A ===
 Nr. of SFOs :  439
 Cartesian basis functions that participate in this irrep (total number =   507) :
      1     2     3     4     5     6     7     8     9    10
     11    12    13    14    15    16    17    20    23    26
     29    32    35    38    41    44    47    50   157    18
     21    24    27    30    33    36    39    42    45    48
     51   158    19    22    25    28    31    34    37    40
     43    46    49    52   159    53    59    65    71    77
     83    89    95   101    54    60    66    72    78    84
     90    96   102    55    61    67    73    79    85    91
     97   103    56    62    68    74    80    86    92    98
    104    57    63    69    75    81    87    93    99   105
     58    64    70    76    82    88    94   100   106   107
    117   127   137   147   108   118   128   138   148   109
    119   129   139   149   110   120   130   140   150   111
    121   131   141   151   112   122   132   142   152   113
    123   133   143   153   114   124   134   144   154   115
    125   135   145   155   116   126   136   146   156   160
    161   162   163   164   165   168   171   166   169   172
    167   170   173   174   175   176   177   178   179   180
    181   182   183   184   185   186   187   188   189   190
    191   192   193   194   195   198   201   196   199   202
    197   200   203   204   205   206   207   208   209   210
    211   212   213   214   215   216   217   218   219   220
    221   222   223   224   225   228   231   226   229   232
    227   230   233   234   235   236   237   238   239   240
    241   242   243   244   245   246   247   248   249   250
    251   252   253   254   255   258   261   256   259   262
    257   260   263   264   265   266   267   268   269   270
    271   272   273   274   275   276   277   278   279   280
    281   282   283   284   285   288   291   286   289   292
    287   290   293   294   295   296   297   298   299   300
    301   302   303   304   305   306   307   308   309   310
    311   312   313   314   315   318   321   316   319   322
    317   320   323   324   325   326   327   328   329   330
    331   332   333   334   335   336   337   338   339   340
    341   342   343   344   345   348   351   346   349   352
    347   350   353   354   355   356   357   358   359   360
    361   362   363   364   365   366   367   368   369   370
    371   372   373   374   375   378   381   376   379   382
    377   380   383   384   385   386   387   388   389   390
    391   392   393   394   395   396   397   398   399   400
    401   402   403   404   405   406   407   408   409   410
    411   412   413   414   415   416   417   418   419   420
    421   422   423   424   425   426   427   428   429   430
    431   432   433   434   435   436   437   438   439   440
    441   442   443   444   445   446   447   448   449   450
    451   452   453   456   459   454   457   460   455   458
    461   462   463   464   465   466   467   468   469   470
    471   472   473   474   475   476   477   478   479   480
    481   482   483   486   489   484   487   490   485   488
    491   492   493   494   495   496   497   498   499   500
    501   502   503   504   505   506   507

    SFO  (index         Fragment          Generating    Expansion in Fragment Orbitals
  indx  incl.CFs)   Occup   Orb.Energy   FragmentType  Coeff.   Orbital     on Fragment
 --------------------------------------------------------------------------------------
     1       1      2.000   -4140.144 au  Pa            1.00      1 S               1
                        ( -112659.040 eV)
     2       2      2.000    -772.390 au  Pa            1.00      2 S               1
                        (  -21017.794 eV)
     3       3      2.000    -195.003 au  Pa            1.00      3 S               1
                        (   -5306.298 eV)
     4       4      2.000     -49.664 au  Pa            1.00      4 S               1
                        (   -1351.436 eV)
     5       5      2.000     -11.057 au  Pa            1.00      5 S               1
                        (    -300.888 eV)
     6       6      2.000      -1.766 au  Pa            1.00      6 S               1
                        (     -48.049 eV)
     7       7      2.000      -0.167 au  Pa            1.00      7 S               1
                        (      -4.550 eV)
     8       8       --         0.031 au  Pa            1.00      8 S               1
                        (       0.841 eV)
     9       9       --         0.336 au  Pa            1.00      9 S               1
                        (       9.133 eV)
    10      10       --         1.674 au  Pa            1.00     10 S               1
                        (      45.549 eV)
    11      11       --         8.680 au  Pa            1.00     11 S               1
                        (     236.196 eV)
    12      12       --        46.308 au  Pa            1.00     12 S               1
                        (    1260.118 eV)
    13      13       --      1052.293 au  Pa            1.00     13 S               1
                        (   28634.347 eV)
    14      14       --      5423.866 au  Pa            1.00     14 S               1
                        (  147590.909 eV)
    15      15       --     16326.809 au  Pa            1.00     15 S               1
                        (  444275.077 eV)
    16      16       --     46434.730 au  Pa            1.00     16 S               1
                        ( 1263553.301 eV)
    17      17      2.000    -644.804 au  Pa            1.00      1 P:x             1
                        (  -17546.004 eV)
    18      18      2.000    -159.382 au  Pa            1.00      2 P:x             1
                        (   -4336.995 eV)
    19      19      2.000     -38.001 au  Pa            1.00      3 P:x             1
                        (   -1034.059 eV)
    20      20      2.000      -7.452 au  Pa            1.00      4 P:x             1
                        (    -202.774 eV)
    21      21      2.000      -0.880 au  Pa            1.00      5 P:x             1
                        (     -23.949 eV)
    22      22       --        -0.008 au  Pa            1.00      6 P:x             1
                        (      -0.215 eV)
    23      23       --         0.404 au  Pa            1.00      7 P:x             1
                        (      10.994 eV)
    24      24       --         1.850 au  Pa            1.00      8 P:x             1
                        (      50.342 eV)
    25      25       --         7.570 au  Pa            1.00      9 P:x             1
                        (     205.994 eV)
    26      26       --        35.931 au  Pa            1.00     10 P:x             1
                        (     977.731 eV)
    27      27       --       178.469 au  Pa            1.00     11 P:x             1
                        (    4856.387 eV)
    28      28       --      1509.400 au  Pa            1.00     12 P:x             1
                        (   41072.871 eV)
    29      29       --     10783.504 au  Pa            1.00     13 P:x             1
                        (  293434.081 eV)
    30      30      2.000    -644.804 au  Pa            1.00      1 P:y             1
                        (  -17546.004 eV)
    31      31      2.000    -159.382 au  Pa            1.00      2 P:y             1
                        (   -4336.995 eV)
    32      32      2.000     -38.001 au  Pa            1.00      3 P:y             1
                        (   -1034.059 eV)
    33      33      2.000      -7.452 au  Pa            1.00      4 P:y             1
                        (    -202.774 eV)
    34      34      2.000      -0.880 au  Pa            1.00      5 P:y             1
                        (     -23.949 eV)
    35      35       --        -0.008 au  Pa            1.00      6 P:y             1
                        (      -0.215 eV)
    36      36       --         0.404 au  Pa            1.00      7 P:y             1
                        (      10.994 eV)
    37      37       --         1.850 au  Pa            1.00      8 P:y             1
                        (      50.342 eV)
    38      38       --         7.570 au  Pa            1.00      9 P:y             1
                        (     205.994 eV)
    39      39       --        35.931 au  Pa            1.00     10 P:y             1
                        (     977.731 eV)
    40      40       --       178.469 au  Pa            1.00     11 P:y             1
                        (    4856.387 eV)
    41      41       --      1509.400 au  Pa            1.00     12 P:y             1
                        (   41072.871 eV)
    42      42       --     10783.504 au  Pa            1.00     13 P:y             1
                        (  293434.081 eV)
    43      43      2.000    -644.804 au  Pa            1.00      1 P:z             1
                        (  -17546.004 eV)
    44      44      2.000    -159.382 au  Pa            1.00      2 P:z             1
                        (   -4336.995 eV)
    45      45      2.000     -38.001 au  Pa            1.00      3 P:z             1
                        (   -1034.059 eV)
    46      46      2.000      -7.452 au  Pa            1.00      4 P:z             1
                        (    -202.774 eV)
    47      47      2.000      -0.880 au  Pa            1.00      5 P:z             1
                        (     -23.949 eV)
    48      48       --        -0.008 au  Pa            1.00      6 P:z             1
                        (      -0.215 eV)
    49      49       --         0.404 au  Pa            1.00      7 P:z             1
                        (      10.994 eV)
    50      50       --         1.850 au  Pa            1.00      8 P:z             1
                        (      50.342 eV)
    51      51       --         7.570 au  Pa            1.00      9 P:z             1
                        (     205.994 eV)
    52      52       --        35.931 au  Pa            1.00     10 P:z             1
                        (     977.731 eV)
    53      53       --       178.469 au  Pa            1.00     11 P:z             1
                        (    4856.387 eV)
    54      54       --      1509.400 au  Pa            1.00     12 P:z             1
                        (   41072.871 eV)
    55      55       --     10783.504 au  Pa            1.00     13 P:z             1
                        (  293434.081 eV)
    56      56      2.000    -127.750 au  Pa            1.00      1 D:z2            1
                        (   -3476.261 eV)
    57      57      2.000     -25.974 au  Pa            1.00      2 D:z2            1
                        (    -706.779 eV)
    58      58      2.000      -3.548 au  Pa            1.00      3 D:z2            1
                        (     -96.540 eV)
    59      59      0.200      -0.066 au  Pa            1.00      4 D:z2            1
                        (      -1.808 eV)
    60      60       --         0.084 au  Pa            1.00      5 D:z2            1
                        (       2.281 eV)
    61      61       --         0.569 au  Pa            1.00      6 D:z2            1
                        (      15.477 eV)
    62      62       --         3.594 au  Pa            1.00      7 D:z2            1
                        (      97.805 eV)
    63      63       --        24.986 au  Pa            1.00      8 D:z2            1
                        (     679.903 eV)
    64      64       --       204.782 au  Pa            1.00      9 D:z2            1
                        (    5572.393 eV)
    65      65      2.000    -127.750 au  Pa            1.00      1 D:x2-y2         1
                        (   -3476.261 eV)
    66      66      2.000     -25.974 au  Pa            1.00      2 D:x2-y2         1
                        (    -706.779 eV)
    67      67      2.000      -3.548 au  Pa            1.00      3 D:x2-y2         1
                        (     -96.540 eV)
    68      68      0.200      -0.066 au  Pa            1.00      4 D:x2-y2         1
                        (      -1.808 eV)
    69      69       --         0.084 au  Pa            1.00      5 D:x2-y2         1
                        (       2.281 eV)
    70      70       --         0.569 au  Pa            1.00      6 D:x2-y2         1
                        (      15.477 eV)
    71      71       --         3.594 au  Pa            1.00      7 D:x2-y2         1
                        (      97.805 eV)
    72      72       --        24.986 au  Pa            1.00      8 D:x2-y2         1
                        (     679.903 eV)
    73      73       --       204.782 au  Pa            1.00      9 D:x2-y2         1
                        (    5572.393 eV)
    74      74      2.000    -127.750 au  Pa            1.00      1 D:xy            1
                        (   -3476.261 eV)
    75      75      2.000     -25.974 au  Pa            1.00      2 D:xy            1
                        (    -706.779 eV)
    76      76      2.000      -3.548 au  Pa            1.00      3 D:xy            1
                        (     -96.540 eV)
    77      77      0.200      -0.066 au  Pa            1.00      4 D:xy            1
                        (      -1.808 eV)
    78      78       --         0.084 au  Pa            1.00      5 D:xy            1
                        (       2.281 eV)
    79      79       --         0.569 au  Pa            1.00      6 D:xy            1
                        (      15.477 eV)
    80      80       --         3.594 au  Pa            1.00      7 D:xy            1
                        (      97.805 eV)
    81      81       --        24.986 au  Pa            1.00      8 D:xy            1
                        (     679.903 eV)
    82      82       --       204.782 au  Pa            1.00      9 D:xy            1
                        (    5572.393 eV)
    83      83      2.000    -127.750 au  Pa            1.00      1 D:xz            1
                        (   -3476.261 eV)
    84      84      2.000     -25.974 au  Pa            1.00      2 D:xz            1
                        (    -706.779 eV)
    85      85      2.000      -3.548 au  Pa            1.00      3 D:xz            1
                        (     -96.540 eV)
    86      86      0.200      -0.066 au  Pa            1.00      4 D:xz            1
                        (      -1.808 eV)
    87      87       --         0.084 au  Pa            1.00      5 D:xz            1
                        (       2.281 eV)
    88      88       --         0.569 au  Pa            1.00      6 D:xz            1
                        (      15.477 eV)
    89      89       --         3.594 au  Pa            1.00      7 D:xz            1
                        (      97.805 eV)
    90      90       --        24.986 au  Pa            1.00      8 D:xz            1
                        (     679.903 eV)
    91      91       --       204.782 au  Pa            1.00      9 D:xz            1
                        (    5572.393 eV)
    92      92      2.000    -127.750 au  Pa            1.00      1 D:yz            1
                        (   -3476.261 eV)
    93      93      2.000     -25.974 au  Pa            1.00      2 D:yz            1
                        (    -706.779 eV)
    94      94      2.000      -3.548 au  Pa            1.00      3 D:yz            1
                        (     -96.540 eV)
    95      95      0.200      -0.066 au  Pa            1.00      4 D:yz            1
                        (      -1.808 eV)
    96      96       --         0.084 au  Pa            1.00      5 D:yz            1
                        (       2.281 eV)
    97      97       --         0.569 au  Pa            1.00      6 D:yz            1
                        (      15.477 eV)
    98      98       --         3.594 au  Pa            1.00      7 D:yz            1
                        (      97.805 eV)
    99      99       --        24.986 au  Pa            1.00      8 D:yz            1
                        (     679.903 eV)
   100     100       --       204.782 au  Pa            1.00      9 D:yz            1
                        (    5572.393 eV)
   101     101      2.000     -13.085 au  Pa            1.00      1 F:z3            1
                        (    -356.050 eV)
   102     102      0.286      -0.042 au  Pa            1.00      2 F:z3            1
                        (      -1.139 eV)
   103     103       --         0.419 au  Pa            1.00      3 F:z3            1
                        (      11.400 eV)
   104     104       --         2.553 au  Pa            1.00      4 F:z3            1
                        (      69.470 eV)
   105     105       --        21.603 au  Pa            1.00      5 F:z3            1
                        (     587.835 eV)
   106     106      2.000     -13.085 au  Pa            1.00      1 F:z             1
                        (    -356.050 eV)
   107     107      0.286      -0.042 au  Pa            1.00      2 F:z             1
                        (      -1.139 eV)
   108     108       --         0.419 au  Pa            1.00      3 F:z             1
                        (      11.400 eV)
   109     109       --         2.553 au  Pa            1.00      4 F:z             1
                        (      69.470 eV)
   110     110       --        21.603 au  Pa            1.00      5 F:z             1
                        (     587.835 eV)
   111     111      2.000     -13.085 au  Pa            1.00      1 F:xyz           1
                        (    -356.050 eV)
   112     112      0.286      -0.042 au  Pa            1.00      2 F:xyz           1
                        (      -1.139 eV)
   113     113       --         0.419 au  Pa            1.00      3 F:xyz           1
                        (      11.400 eV)
   114     114       --         2.553 au  Pa            1.00      4 F:xyz           1
                        (      69.470 eV)
   115     115       --        21.603 au  Pa            1.00      5 F:xyz           1
                        (     587.835 eV)
   116     116      2.000     -13.085 au  Pa            1.00      1 F:z2x           1
                        (    -356.050 eV)
   117     117      0.286      -0.042 au  Pa            1.00      2 F:z2x           1
                        (      -1.139 eV)
   118     118       --         0.419 au  Pa            1.00      3 F:z2x           1
                        (      11.400 eV)
   119     119       --         2.553 au  Pa            1.00      4 F:z2x           1
                        (      69.470 eV)
   120     120       --        21.603 au  Pa            1.00      5 F:z2x           1
                        (     587.835 eV)
   121     121      2.000     -13.085 au  Pa            1.00      1 F:z2y           1
                        (    -356.050 eV)
   122     122      0.286      -0.042 au  Pa            1.00      2 F:z2y           1
                        (      -1.139 eV)
   123     123       --         0.419 au  Pa            1.00      3 F:z2y           1
                        (      11.400 eV)
   124     124       --         2.553 au  Pa            1.00      4 F:z2y           1
                        (      69.470 eV)
   125     125       --        21.603 au  Pa            1.00      5 F:z2y           1
                        (     587.835 eV)
   126     126      2.000     -13.085 au  Pa            1.00      1 F:x             1
                        (    -356.050 eV)
   127     127      0.286      -0.042 au  Pa            1.00      2 F:x             1
                        (      -1.139 eV)
   128     128       --         0.419 au  Pa            1.00      3 F:x             1
                        (      11.400 eV)
   129     129       --         2.553 au  Pa            1.00      4 F:x             1
                        (      69.470 eV)
   130     130       --        21.603 au  Pa            1.00      5 F:x             1
                        (     587.835 eV)
   131     131      2.000     -13.085 au  Pa            1.00      1 F:y             1
                        (    -356.050 eV)
   132     132      0.286      -0.042 au  Pa            1.00      2 F:y             1
                        (      -1.139 eV)
   133     133       --         0.419 au  Pa            1.00      3 F:y             1
                        (      11.400 eV)
   134     134       --         2.553 au  Pa            1.00      4 F:y             1
                        (      69.470 eV)
   135     135       --        21.603 au  Pa            1.00      5 F:y             1
                        (     587.835 eV)
   136     136      2.000     -19.315 au  O             1.00      1 S               2
                        (    -525.599 eV)
   137     137      2.000      -0.972 au  O             1.00      2 S               2
                        (     -26.457 eV)
   138     138       --         0.838 au  O             1.00      3 S               2
                        (      22.795 eV)
   139     139       --        13.598 au  O             1.00      4 S               2
                        (     370.019 eV)
   140     140       --       122.184 au  O             1.00      5 S               2
                        (    3324.790 eV)
   141     141      1.333      -0.361 au  O             1.00      1 P:x             2
                        (      -9.818 eV)
   142     142       --         0.380 au  O             1.00      2 P:x             2
                        (      10.337 eV)
   143     143       --         3.931 au  O             1.00      3 P:x             2
                        (     106.958 eV)
   144     144      1.333      -0.361 au  O             1.00      1 P:y             2
                        (      -9.818 eV)
   145     145       --         0.380 au  O             1.00      2 P:y             2
                        (      10.337 eV)
   146     146       --         3.931 au  O             1.00      3 P:y             2
                        (     106.958 eV)
   147     147      1.333      -0.361 au  O             1.00      1 P:z             2
                        (      -9.818 eV)
   148     148       --         0.380 au  O             1.00      2 P:z             2
                        (      10.337 eV)
   149     149       --         3.931 au  O             1.00      3 P:z             2
                        (     106.958 eV)
   150     150       --         1.117 au  O             1.00      1 D:z2            2
                        (      30.399 eV)
   151     151       --         1.117 au  O             1.00      1 D:x2-y2         2
                        (      30.399 eV)
   152     152       --         1.117 au  O             1.00      1 D:xy            2
                        (      30.399 eV)
   153     153       --         1.117 au  O             1.00      1 D:xz            2
                        (      30.399 eV)
   154     154       --         1.117 au  O             1.00      1 D:yz            2
                        (      30.399 eV)
   155     155       --         3.432 au  O             1.00      1 F:z3            2
                        (      93.382 eV)
   156     156       --         3.432 au  O             1.00      1 F:z             2
                        (      93.382 eV)
   157     157       --         3.432 au  O             1.00      1 F:xyz           2
                        (      93.382 eV)
   158     158       --         3.432 au  O             1.00      1 F:z2x           2
                        (      93.382 eV)
   159     159       --         3.432 au  O             1.00      1 F:z2y           2
                        (      93.382 eV)
   160     160       --         3.432 au  O             1.00      1 F:x             2
                        (      93.382 eV)
   161     161       --         3.432 au  O             1.00      1 F:y             2
                        (      93.382 eV)
   162     162      2.000     -19.315 au  O             1.00      1 S               3
                        (    -525.599 eV)
   163     163      2.000      -0.972 au  O             1.00      2 S               3
                        (     -26.457 eV)
   164     164       --         0.838 au  O             1.00      3 S               3
                        (      22.795 eV)
   165     165       --        13.598 au  O             1.00      4 S               3
                        (     370.019 eV)
   166     166       --       122.184 au  O             1.00      5 S               3
                        (    3324.790 eV)
   167     167      1.333      -0.361 au  O             1.00      1 P:x             3
                        (      -9.818 eV)
   168     168       --         0.380 au  O             1.00      2 P:x             3
                        (      10.337 eV)
   169     169       --         3.931 au  O             1.00      3 P:x             3
                        (     106.958 eV)
   170     170      1.333      -0.361 au  O             1.00      1 P:y             3
                        (      -9.818 eV)
   171     171       --         0.380 au  O             1.00      2 P:y             3
                        (      10.337 eV)
   172     172       --         3.931 au  O             1.00      3 P:y             3
                        (     106.958 eV)
   173     173      1.333      -0.361 au  O             1.00      1 P:z             3
                        (      -9.818 eV)
   174     174       --         0.380 au  O             1.00      2 P:z             3
                        (      10.337 eV)
   175     175       --         3.931 au  O             1.00      3 P:z             3
                        (     106.958 eV)
   176     176       --         1.117 au  O             1.00      1 D:z2            3
                        (      30.399 eV)
   177     177       --         1.117 au  O             1.00      1 D:x2-y2         3
                        (      30.399 eV)
   178     178       --         1.117 au  O             1.00      1 D:xy            3
                        (      30.399 eV)
   179     179       --         1.117 au  O             1.00      1 D:xz            3
                        (      30.399 eV)
   180     180       --         1.117 au  O             1.00      1 D:yz            3
                        (      30.399 eV)
   181     181       --         3.432 au  O             1.00      1 F:z3            3
                        (      93.382 eV)
   182     182       --         3.432 au  O             1.00      1 F:z             3
                        (      93.382 eV)
   183     183       --         3.432 au  O             1.00      1 F:xyz           3
                        (      93.382 eV)
   184     184       --         3.432 au  O             1.00      1 F:z2x           3
                        (      93.382 eV)
   185     185       --         3.432 au  O             1.00      1 F:z2y           3
                        (      93.382 eV)
   186     186       --         3.432 au  O             1.00      1 F:x             3
                        (      93.382 eV)
   187     187       --         3.432 au  O             1.00      1 F:y             3
                        (      93.382 eV)
   188     188      2.000     -19.315 au  O             1.00      1 S               4
                        (    -525.599 eV)
   189     189      2.000      -0.972 au  O             1.00      2 S               4
                        (     -26.457 eV)
   190     190       --         0.838 au  O             1.00      3 S               4
                        (      22.795 eV)
   191     191       --        13.598 au  O             1.00      4 S               4
                        (     370.019 eV)
   192     192       --       122.184 au  O             1.00      5 S               4
                        (    3324.790 eV)
   193     193      1.333      -0.361 au  O             1.00      1 P:x             4
                        (      -9.818 eV)
   194     194       --         0.380 au  O             1.00      2 P:x             4
                        (      10.337 eV)
   195     195       --         3.931 au  O             1.00      3 P:x             4
                        (     106.958 eV)
   196     196      1.333      -0.361 au  O             1.00      1 P:y             4
                        (      -9.818 eV)
   197     197       --         0.380 au  O             1.00      2 P:y             4
                        (      10.337 eV)
   198     198       --         3.931 au  O             1.00      3 P:y             4
                        (     106.958 eV)
   199     199      1.333      -0.361 au  O             1.00      1 P:z             4
                        (      -9.818 eV)
   200     200       --         0.380 au  O             1.00      2 P:z             4
                        (      10.337 eV)
   201     201       --         3.931 au  O             1.00      3 P:z             4
                        (     106.958 eV)
   202     202       --         1.117 au  O             1.00      1 D:z2            4
                        (      30.399 eV)
   203     203       --         1.117 au  O             1.00      1 D:x2-y2         4
                        (      30.399 eV)
   204     204       --         1.117 au  O             1.00      1 D:xy            4
                        (      30.399 eV)
   205     205       --         1.117 au  O             1.00      1 D:xz            4
                        (      30.399 eV)
   206     206       --         1.117 au  O             1.00      1 D:yz            4
                        (      30.399 eV)
   207     207       --         3.432 au  O             1.00      1 F:z3            4
                        (      93.382 eV)
   208     208       --         3.432 au  O             1.00      1 F:z             4
                        (      93.382 eV)
   209     209       --         3.432 au  O             1.00      1 F:xyz           4
                        (      93.382 eV)
   210     210       --         3.432 au  O             1.00      1 F:z2x           4
                        (      93.382 eV)
   211     211       --         3.432 au  O             1.00      1 F:z2y           4
                        (      93.382 eV)
   212     212       --         3.432 au  O             1.00      1 F:x             4
                        (      93.382 eV)
   213     213       --         3.432 au  O             1.00      1 F:y             4
                        (      93.382 eV)
   214     214      2.000     -19.315 au  O             1.00      1 S               5
                        (    -525.599 eV)
   215     215      2.000      -0.972 au  O             1.00      2 S               5
                        (     -26.457 eV)
   216     216       --         0.838 au  O             1.00      3 S               5
                        (      22.795 eV)
   217     217       --        13.598 au  O             1.00      4 S               5
                        (     370.019 eV)
   218     218       --       122.184 au  O             1.00      5 S               5
                        (    3324.790 eV)
   219     219      1.333      -0.361 au  O             1.00      1 P:x             5
                        (      -9.818 eV)
   220     220       --         0.380 au  O             1.00      2 P:x             5
                        (      10.337 eV)
   221     221       --         3.931 au  O             1.00      3 P:x             5
                        (     106.958 eV)
   222     222      1.333      -0.361 au  O             1.00      1 P:y             5
                        (      -9.818 eV)
   223     223       --         0.380 au  O             1.00      2 P:y             5
                        (      10.337 eV)
   224     224       --         3.931 au  O             1.00      3 P:y             5
                        (     106.958 eV)
   225     225      1.333      -0.361 au  O             1.00      1 P:z             5
                        (      -9.818 eV)
   226     226       --         0.380 au  O             1.00      2 P:z             5
                        (      10.337 eV)
   227     227       --         3.931 au  O             1.00      3 P:z             5
                        (     106.958 eV)
   228     228       --         1.117 au  O             1.00      1 D:z2            5
                        (      30.399 eV)
   229     229       --         1.117 au  O             1.00      1 D:x2-y2         5
                        (      30.399 eV)
   230     230       --         1.117 au  O             1.00      1 D:xy            5
                        (      30.399 eV)
   231     231       --         1.117 au  O             1.00      1 D:xz            5
                        (      30.399 eV)
   232     232       --         1.117 au  O             1.00      1 D:yz            5
                        (      30.399 eV)
   233     233       --         3.432 au  O             1.00      1 F:z3            5
                        (      93.382 eV)
   234     234       --         3.432 au  O             1.00      1 F:z             5
                        (      93.382 eV)
   235     235       --         3.432 au  O             1.00      1 F:xyz           5
                        (      93.382 eV)
   236     236       --         3.432 au  O             1.00      1 F:z2x           5
                        (      93.382 eV)
   237     237       --         3.432 au  O             1.00      1 F:z2y           5
                        (      93.382 eV)
   238     238       --         3.432 au  O             1.00      1 F:x             5
                        (      93.382 eV)
   239     239       --         3.432 au  O             1.00      1 F:y             5
                        (      93.382 eV)
   240     240      2.000     -19.315 au  O             1.00      1 S               6
                        (    -525.599 eV)
   241     241      2.000      -0.972 au  O             1.00      2 S               6
                        (     -26.457 eV)
   242     242       --         0.838 au  O             1.00      3 S               6
                        (      22.795 eV)
   243     243       --        13.598 au  O             1.00      4 S               6
                        (     370.019 eV)
   244     244       --       122.184 au  O             1.00      5 S               6
                        (    3324.790 eV)
   245     245      1.333      -0.361 au  O             1.00      1 P:x             6
                        (      -9.818 eV)
   246     246       --         0.380 au  O             1.00      2 P:x             6
                        (      10.337 eV)
   247     247       --         3.931 au  O             1.00      3 P:x             6
                        (     106.958 eV)
   248     248      1.333      -0.361 au  O             1.00      1 P:y             6
                        (      -9.818 eV)
   249     249       --         0.380 au  O             1.00      2 P:y             6
                        (      10.337 eV)
   250     250       --         3.931 au  O             1.00      3 P:y             6
                        (     106.958 eV)
   251     251      1.333      -0.361 au  O             1.00      1 P:z             6
                        (      -9.818 eV)
   252     252       --         0.380 au  O             1.00      2 P:z             6
                        (      10.337 eV)
   253     253       --         3.931 au  O             1.00      3 P:z             6
                        (     106.958 eV)
   254     254       --         1.117 au  O             1.00      1 D:z2            6
                        (      30.399 eV)
   255     255       --         1.117 au  O             1.00      1 D:x2-y2         6
                        (      30.399 eV)
   256     256       --         1.117 au  O             1.00      1 D:xy            6
                        (      30.399 eV)
   257     257       --         1.117 au  O             1.00      1 D:xz            6
                        (      30.399 eV)
   258     258       --         1.117 au  O             1.00      1 D:yz            6
                        (      30.399 eV)
   259     259       --         3.432 au  O             1.00      1 F:z3            6
                        (      93.382 eV)
   260     260       --         3.432 au  O             1.00      1 F:z             6
                        (      93.382 eV)
   261     261       --         3.432 au  O             1.00      1 F:xyz           6
                        (      93.382 eV)
   262     262       --         3.432 au  O             1.00      1 F:z2x           6
                        (      93.382 eV)
   263     263       --         3.432 au  O             1.00      1 F:z2y           6
                        (      93.382 eV)
   264     264       --         3.432 au  O             1.00      1 F:x             6
                        (      93.382 eV)
   265     265       --         3.432 au  O             1.00      1 F:y             6
                        (      93.382 eV)
   266     266      2.000     -19.315 au  O             1.00      1 S               7
                        (    -525.599 eV)
   267     267      2.000      -0.972 au  O             1.00      2 S               7
                        (     -26.457 eV)
   268     268       --         0.838 au  O             1.00      3 S               7
                        (      22.795 eV)
   269     269       --        13.598 au  O             1.00      4 S               7
                        (     370.019 eV)
   270     270       --       122.184 au  O             1.00      5 S               7
                        (    3324.790 eV)
   271     271      1.333      -0.361 au  O             1.00      1 P:x             7
                        (      -9.818 eV)
   272     272       --         0.380 au  O             1.00      2 P:x             7
                        (      10.337 eV)
   273     273       --         3.931 au  O             1.00      3 P:x             7
                        (     106.958 eV)
   274     274      1.333      -0.361 au  O             1.00      1 P:y             7
                        (      -9.818 eV)
   275     275       --         0.380 au  O             1.00      2 P:y             7
                        (      10.337 eV)
   276     276       --         3.931 au  O             1.00      3 P:y             7
                        (     106.958 eV)
   277     277      1.333      -0.361 au  O             1.00      1 P:z             7
                        (      -9.818 eV)
   278     278       --         0.380 au  O             1.00      2 P:z             7
                        (      10.337 eV)
   279     279       --         3.931 au  O             1.00      3 P:z             7
                        (     106.958 eV)
   280     280       --         1.117 au  O             1.00      1 D:z2            7
                        (      30.399 eV)
   281     281       --         1.117 au  O             1.00      1 D:x2-y2         7
                        (      30.399 eV)
   282     282       --         1.117 au  O             1.00      1 D:xy            7
                        (      30.399 eV)
   283     283       --         1.117 au  O             1.00      1 D:xz            7
                        (      30.399 eV)
   284     284       --         1.117 au  O             1.00      1 D:yz            7
                        (      30.399 eV)
   285     285       --         3.432 au  O             1.00      1 F:z3            7
                        (      93.382 eV)
   286     286       --         3.432 au  O             1.00      1 F:z             7
                        (      93.382 eV)
   287     287       --         3.432 au  O             1.00      1 F:xyz           7
                        (      93.382 eV)
   288     288       --         3.432 au  O             1.00      1 F:z2x           7
                        (      93.382 eV)
   289     289       --         3.432 au  O             1.00      1 F:z2y           7
                        (      93.382 eV)
   290     290       --         3.432 au  O             1.00      1 F:x             7
                        (      93.382 eV)
   291     291       --         3.432 au  O             1.00      1 F:y             7
                        (      93.382 eV)
   292     292      2.000     -19.315 au  O             1.00      1 S               8
                        (    -525.599 eV)
   293     293      2.000      -0.972 au  O             1.00      2 S               8
                        (     -26.457 eV)
   294     294       --         0.838 au  O             1.00      3 S               8
                        (      22.795 eV)
   295     295       --        13.598 au  O             1.00      4 S               8
                        (     370.019 eV)
   296     296       --       122.184 au  O             1.00      5 S               8
                        (    3324.790 eV)
   297     297      1.333      -0.361 au  O             1.00      1 P:x             8
                        (      -9.818 eV)
   298     298       --         0.380 au  O             1.00      2 P:x             8
                        (      10.337 eV)
   299     299       --         3.931 au  O             1.00      3 P:x             8
                        (     106.958 eV)
   300     300      1.333      -0.361 au  O             1.00      1 P:y             8
                        (      -9.818 eV)
   301     301       --         0.380 au  O             1.00      2 P:y             8
                        (      10.337 eV)
   302     302       --         3.931 au  O             1.00      3 P:y             8
                        (     106.958 eV)
   303     303      1.333      -0.361 au  O             1.00      1 P:z             8
                        (      -9.818 eV)
   304     304       --         0.380 au  O             1.00      2 P:z             8
                        (      10.337 eV)
   305     305       --         3.931 au  O             1.00      3 P:z             8
                        (     106.958 eV)
   306     306       --         1.117 au  O             1.00      1 D:z2            8
                        (      30.399 eV)
   307     307       --         1.117 au  O             1.00      1 D:x2-y2         8
                        (      30.399 eV)
   308     308       --         1.117 au  O             1.00      1 D:xy            8
                        (      30.399 eV)
   309     309       --         1.117 au  O             1.00      1 D:xz            8
                        (      30.399 eV)
   310     310       --         1.117 au  O             1.00      1 D:yz            8
                        (      30.399 eV)
   311     311       --         3.432 au  O             1.00      1 F:z3            8
                        (      93.382 eV)
   312     312       --         3.432 au  O             1.00      1 F:z             8
                        (      93.382 eV)
   313     313       --         3.432 au  O             1.00      1 F:xyz           8
                        (      93.382 eV)
   314     314       --         3.432 au  O             1.00      1 F:z2x           8
                        (      93.382 eV)
   315     315       --         3.432 au  O             1.00      1 F:z2y           8
                        (      93.382 eV)
   316     316       --         3.432 au  O             1.00      1 F:x             8
                        (      93.382 eV)
   317     317       --         3.432 au  O             1.00      1 F:y             8
                        (      93.382 eV)
   318     318      2.000     -19.315 au  O             1.00      1 S               9
                        (    -525.599 eV)
   319     319      2.000      -0.972 au  O             1.00      2 S               9
                        (     -26.457 eV)
   320     320       --         0.838 au  O             1.00      3 S               9
                        (      22.795 eV)
   321     321       --        13.598 au  O             1.00      4 S               9
                        (     370.019 eV)
   322     322       --       122.184 au  O             1.00      5 S               9
                        (    3324.790 eV)
   323     323      1.333      -0.361 au  O             1.00      1 P:x             9
                        (      -9.818 eV)
   324     324       --         0.380 au  O             1.00      2 P:x             9
                        (      10.337 eV)
   325     325       --         3.931 au  O             1.00      3 P:x             9
                        (     106.958 eV)
   326     326      1.333      -0.361 au  O             1.00      1 P:y             9
                        (      -9.818 eV)
   327     327       --         0.380 au  O             1.00      2 P:y             9
                        (      10.337 eV)
   328     328       --         3.931 au  O             1.00      3 P:y             9
                        (     106.958 eV)
   329     329      1.333      -0.361 au  O             1.00      1 P:z             9
                        (      -9.818 eV)
   330     330       --         0.380 au  O             1.00      2 P:z             9
                        (      10.337 eV)
   331     331       --         3.931 au  O             1.00      3 P:z             9
                        (     106.958 eV)
   332     332       --         1.117 au  O             1.00      1 D:z2            9
                        (      30.399 eV)
   333     333       --         1.117 au  O             1.00      1 D:x2-y2         9
                        (      30.399 eV)
   334     334       --         1.117 au  O             1.00      1 D:xy            9
                        (      30.399 eV)
   335     335       --         1.117 au  O             1.00      1 D:xz            9
                        (      30.399 eV)
   336     336       --         1.117 au  O             1.00      1 D:yz            9
                        (      30.399 eV)
   337     337       --         3.432 au  O             1.00      1 F:z3            9
                        (      93.382 eV)
   338     338       --         3.432 au  O             1.00      1 F:z             9
                        (      93.382 eV)
   339     339       --         3.432 au  O             1.00      1 F:xyz           9
                        (      93.382 eV)
   340     340       --         3.432 au  O             1.00      1 F:z2x           9
                        (      93.382 eV)
   341     341       --         3.432 au  O             1.00      1 F:z2y           9
                        (      93.382 eV)
   342     342       --         3.432 au  O             1.00      1 F:x             9
                        (      93.382 eV)
   343     343       --         3.432 au  O             1.00      1 F:y             9
                        (      93.382 eV)
   344     344      1.000      -0.244 au  H             1.00      1 S              10
                        (      -6.641 eV)
   345     345       --         0.104 au  H             1.00      2 S              10
                        (       2.836 eV)
   346     346       --         1.564 au  H             1.00      3 S              10
                        (      42.560 eV)
   347     347       --         0.436 au  H             1.00      1 P:x            10
                        (      11.864 eV)
   348     348       --         0.436 au  H             1.00      1 P:y            10
                        (      11.864 eV)
   349     349       --         0.436 au  H             1.00      1 P:z            10
                        (      11.864 eV)
   350     350       --         2.617 au  H             1.00      1 D:z2           10
                        (      71.221 eV)
   351     351       --         2.617 au  H             1.00      1 D:x2-y2        10
                        (      71.221 eV)
   352     352       --         2.617 au  H             1.00      1 D:xy           10
                        (      71.221 eV)
   353     353       --         2.617 au  H             1.00      1 D:xz           10
                        (      71.221 eV)
   354     354       --         2.617 au  H             1.00      1 D:yz           10
                        (      71.221 eV)
   355     355      1.000      -0.244 au  H             1.00      1 S              11
                        (      -6.641 eV)
   356     356       --         0.104 au  H             1.00      2 S              11
                        (       2.836 eV)
   357     357       --         1.564 au  H             1.00      3 S              11
                        (      42.560 eV)
   358     358       --         0.436 au  H             1.00      1 P:x            11
                        (      11.864 eV)
   359     359       --         0.436 au  H             1.00      1 P:y            11
                        (      11.864 eV)
   360     360       --         0.436 au  H             1.00      1 P:z            11
                        (      11.864 eV)
   361     361       --         2.617 au  H             1.00      1 D:z2           11
                        (      71.221 eV)
   362     362       --         2.617 au  H             1.00      1 D:x2-y2        11
                        (      71.221 eV)
   363     363       --         2.617 au  H             1.00      1 D:xy           11
                        (      71.221 eV)
   364     364       --         2.617 au  H             1.00      1 D:xz           11
                        (      71.221 eV)
   365     365       --         2.617 au  H             1.00      1 D:yz           11
                        (      71.221 eV)
   366     366      1.000      -0.244 au  H             1.00      1 S              12
                        (      -6.641 eV)
   367     367       --         0.104 au  H             1.00      2 S              12
                        (       2.836 eV)
   368     368       --         1.564 au  H             1.00      3 S              12
                        (      42.560 eV)
   369     369       --         0.436 au  H             1.00      1 P:x            12
                        (      11.864 eV)
   370     370       --         0.436 au  H             1.00      1 P:y            12
                        (      11.864 eV)
   371     371       --         0.436 au  H             1.00      1 P:z            12
                        (      11.864 eV)
   372     372       --         2.617 au  H             1.00      1 D:z2           12
                        (      71.221 eV)
   373     373       --         2.617 au  H             1.00      1 D:x2-y2        12
                        (      71.221 eV)
   374     374       --         2.617 au  H             1.00      1 D:xy           12
                        (      71.221 eV)
   375     375       --         2.617 au  H             1.00      1 D:xz           12
                        (      71.221 eV)
   376     376       --         2.617 au  H             1.00      1 D:yz           12
                        (      71.221 eV)
   377     377      1.000      -0.244 au  H             1.00      1 S              13
                        (      -6.641 eV)
   378     378       --         0.104 au  H             1.00      2 S              13
                        (       2.836 eV)
   379     379       --         1.564 au  H             1.00      3 S              13
                        (      42.560 eV)
   380     380       --         0.436 au  H             1.00      1 P:x            13
                        (      11.864 eV)
   381     381       --         0.436 au  H             1.00      1 P:y            13
                        (      11.864 eV)
   382     382       --         0.436 au  H             1.00      1 P:z            13
                        (      11.864 eV)
   383     383       --         2.617 au  H             1.00      1 D:z2           13
                        (      71.221 eV)
   384     384       --         2.617 au  H             1.00      1 D:x2-y2        13
                        (      71.221 eV)
   385     385       --         2.617 au  H             1.00      1 D:xy           13
                        (      71.221 eV)
   386     386       --         2.617 au  H             1.00      1 D:xz           13
                        (      71.221 eV)
   387     387       --         2.617 au  H             1.00      1 D:yz           13
                        (      71.221 eV)
   388     388      2.000     -10.350 au  C             1.00      1 S              14
                        (    -281.645 eV)
   389     389      2.000      -0.564 au  C             1.00      2 S              14
                        (     -15.357 eV)
   390     390       --         0.402 au  C             1.00      3 S              14
                        (      10.927 eV)
   391     391       --         5.502 au  C             1.00      4 S              14
                        (     149.716 eV)
   392     392       --        50.237 au  C             1.00      5 S              14
                        (    1367.023 eV)
   393     393      0.667      -0.188 au  C             1.00      1 P:x            14
                        (      -5.107 eV)
   394     394       --         0.191 au  C             1.00      2 P:x            14
                        (       5.205 eV)
   395     395       --         2.088 au  C             1.00      3 P:x            14
                        (      56.818 eV)
   396     396      0.667      -0.188 au  C             1.00      1 P:y            14
                        (      -5.107 eV)
   397     397       --         0.191 au  C             1.00      2 P:y            14
                        (       5.205 eV)
   398     398       --         2.088 au  C             1.00      3 P:y            14
                        (      56.818 eV)
   399     399      0.667      -0.188 au  C             1.00      1 P:z            14
                        (      -5.107 eV)
   400     400       --         0.191 au  C             1.00      2 P:z            14
                        (       5.205 eV)
   401     401       --         2.088 au  C             1.00      3 P:z            14
                        (      56.818 eV)
   402     402       --         1.292 au  C             1.00      1 D:z2           14
                        (      35.151 eV)
   403     403       --         1.292 au  C             1.00      1 D:x2-y2        14
                        (      35.151 eV)
   404     404       --         1.292 au  C             1.00      1 D:xy           14
                        (      35.151 eV)
   405     405       --         1.292 au  C             1.00      1 D:xz           14
                        (      35.151 eV)
   406     406       --         1.292 au  C             1.00      1 D:yz           14
                        (      35.151 eV)
   407     407       --         4.084 au  C             1.00      1 F:z3           14
                        (     111.127 eV)
   408     408       --         4.084 au  C             1.00      1 F:z            14
                        (     111.127 eV)
   409     409       --         4.084 au  C             1.00      1 F:xyz          14
                        (     111.127 eV)
   410     410       --         4.084 au  C             1.00      1 F:z2x          14
                        (     111.127 eV)
   411     411       --         4.084 au  C             1.00      1 F:z2y          14
                        (     111.127 eV)
   412     412       --         4.084 au  C             1.00      1 F:x            14
                        (     111.127 eV)
   413     413       --         4.084 au  C             1.00      1 F:y            14
                        (     111.127 eV)
   414     414      2.000     -10.350 au  C             1.00      1 S              15
                        (    -281.645 eV)
   415     415      2.000      -0.564 au  C             1.00      2 S              15
                        (     -15.357 eV)
   416     416       --         0.402 au  C             1.00      3 S              15
                        (      10.927 eV)
   417     417       --         5.502 au  C             1.00      4 S              15
                        (     149.716 eV)
   418     418       --        50.237 au  C             1.00      5 S              15
                        (    1367.023 eV)
   419     419      0.667      -0.188 au  C             1.00      1 P:x            15
                        (      -5.107 eV)
   420     420       --         0.191 au  C             1.00      2 P:x            15
                        (       5.205 eV)
   421     421       --         2.088 au  C             1.00      3 P:x            15
                        (      56.818 eV)
   422     422      0.667      -0.188 au  C             1.00      1 P:y            15
                        (      -5.107 eV)
   423     423       --         0.191 au  C             1.00      2 P:y            15
                        (       5.205 eV)
   424     424       --         2.088 au  C             1.00      3 P:y            15
                        (      56.818 eV)
   425     425      0.667      -0.188 au  C             1.00      1 P:z            15
                        (      -5.107 eV)
   426     426       --         0.191 au  C             1.00      2 P:z            15
                        (       5.205 eV)
   427     427       --         2.088 au  C             1.00      3 P:z            15
                        (      56.818 eV)
   428     428       --         1.292 au  C             1.00      1 D:z2           15
                        (      35.151 eV)
   429     429       --         1.292 au  C             1.00      1 D:x2-y2        15
                        (      35.151 eV)
   430     430       --         1.292 au  C             1.00      1 D:xy           15
                        (      35.151 eV)
   431     431       --         1.292 au  C             1.00      1 D:xz           15
                        (      35.151 eV)
   432     432       --         1.292 au  C             1.00      1 D:yz           15
                        (      35.151 eV)
   433     433       --         4.084 au  C             1.00      1 F:z3           15
                        (     111.127 eV)
   434     434       --         4.084 au  C             1.00      1 F:z            15
                        (     111.127 eV)
   435     435       --         4.084 au  C             1.00      1 F:xyz          15
                        (     111.127 eV)
   436     436       --         4.084 au  C             1.00      1 F:z2x          15
                        (     111.127 eV)
   437     437       --         4.084 au  C             1.00      1 F:z2y          15
                        (     111.127 eV)
   438     438       --         4.084 au  C             1.00      1 F:x            15
                        (     111.127 eV)
   439     439       --         4.084 au  C             1.00      1 F:y            15
                        (     111.127 eV)



 ================================
 (Slater-type)  F U N C T I O N S  ***  (Basis and Fit)  ***
 ================================
  

 Atom Type    1  (Pa)
 ==============

 Valence Basis Sets:  43
 -----------------------
   1 S 1028.000000
   1 S  240.000000
   1 S  107.000000
   2 S  131.500000
   2 S   46.500000
   3 S   59.100000
   3 S   25.450000
   4 S   15.550000
   4 S   11.050000
   5 S   10.200000
   5 S    7.100000
   6 S    4.950000
   6 S    3.250000
   7 S    2.350000
   7 S    1.550000
   7 S    1.020000
   2 P  240.000000
   2 P   84.000000
   2 P   43.600000
   3 P   24.750000
   3 P   17.850000
   4 P   17.650000
   4 P   12.100000
   5 P    8.500000
   5 P    5.900000
   6 P    4.400000
   6 P    3.000000
   6 P    2.100000
   3 D   33.750000
   3 D   21.750000
   4 D   15.300000
   4 D   10.450000
   5 D    7.150000
   5 D    4.600000
   6 D    3.000000
   6 D    1.700000
   6 D    0.980000
   4 F   17.100000
   4 F    9.350000
   5 F    5.850000
   5 F    3.150000
   5 F    1.550000
   7 P    1.550000

 Charge Fitting Sets (for the computation of the Coulomb Potential):  87
 -----------------------------------------------------------------------
   1 S 2056.000000
   1 S 1549.519000
   1 S 1167.806000
   1 S  880.126000
   1 S  663.313000
   1 S  499.911000
   1 S  376.761000
   1 S  283.949000
   1 S  214.000000
   1 S  127.280000
   2 S  140.220000
   2 S   93.850000
   3 S   92.230000
   3 S   65.710000
   4 S   61.900000
   4 S   45.910000
   5 S   42.420000
   5 S   32.370000
   6 S   29.610000
   6 S   23.090000
   7 S   21.000000
   7 S   16.670000
   8 S   15.120000
   8 S   12.170000
   9 S   11.020000
   9 S    8.970000
  10 S    8.120000
  10 S    6.680000
  11 S    6.050000
  11 S    5.020000
  12 S    4.550000
  12 S    3.800000
  12 S    3.180000
  13 S    2.880000
  13 S    2.420000
  13 S    2.040000
   2 P  150.600000
   3 P  125.870000
   4 P  103.260000
   5 P   84.350000
   6 P   68.960000
   7 P   56.560000
   7 P   40.600000
   8 P   33.430000
   8 P   24.490000
   9 P   20.250000
   9 P   15.090000
  10 P   12.530000
  10 P    9.470000
  11 P    7.900000
  11 P    6.040000
  12 P    5.060000
  12 P    3.910000
  13 P    3.290000
  13 P    2.570000
   3 D  128.750000
   4 D   91.090000
   5 D   65.210000
   6 D   47.270000
   7 D   34.690000
   8 D   25.740000
   9 D   19.290000
   9 D   13.060000
  10 D    9.880000
  10 D    6.820000
  11 D    5.210000
  11 D    3.650000
  12 D    2.810000
  12 D    2.000000
   4 F  116.350000
   5 F   72.360000
   6 F   46.140000
   7 F   30.070000
   8 F   19.970000
   9 F   13.480000
  10 F    9.240000
  10 F    5.790000
  11 F    4.020000
  11 F    2.570000
   5 G   52.950000
   6 G   31.380000
   7 G   19.110000
   8 G   11.920000
   9 G    7.580000
  10 G    4.910000
  11 G    3.230000
  11 G    1.960000

 Atom Type    2  (O)
 ==============

 Valence Basis Sets:  10
 -----------------------
   1 S    9.800000
   1 S    6.800000
   2 S    7.580000
   2 S    2.880000
   2 S    1.720000
   2 P    4.080000
   2 P    2.080000
   2 P    1.120000
   3 D    2.000000
   4 F    3.000000

 Charge Fitting Sets (for the computation of the Coulomb Potential):  22
 -----------------------------------------------------------------------
   1 S   19.600000
   2 S   22.600000
   2 S   15.680000
   2 S   10.890000
   2 S    7.560000
   3 S    7.690000
   3 S    5.650000
   3 S    4.150000
   3 S    3.050000
   3 S    2.240000
   2 P   12.860000
   2 P    7.680000
   3 P    6.780000
   3 P    4.390000
   3 P    2.840000
   3 D    8.800000
   3 D    5.580000
   3 D    3.530000
   3 D    2.240000
   4 F    6.200000
   4 F    3.700000
   5 G    4.500000

 Atom Type    3  (H)
 ==============

 Valence Basis Sets:   5
 -----------------------
   1 S    0.690000
   1 S    0.920000
   1 S    1.580000
   2 P    1.250000
   3 D    2.500000

 Charge Fitting Sets (for the computation of the Coulomb Potential):  11
 -----------------------------------------------------------------------
   1 S    3.160000
   1 S    2.090000
   1 S    1.380000
   2 S    1.500000
   2 P    4.000000
   2 P    2.650000
   2 P    1.750000
   3 D    4.000000
   3 D    2.500000
   4 F    3.000000
   5 G    4.000000

 Atom Type    4  (C)
 ==============

 Valence Basis Sets:  10
 -----------------------
   1 S    7.680000
   1 S    5.000000
   2 S    1.280000
   2 S    2.100000
   2 S    4.600000
   2 P    0.820000
   2 P    1.480000
   2 P    2.940000
   3 D    2.200000
   4 F    3.300000

 Charge Fitting Sets (for the computation of the Coulomb Potential):  22
 -----------------------------------------------------------------------
   1 S   15.360000
   2 S   17.530000
   2 S   12.070000
   2 S    8.310000
   2 S    5.730000
   3 S    5.780000
   3 S    4.220000
   3 S    3.080000
   3 S    2.250000
   3 S    1.640000
   2 P    9.880000
   2 P    5.800000
   3 P    5.050000
   3 P    3.230000
   3 P    2.060000
   3 D    7.200000
   3 D    4.400000
   3 D    2.690000
   3 D    1.640000
   4 F    5.400000
   4 F    3.550000
   5 G    4.500000


 BAS: List of all Elementary Cartesian Basis Functions
 =====================================================

 The numbering in the list below (to the right of the function characteristics) is referred
 to in print-outs of MO eigenvectors and Mulliken populations in the BAS representation
 (as contrasted to the SFO representation).

 Notes:
 1. The functions are characterized by a polynomial prefactor (powers of x,y,z and r) and
    an exponential decay factor alpha.
 2. Since the basis sets are specific for an atom TYPE, the individual functions occur on
    all atoms of that type.
 3. The word 'Core' in the left margin signals that it is a Core Function (CF) : not a
    degree of freedom in the valence set, but only used to ensure orthogonalization of
    the other valence basis functions on the frozen Core Orbitals.


[...]
     451       62.9458         0.000       
     450       62.4604         0.000       
     449       62.4604         0.000       
     448       60.7885         0.000       
     447       60.7885         0.000       
     446       60.0342         0.000       
     445       60.0342         0.000       
     444       59.4274         0.000       
     443       59.4274         0.000       
     442       58.6456         0.000       
     441       58.6456         0.000       
     440       57.8361         0.000       
     439       57.8361         0.000       
     438       56.7300         0.000       
     437       56.7300         0.000       
     436       55.4402         0.000       
     435       55.4402         0.000       
     434       54.9741         0.000       
     433       54.9741         0.000       
     432       54.6314         0.000       
     431       54.6314         0.000       
     430       54.2184         0.000       
     429       54.2184         0.000       
     428       53.4670         0.000       
     427       53.4670         0.000       
     426       52.7328         0.000       
     425       52.7328         0.000       
     424       52.1491         0.000       
     423       52.1491         0.000       
     422       51.5042         0.000       
     421       51.5042         0.000       
     420       50.6660         0.000       
     419       50.6660         0.000       
     418       49.6441         0.000       
     417       49.6441         0.000       
     416       49.4193         0.000       
     415       49.4193         0.000       
     414       49.1829         0.000       
     413       49.1829         0.000       
     412       48.7303         0.000       
     411       48.7303         0.000       
     410       48.0994         0.000       
     409       48.0994         0.000       
     408       47.7046         0.000       
     407       47.7046         0.000       
     406       47.5240         0.000       
     405       47.5240         0.000       
     404       47.3216         0.000       
     403       47.3216         0.000       
     402       46.9698         0.000       
     401       46.9698         0.000       
     400       46.5000         0.000       
     399       46.5000         0.000       
     398       45.7616         0.000       
     397       45.7616         0.000       
     396       45.1316         0.000       
     395       45.1316         0.000       
     394       44.6672         0.000       
     393       44.6672         0.000       
     392       44.1931         0.000       
     391       44.1931         0.000       
     390       43.2320         0.000       
     389       43.2320         0.000       
     388       42.2285         0.000       
     387       42.2285         0.000       
     386       41.8520         0.000       
     385       41.8520         0.000       
     384       41.4516         0.000       
     383       41.4516         0.000       
     382       41.2729         0.000       
     381       41.2729         0.000       
     380       40.5150         0.000       
     379       40.5150         0.000       
     378       39.6239         0.000       
     377       39.6239         0.000       
     376       39.2942         0.000       
     375       39.2942         0.000       
     374       38.9397         0.000       
     373       38.9397         0.000       
     372       38.3187         0.000       
     371       38.3187         0.000       
     370       37.6608         0.000       
     369       37.6608         0.000       
     368       36.7924         0.000       
     367       36.7924         0.000       
     366       36.0889         0.000       
     365       36.0889         0.000       
     364       35.9678         0.000       
     363       35.9678         0.000       
     362       35.5160         0.000       
     361       35.5160         0.000       
     360       34.9866         0.000       
     359       34.9866         0.000       
     358       34.7438         0.000       
     357       34.7438         0.000       
     356       34.3703         0.000       
     355       34.3703         0.000       
     354       33.9128         0.000       
     353       33.9128         0.000       
     352       32.9202         0.000       
     351       32.9202         0.000       
     350       32.4585         0.000       
     349       32.4585         0.000       
     348       31.2186         0.000       
     347       31.2186         0.000       
     346       30.8580         0.000       
     345       30.8580         0.000       
     344       30.5505         0.000       
     343       30.5505         0.000       
     342       30.3471         0.000       
     341       30.3471         0.000       
     340       29.4118         0.000       
     339       29.4118         0.000       
     338       29.0119         0.000       
     337       29.0119         0.000       
     336       28.8418         0.000       
     335       28.8418         0.000       
     334       28.3523         0.000       
     333       28.3523         0.000       
     332       27.5930         0.000       
     331       27.5930         0.000       
     330       27.5138         0.000       
     329       27.5138         0.000       
     328       26.8793         0.000       
     327       26.8793         0.000       
     326       26.5316         0.000       
     325       26.5316         0.000       
     324       26.0152         0.000       
     323       26.0152         0.000       
     322       25.2665         0.000       
     321       25.2665         0.000       
     320       24.7560         0.000       
     319       24.7560         0.000       
     318       24.0073         0.000       
     317       24.0073         0.000       
     316       23.6121         0.000       
     315       23.6121         0.000       
     314       22.9181         0.000       
     313       22.9181         0.000       
     312       22.4028         0.000       
     311       22.4028         0.000       
     310       22.3584         0.000       
     309       22.3584         0.000       
     308       22.1743         0.000       
     307       22.1743         0.000       
     306       21.8403         0.000       
     305       21.8403         0.000       
     304       21.4765         0.000       
     303       21.4765         0.000       
     302       21.2470         0.000       
     301       21.2470         0.000       
     300       21.0143         0.000       
     299       21.0143         0.000       
     298       20.7781         0.000       
     297       20.7781         0.000       
     296       20.4447         0.000       
     295       20.4447         0.000       
     294       20.0188         0.000       
     293       20.0188         0.000       
     292       19.7004         0.000       
     291       19.7004         0.000       
     290       19.3649         0.000       
     289       19.3649         0.000       
     288       19.1862         0.000       
     287       19.1862         0.000       
     286       19.0698         0.000       
     285       19.0698         0.000       
     284       18.9643         0.000       
     283       18.9643         0.000       
     282       18.6557         0.000       
     281       18.6557         0.000       
     280       18.5111         0.000       
     279       18.5111         0.000       
     278       18.3120         0.000       
     277       18.3120         0.000       
     276       18.1422         0.000       
     275       18.1422         0.000       
     274       17.9769         0.000       
     273       17.9769         0.000       
     272       17.2265         0.000       
     271       17.2265         0.000       
     270       17.0548         0.000       
     269       17.0548         0.000       
     268       16.5424         0.000       
     267       16.5424         0.000       
     266       16.1910         0.000       
     265       16.1910         0.000       
     264       15.9456         0.000       
     263       15.9456         0.000       
     262       15.8156         0.000       
     261       15.8156         0.000       
     260       15.5388         0.000       
     259       15.5388         0.000       
     258       15.0343         0.000       
     257       15.0343         0.000       
     256       14.5687         0.000       
     255       14.5687         0.000       
     254       14.0612         0.000       
     253       14.0612         0.000       
     252       13.2402         0.000       
     251       13.2402         0.000       
     250       12.7268         0.000       
     249       12.7268         0.000       
     248       12.4619         0.000       
     247       12.4619         0.000       
     246       12.2207         0.000       
     245       12.2207         0.000       
     244       11.7806         0.000       
     243       11.7806         0.000       
     242       11.4565         0.000       
     241       11.4565         0.000       
     240       11.2462         0.000       
     239       11.2462         0.000       
     238       11.0599         0.000       
     237       11.0599         0.000       
     236       10.6190         0.000       
     235       10.6190         0.000       
     234       10.2123         0.000       
     233       10.2123         0.000       
     232        9.7781         0.000       
     231        9.7781         0.000       
     230        8.9968         0.000       
     229        8.9968         0.000       
     228        8.3269         0.000       
     227        8.3269         0.000       
     226        8.2598         0.000       
     225        8.2598         0.000       
     224        7.9803         0.000       
     223        7.9803         0.000       
     222        7.5330         0.000       
     221        7.5330         0.000       
     220        7.2138         0.000       
     219        7.2138         0.000       
     218        7.1360         0.000       
     217        7.1360         0.000       
     216        6.6297         0.000       
     215        6.6297         0.000       
     214        6.4098         0.000       
     213        6.4098         0.000       
     212        6.0000         0.000       
     211        6.0000         0.000       
     210        5.8343         0.000       
     209        5.8343         0.000       
     208        5.6756         0.000       
     207        5.6756         0.000       
     206        5.3635         0.000       
     205        5.3635         0.000       
     204        5.2283         0.000       
     203        5.2283         0.000       
     202        5.0949         0.000       
     201        5.0949         0.000       
     200        4.8940         0.000       
     199        4.8940         0.000       
     198        4.4516         0.000       
     197        4.4516         0.000       
     196        4.3592         0.000       
     195        4.3592         0.000       
     194        3.5789         0.000       
     193        3.5789         0.000       
     192        3.5164         0.000       
     191        3.5164         0.000       
     190        3.2590         0.000       
     189        3.2590         0.000       
     188        2.8954         0.000       
     187        2.8954         0.000       
     186        2.6204         0.000       
     185        2.6204         0.000       
     184        2.4465         0.000       
     183        2.4465         0.000       
     182        2.2883         0.000       
     181        2.2883         0.000       
     180        2.2187         0.000       
     179        2.2187         0.000       
     178        2.1464         0.000       
     177        2.1464         0.000       
     176        1.7337         0.000       
     175        1.7337         0.000       
     174        1.6814         0.000       
     173        1.6814         0.000 < LUMO
     172       -3.4843         1.000 < HOMO
     171       -3.4843         1.000       
     170       -3.8850         1.000       
     169       -3.8850         1.000       
     168       -4.1207         1.000       
     167       -4.1207         1.000       
     166       -4.5142         1.000       
     165       -4.5142         1.000       
     164       -4.7419         1.000       
     163       -4.7419         1.000       
     162       -4.9033         1.000       
     161       -4.9033         1.000       
     160       -5.0298         1.000       
     159       -5.0298         1.000       
     158       -5.1714         1.000       
     157       -5.1714         1.000       
     156       -5.3090         1.000       
     155       -5.3090         1.000       
     154       -5.4533         1.000       
     153       -5.4533         1.000       
     152       -5.7917         1.000       
     151       -5.7917         1.000       
     150       -6.0519         1.000       
     149       -6.0519         1.000       
     148       -6.0855         1.000       
     147       -6.0855         1.000       
     146       -7.0430         1.000       
     145       -7.0430         1.000       
     144       -7.5925         1.000       
     143       -7.5925         1.000       
     142       -8.3743         1.000       
     141       -8.3743         1.000       
     140       -8.5416         1.000       
     139       -8.5416         1.000       
     138       -8.7818         1.000       
     137       -8.7818         1.000       
     136       -9.0545         1.000       
     135       -9.0545         1.000       
     134       -9.0894         1.000       
     133       -9.0894         1.000       
     132       -9.4378         1.000       
     131       -9.4378         1.000       
     130      -10.0708         1.000       
     129      -10.0708         1.000       
     128      -10.7938         1.000       
     127      -10.7938         1.000       
     126      -12.3576         1.000       
     125      -12.3576         1.000       
     124      -13.7928         1.000       
     123      -13.7928         1.000       
     122      -16.3327         1.000       
     121      -16.3327         1.000       
     120      -18.4828         1.000       
     119      -18.4828         1.000       
     118      -21.6703         1.000       
     117      -21.6703         1.000       
     116      -22.6293         1.000       
     115      -22.6293         1.000       
     114      -23.1418         1.000       
     113      -23.1418         1.000       
     112      -23.4297         1.000       
     111      -23.4297         1.000       
     110      -23.9995         1.000       
     109      -23.9995         1.000       
     108      -25.2997         1.000       
     107      -25.2997         1.000       
     106      -25.4703         1.000       
     105      -25.4703         1.000       
     104      -26.0964         1.000       
     103      -26.0964         1.000       
     102      -28.1057         1.000       
     101      -28.1057         1.000       
     100      -45.4891         1.000       
      99      -45.4891         1.000       
      98      -91.9034         1.000       
      97      -91.9034         1.000       
      96      -91.9606         1.000       
      95      -91.9606         1.000       
      94      -92.0390         1.000       
      93      -92.0390         1.000       
      92      -99.3196         1.000       
      91      -99.3196         1.000       
      90      -99.4231         1.000       
      89      -99.4231         1.000       
      88     -188.8127         1.000       
      87     -188.8127         1.000       
      86     -188.9758         1.000       
      85     -188.9758         1.000       
      84     -237.1891         1.000       
      83     -237.1891         1.000       
      82     -276.7427         1.000       
      81     -276.7427         1.000       
      80     -276.8065         1.000       
      79     -276.8065         1.000       
      78     -299.3031         1.000       
      77     -299.3031         1.000       
      76     -349.7107         1.000       
      75     -349.7107         1.000       
      74     -349.7768         1.000       
      73     -349.7768         1.000       
      72     -349.8860         1.000       
      71     -349.8860         1.000       
      70     -349.9940         1.000       
      69     -349.9940         1.000       
      68     -359.4747         1.000       
      67     -359.4747         1.000       
      66     -359.5850         1.000       
      65     -359.5850         1.000       
      64     -359.7281         1.000       
      63     -359.7281         1.000       
      62     -516.2336         1.000       
      61     -516.2336         1.000       
      60     -516.7746         1.000       
      59     -516.7746         1.000       
      58     -516.7799         1.000       
      57     -516.7799         1.000       
      56     -516.7885         1.000       
      55     -516.7885         1.000       
      54     -516.8949         1.000       
      53     -516.8949         1.000       
      52     -517.3513         1.000       
      51     -517.3513         1.000       
      50     -517.4991         1.000       
      49     -517.4991         1.000       
      48     -518.7620         1.000       
      47     -518.7620         1.000       
      46     -688.9898         1.000       
      45     -688.9898         1.000       
      44     -689.1136         1.000       
      43     -689.1136         1.000       
      42     -689.2547         1.000       
      41     -689.2547         1.000       
      40     -728.3304         1.000       
      39     -728.3304         1.000       
      38     -728.5282         1.000       
      37     -728.5282         1.000       
      36     -978.2845         1.000       
      35     -978.2845         1.000       
      34     -978.4881         1.000       
      33     -978.4881         1.000       
      32    -1185.1577         1.000       
      31    -1185.1577         1.000       
      30    -1348.3156         1.000       
      29    -1348.3156         1.000       
      28    -3405.2659         1.000       
      27    -3405.2659         1.000       
      26    -3405.3194         1.000       
      25    -3405.3194         1.000       
      24    -3405.3873         1.000       
      23    -3405.3873         1.000       
      22    -3572.0736         1.000       
      21    -3572.0736         1.000       
      20    -3572.1585         1.000       
      19    -3572.1585         1.000       
      18    -4125.9589         1.000       
      17    -4125.9589         1.000       
      16    -4126.0768         1.000       
      15    -4126.0768         1.000       
      14    -4921.8124         1.000       
      13    -4921.8124         1.000       
      12    -5298.6051         1.000       
      11    -5298.6051         1.000       
      10   -16644.3511         1.000       
       9   -16644.3511         1.000       
       8   -16644.3684         1.000       
       7   -16644.3684         1.000       
       6   -20122.0495         1.000       
       5   -20122.0495         1.000       
       4   -20995.6352         1.000       
       3   -20995.6352         1.000       
       2  -112591.3371         1.000       
       1  -112591.3371         1.000       

AMS application finished. Exiting.
NORMAL TERMINATION
     Total cpu time:    1376.57
  Total system time:      73.88
 Total elapsed time:    1451.45
