
 Working directory              : /state/partition2/shaaban/999404.phlam-s-sakura/molpro.cvWp2LGUBa/
 Global scratch directory       : /state/partition2/shaaban/999404.phlam-s-sakura/molpro.cvWp2LGUBa/
 Wavefunction directory         : /home/shaaban/wfu/
 Main file repository           : /state/partition2/shaaban/999404.phlam-s-sakura/molpro.cvWp2LGUBa/

 id        : lill

 Nodes       nprocs
 u-0-13.local    8
 GA implementation: MPI file
 GA implementation (serial work in mppx): MPI file

 Using customized tuning parameters: mindgm=1; mindgv=20; mindgc=4; mindgr=1; noblas=0; minvec=7
 default implementation of scratch files=sf  


 Variables initialized (1040), CPU time= 0.01 sec
 ***,PaO(OH)2(SO4)(H2O) - MP2 and CCSD(T)
 memory,5000, m;
 file, 1, pao_oh2_so4_h2o.ccsd-tx.int, new;
 file, 2, pao_oh2_so4_h2o.ccsd-tx.wfu, new;
 
 gprint, basis;
 gprint, orbital=10;
 
 nosym;
 
 geomtyp=xyz;
 
 geometry={
 Including file /home/shaaban/molpro/PhD/sulfate/gp/pao_oh2_so4_h2o/pao_oh2_so4_h2o-gp.xyz
 }
 
 charge=-1;
 
                                                                                 ! Select X2C SR Hamiltonian
 SET,DKHO=101
 
                                                                                 ! Calculation with VTZ basis set
 basis={
 Pa=cc-pVTZ-X2C;
 O=aug-cc-pVTZ-X2C;
 H=aug-cc-pVTZ-X2C;
 S=aug-cc-pVTZ-X2C;
 }
 
                                                                                 ! Hartree-Fock calculation
 {hf;}
 
                                                                                 ! MP2 and CCSD(T) calculation
 {ccsd(t);}
 
                                                                  ! Save HF energy and CCSD(T) correlation energy for VTZ basis set
 energy_hf(1) = energr(1);
 corr_mp2(1) = EMP2-energr(1);
 corr_ccsdt(1) = ENERGT(1)-energr(1);
 
 Commands initialized (846), CPU time= 0.01 sec, 717 directives.
 Default parameters read. Elapsed time= 0.15 sec

 Checking input...
 Passed
1


                                         ***  PROGRAM SYSTEM MOLPRO  ***
                                       Copyright, TTI GmbH Stuttgart, 2015
                                    Version 2023.2 linked Fri Sep 22 09:27:09 2023


 **********************************************************************************************************************************
 LABEL *   PaO(OH)2(SO4)(H2O) - MP2 and CCSD(T)                                                                                                                          
  64 bit mpp version                                                                     DATE: 12-Jan-24          TIME: 04:58:34  
 **********************************************************************************************************************************

 SHA1:             3c61bfe44d37c8635c785372c339f5cbdd4e4b59
 **********************************************************************************************************************************

 Memory per process:      5000 MW
 Total memory per node:  40000 MW

 GA preallocation disabled
 GA check disabled

 Variable memory set to 5000.0 MW



 Permanent file  1  pao_oh2_so4_h2o.ccsd-tx.int      assigned.  Implementation=df  
 Permanent file  2  pao_oh2_so4_h2o.ccsd-tx.wfu      assigned.  Implementation=df  



 **********************************************************************************************************************************
 DATASETS  * FILE   NREC   LENGTH (MB)   RECORD NAMES
              1       1        0.06       500   
                                          VAR  

              2       1        0.06       500   
                                          VAR  

 PROGRAMS   *        TOTAL      FILE
 CPU TIMES  *         0.22      0.01
 REAL TIME  *         0.49 SEC
 DISK USED  *         0.16 MB (local),        1.32 MB (total)
 **********************************************************************************************************************************


 SETTING GEOMTYP        =    XYZ
 ZSYMEL=NOSYM


 Geometry recognized as XYZ

 SETTING CHARGE         =        -1.00000000                                  
 SETTING DKHO           =       101.00000000                                  
 SETTING BASIS          =    PA=CC-PVTZ-X2C,O=AUG-CC-PVTZ-X2C,H=AUG-CC-PVTZ-X2C,S=AUG-CC-PVTZ-X2C


 Recomputing integrals since basis changed


 Using spherical harmonics

 Library entry PA     S cc-pVTZ-X2C          selected for orbital group  1
 Library entry PA     P cc-pVTZ-X2C          selected for orbital group  1
 Library entry PA     D cc-pVTZ-X2C          selected for orbital group  1
 Library entry PA     F cc-pVTZ-X2C          selected for orbital group  1
 Library entry PA     G cc-pVTZ-X2C          selected for orbital group  1
 Library entry PA     H cc-pVTZ-X2C          selected for orbital group  1
 Library entry O      S aug-cc-pVTZ-X2C      selected for orbital group  2
 Library entry O      P aug-cc-pVTZ-X2C      selected for orbital group  2
 Library entry O      D aug-cc-pVTZ-X2C      selected for orbital group  2
 Library entry O      F aug-cc-pVTZ-X2C      selected for orbital group  2
 Library entry H      S aug-cc-pVTZ-X2C      selected for orbital group  3
 Library entry H      P aug-cc-pVTZ-X2C      selected for orbital group  3
 Library entry H      D aug-cc-pVTZ-X2C      selected for orbital group  3
 Library entry S      S aug-cc-pVTZ-X2C      selected for orbital group  9
 Library entry S      P aug-cc-pVTZ-X2C      selected for orbital group  9
 Library entry S      D aug-cc-pVTZ-X2C      selected for orbital group  9
 Library entry S      F aug-cc-pVTZ-X2C      selected for orbital group  9


 PROGRAM * SEWARD (Integral evaluation for generally contracted gaussian basis sets)     Author: Roland Lindh, 1990

 Geometry written to block  1 of record 700


 Point group  C1  



 ATOMIC COORDINATES

 NR  ATOM    CHARGE       X              Y              Z

   1  PA     91.00    1.325184620   -1.029597409    0.420327302
   2  O       8.00    1.599055761    0.965394100   -3.385871806
   3  H       1.00    1.834567725    2.736414998   -3.699465056
   4  O       8.00   -0.259334625    1.713159469    1.953920717
   5  O       8.00    8.661695913   -1.879323973   -0.765903573
   6  O       8.00   -2.302364288   -1.873039381   -3.181621250
   7  H       1.00   -1.234499934   -0.526364560   -3.941287426
   8  O       8.00   -0.785313784   -3.850027018    2.519312438
   9  H       1.00   -2.069331520   -3.741078663    3.794537530
  10  O       8.00    5.315950324   -0.593034014    2.211941781
  11  O       8.00    4.425961871   -3.837042271   -0.677585323
  12  S      16.00    6.719209697   -2.819142470    0.904973628
  13  O       8.00    7.485802657   -4.685102348    2.741537056
  14  H       1.00   -3.879066949   -1.102773210   -2.703251894

 Bond lengths in Bohr (Angstrom)

 1-2  4.306059471  1-3  5.604909425  1-4  3.519279087  1-6  5.181171567  1-7  5.082215201
     ( 2.278668541)     ( 2.965990337)     ( 1.862322291)     ( 2.741757919)     ( 2.689392465)

  1- 8  4.100581093   1- 9  5.500924021   1-10  4.396212113   1-11  4.324578401   1-12  5.703758420
       ( 2.169934066)       ( 2.910963631)       ( 2.326375264)       ( 2.288468337)       ( 3.018298972)

  1-14  6.070118293   2- 3  1.813924373   5-12  2.729165098   6- 7  1.879084898   6-14  1.818828880
       ( 3.212168268)       ( 0.959887441)       ( 1.444211975)       ( 0.994368905)       ( 0.962482794)

  8- 9  1.812945207  10-12  2.938173153  11-12  2.966411709  12-13  2.728082891
       ( 0.959369288)       ( 1.554814274)       ( 1.569757475)       ( 1.443639295)

 Bond angles

  1- 2- 3  127.83653884   1- 3- 2   37.35477183   1- 6- 7   76.49696124   1- 6-14  110.80273505

  1- 7- 6   82.43250726   1- 8- 9  133.09756664   1- 9- 8   32.97753229   1-10-12  100.19677724

  1-11-12  101.30888375   1-12- 5  120.86632539   1-12-10   49.33947191   1-12-11   48.02845605

  1-12-13  122.51645103   1-14- 6   52.93092497   2- 1- 3   14.80868933   2- 1- 4   93.02358135

  2-1-6   60.36001263   2-1-7   39.42743775   2-1-8  143.49953258   2-1-9  144.07630340

  2- 1-10  104.86157924   2- 1-11   91.76248634   2- 1-12   99.22533998   2- 1-14   66.75058358

  3-1-4   80.65181815   3-1-6   70.24590279   3-1-7   49.33975024   3-1-8  152.27247351

  3- 1- 9  146.94403084   3- 1-10   98.64595912   3- 1-11  100.62752142   3- 1-12  100.79646663

  3- 1-14   73.00923918   4- 1- 6   96.57974661   4- 1- 7   94.01664449   4- 1- 8   94.66086386

  4- 1- 9   80.73636380   4- 1-10   98.84320914   4- 1-11  159.95135252   4- 1-12  129.29278678

  4- 1-14   81.23505803   5-12-10  110.57041448   5-12-11  109.98528184   5-12-13  116.59568738

  6- 1- 7   21.07053150   6- 1- 8   83.31193754   6- 1- 9   85.07471555   6- 1-10  159.23684984

  6- 1-11  102.69926955   6- 1-12  132.07605575   6- 1-14   16.26633998   7- 1- 8  104.36986026

  7- 1- 9  105.33305044   7- 1-10  142.85633809   7- 1-11  101.97751779   7- 1-12  125.47121546

  7- 1-14   29.28011773   7- 6-14  107.18519107   8- 1- 9   13.92490107   8- 1-10  109.08138011

  8- 1-11   93.00776082   8- 1-12  103.14639710   8- 1-14   79.27147632   9- 1-10  111.04739840

  9- 1-11  106.15216054   9- 1-12  112.13567436   9- 1-14   77.32853479  10- 1-11   61.12147458

 10- 1-12   30.46375085  10- 1-14  171.56904693  10-12-11   97.35842050  10-12-13  110.66884221

 11- 1-12   30.66266020  11- 1-14  118.44194465  11-12-13  109.97935191  12- 1-14  148.29227105


 BASIS DATA

   Nr Sym  Nuc  Type         Exponents   Contraction coefficients

    1.1 A     1  1s    57606659.000000     0.002669    0.000875   -0.001011   -0.000162    0.000138   -0.000062
                                           0.000029    0.000051   -0.000067   -0.000085    0.000000
    2.1 A              15333099.000000     0.001763    0.000577   -0.000669   -0.000107    0.000091   -0.000041
                                           0.000019    0.000034   -0.000045   -0.000056    0.000000
    3.1 A               5244434.800000     0.005688    0.001860   -0.002159   -0.000346    0.000294   -0.000133
                                           0.000061    0.000110   -0.000144   -0.000182    0.000000
    4.1 A               1993947.300000     0.005833    0.001897   -0.002226   -0.000357    0.000304   -0.000137
                                           0.000063    0.000114   -0.000148   -0.000188    0.000000
    5.1 A                831464.670000     0.012471    0.004046   -0.004768   -0.000766    0.000651   -0.000294
                                           0.000135    0.000243   -0.000318   -0.000402    0.000000
    6.1 A                367473.800000     0.015337    0.004923   -0.005922   -0.000954    0.000810   -0.000366
                                           0.000168    0.000303   -0.000396   -0.000502    0.000000
    7.1 A                170948.980000     0.027802    0.008860   -0.010807   -0.001745    0.001481   -0.000669
                                           0.000307    0.000553   -0.000723   -0.000913    0.000000
    8.1 A                 82498.208000     0.037893    0.011845   -0.014983   -0.002432    0.002060   -0.000931
                                           0.000428    0.000771   -0.001008   -0.001281    0.000000
    9.1 A                 41068.557000     0.063446    0.019489   -0.025472   -0.004156    0.003514   -0.001588
                                           0.000730    0.001312   -0.001713   -0.002158    0.000000
   10.1 A                 20931.097000     0.090970    0.026964   -0.037612   -0.006192    0.005220   -0.002360
                                           0.001084    0.001959   -0.002562   -0.003271    0.000000
   11.1 A                 10881.858000     0.141353    0.040137   -0.060450   -0.010069    0.008456   -0.003823
                                           0.001756    0.003150   -0.004109   -0.005142    0.000000
                           5751.850200     0.192150    0.050328   -0.087023   -0.014758    0.012320   -0.005570
                                           0.002559    0.004641   -0.006081   -0.007843    0.000000
                           3085.413800     0.245625    0.057494   -0.119370   -0.020746    0.017180   -0.007769
                                           0.003568    0.006365   -0.008281   -0.010186    0.000000
                           1676.302600     0.236828    0.048791   -0.122988   -0.021795    0.017936   -0.008112
                                           0.003728    0.006861   -0.009046   -0.012129    0.000000
                            920.364860     0.144288    0.051386   -0.045258   -0.005640    0.005268   -0.002373
                                           0.001085    0.001652   -0.001974   -0.001042    0.000000
                            507.302700    -0.025759    0.115725    0.203246    0.056561   -0.041187    0.018724
                                          -0.008598   -0.014902    0.019190    0.021482    0.000000
                            285.301180    -0.127248    0.207489    0.548666    0.172341   -0.122683    0.055908
                                          -0.025737   -0.047910    0.063712    0.088054    0.000000
                            162.083520    -0.106345    0.166212    0.606264    0.222723   -0.155054    0.070944
                                          -0.032607   -0.056240    0.072273    0.078654    0.000000
                             92.502257    -0.075897    0.111536    0.036795   -0.036386    0.019294   -0.009062
                                           0.004086    0.001475    0.001168    0.030443    0.000000
                             54.996696    -0.159518    0.199400   -0.676887   -0.645265    0.447335   -0.211910
                                           0.098395    0.193270   -0.267108   -0.419400    0.000000
                             32.498055    -0.126680    0.162427   -0.590845   -0.685716    0.477369   -0.227312
                                           0.105023    0.171409   -0.214999   -0.161690    0.000000
                             19.139224    -0.031866    0.038627   -0.102127    0.187644   -0.152132    0.072681
                                          -0.032972   -0.027495    0.028200   -0.136514    0.000000
                             11.382710     0.001867    0.000895    0.103491    0.862021   -0.976205    0.547811
                                          -0.263192   -0.581563    0.872312    1.708580    0.000000
                              6.786052     0.000710   -0.001446    0.057992    0.445035   -0.716251    0.417708
                                          -0.198179   -0.257965    0.233684   -0.803168    0.000000
                              4.149622     0.000624    0.000224    0.007493    0.066545    0.448492   -0.350229
                                           0.170540    0.219139   -0.310498    1.111350    0.000000
                              2.398648    -0.000456    0.000036    0.000333    0.014140    0.872214   -0.849732
                                           0.456257    1.306370   -2.312230   -7.677220    0.000000
                              1.389239     0.000090    0.000196   -0.000539    0.002102    0.319316   -0.431871
                                           0.230358    0.273179    0.312923   10.897300    0.000000
                              0.799685    -0.000092   -0.000045    0.000120    0.000488    0.047531    0.436228
                                          -0.277578   -1.772950    4.829150   -2.756210    0.000000
                              0.427327     0.000032    0.000027   -0.000069   -0.000720    0.030738    0.715435
                                          -0.561943   -0.897998   -3.625440   -6.603630    0.000000
                              0.220940    -0.000014   -0.000008    0.000023   -0.000086    0.010089    0.233487
                                          -0.326569    1.531090   -1.220420    6.760400    0.000000
                              0.086038     0.000004    0.000003   -0.000008   -0.000060    0.001152    0.063336
                                           0.301677    1.025940    2.677810   -2.145480    0.000000
                              0.041219    -0.000002   -0.000001    0.000004   -0.000044    0.001537    0.118995
                                           0.692734   -0.772162   -0.536170   -1.021350    0.000000
                              0.018781     0.000001    0.000000   -0.000001   -0.000024    0.000590    0.043903
                                           0.253879   -0.484754   -0.805222    1.252960    1.000000
   12.1 A     1  2px   52575799.000000     0.000013
                       15301659.000000     0.000017
                        4822461.600000     0.000052
                        1632045.600000     0.000107
                         584338.640000     0.000256
                         219508.320000     0.000572
                          86085.039000     0.001336
                          35172.956000     0.003129
                          14975.745000     0.007503
                           6652.821900     0.017986
                           3084.270200     0.042103
                           1489.211300     0.090969
                            745.288670     0.167976
                            384.521300     0.234709
                            203.927220     0.220200
                            110.523340     0.174708
                             61.345569     0.190642
                             34.404375     0.137246
                             19.094147     0.033402
                             10.684628    -0.000867
                              5.931463    -0.000935
                              3.230992    -0.000009
                              1.730655     0.000164
                              0.869483     0.000022
                              0.440589     0.000009
                              0.215859    -0.000000
                              0.091015     0.000001
                              0.040174    -0.000000
                              0.017215     0.000000
   13.1 A     1  2py   52575799.000000     0.000013
                       15301659.000000     0.000017
                        4822461.600000     0.000052
                        1632045.600000     0.000107
                         584338.640000     0.000256
                         219508.320000     0.000572
                          86085.039000     0.001336
                          35172.956000     0.003129
                          14975.745000     0.007503
                           6652.821900     0.017986
                           3084.270200     0.042103
                           1489.211300     0.090969
                            745.288670     0.167976
                            384.521300     0.234709
                            203.927220     0.220200
                            110.523340     0.174708
                             61.345569     0.190642
                             34.404375     0.137246
                             19.094147     0.033402
                             10.684628    -0.000867
                              5.931463    -0.000935
                              3.230992    -0.000009
                              1.730655     0.000164
                              0.869483     0.000022
                              0.440589     0.000009
                              0.215859    -0.000000
                              0.091015     0.000001
                              0.040174    -0.000000
                              0.017215     0.000000
   14.1 A     1  2pz   52575799.000000     0.000013
                       15301659.000000     0.000017
                        4822461.600000     0.000052
                        1632045.600000     0.000107
                         584338.640000     0.000256
                         219508.320000     0.000572
                          86085.039000     0.001336
                          35172.956000     0.003129
                          14975.745000     0.007503
                           6652.821900     0.017986
                           3084.270200     0.042103
                           1489.211300     0.090969
                            745.288670     0.167976
                            384.521300     0.234709
                            203.927220     0.220200
                            110.523340     0.174708
                             61.345569     0.190642
                             34.404375     0.137246
                             19.094147     0.033402
                             10.684628    -0.000867
                              5.931463    -0.000935
                              3.230992    -0.000009
                              1.730655     0.000164
                              0.869483     0.000022
                              0.440589     0.000009
                              0.215859    -0.000000
                              0.091015     0.000001
                              0.040174    -0.000000
                              0.017215     0.000000
   15.1 A     1  2px   52575799.000000    -0.000015
                       15301659.000000    -0.000020
                        4822461.600000    -0.000063
                        1632045.600000    -0.000128
                         584338.640000    -0.000307
                         219508.320000    -0.000688
                          86085.039000    -0.001611
                          35172.956000    -0.003789
                          14975.745000    -0.009145
                           6652.821900    -0.022135
                           3084.270200    -0.052666
                           1489.211300    -0.116756
                            745.288670    -0.223673
                            384.521300    -0.322150
                            203.927220    -0.236330
                            110.523340     0.145050
                             61.345569     0.527334
                             34.404375     0.400957
                             19.094147     0.019469
                             10.684628    -0.122609
                              5.931463    -0.050931
                              3.230992    -0.002720
                              1.730655     0.002231
                              0.869483     0.000423
                              0.440589     0.000084
                              0.215859     0.000018
                              0.091015     0.000006
                              0.040174    -0.000002
                              0.017215     0.000001
   16.1 A     1  2py   52575799.000000    -0.000015
                       15301659.000000    -0.000020
                        4822461.600000    -0.000063
                        1632045.600000    -0.000128
                         584338.640000    -0.000307
                         219508.320000    -0.000688
                          86085.039000    -0.001611
                          35172.956000    -0.003789
                          14975.745000    -0.009145
                           6652.821900    -0.022135
                           3084.270200    -0.052666
                           1489.211300    -0.116756
                            745.288670    -0.223673
                            384.521300    -0.322150
                            203.927220    -0.236330
                            110.523340     0.145050
                             61.345569     0.527334
                             34.404375     0.400957
                             19.094147     0.019469
                             10.684628    -0.122609
                              5.931463    -0.050931
                              3.230992    -0.002720
                              1.730655     0.002231
                              0.869483     0.000423
                              0.440589     0.000084
                              0.215859     0.000018
                              0.091015     0.000006
                              0.040174    -0.000002
                              0.017215     0.000001
   17.1 A     1  2pz   52575799.000000    -0.000015
                       15301659.000000    -0.000020
                        4822461.600000    -0.000063
                        1632045.600000    -0.000128
                         584338.640000    -0.000307
                         219508.320000    -0.000688
                          86085.039000    -0.001611
                          35172.956000    -0.003789
                          14975.745000    -0.009145
                           6652.821900    -0.022135
                           3084.270200    -0.052666
                           1489.211300    -0.116756
                            745.288670    -0.223673
                            384.521300    -0.322150
                            203.927220    -0.236330
                            110.523340     0.145050
                             61.345569     0.527334
                             34.404375     0.400957
                             19.094147     0.019469
                             10.684628    -0.122609
                              5.931463    -0.050931
                              3.230992    -0.002720
                              1.730655     0.002231
                              0.869483     0.000423
                              0.440589     0.000084
                              0.215859     0.000018
                              0.091015     0.000006
                              0.040174    -0.000002
                              0.017215     0.000001
   18.1 A     1  2px   52575799.000000     0.000002
                       15301659.000000     0.000002
                        4822461.600000     0.000007
                        1632045.600000     0.000015
                         584338.640000     0.000036
                         219508.320000     0.000081
                          86085.039000     0.000191
                          35172.956000     0.000452
                          14975.745000     0.001103
                           6652.821900     0.002719
                           3084.270200     0.006655
                           1489.211300     0.015415
                            745.288670     0.031304
                            384.521300     0.047289
                            203.927220     0.017930
                            110.523340    -0.123036
                             61.345569    -0.327485
                             34.404375    -0.190153
                             19.094147     0.365341
                             10.684628     0.614487
                              5.931463     0.253665
                              3.230992     0.025247
                              1.730655     0.001457
                              0.869483    -0.000189
                              0.440589     0.000178
                              0.215859    -0.000001
                              0.091015     0.000034
                              0.040174    -0.000010
                              0.017215     0.000003
   19.1 A     1  2py   52575799.000000     0.000002
                       15301659.000000     0.000002
                        4822461.600000     0.000007
                        1632045.600000     0.000015
                         584338.640000     0.000036
                         219508.320000     0.000081
                          86085.039000     0.000191
                          35172.956000     0.000452
                          14975.745000     0.001103
                           6652.821900     0.002719
                           3084.270200     0.006655
                           1489.211300     0.015415
                            745.288670     0.031304
                            384.521300     0.047289
                            203.927220     0.017930
                            110.523340    -0.123036
                             61.345569    -0.327485
                             34.404375    -0.190153
                             19.094147     0.365341
                             10.684628     0.614487
                              5.931463     0.253665
                              3.230992     0.025247
                              1.730655     0.001457
                              0.869483    -0.000189
                              0.440589     0.000178
                              0.215859    -0.000001
                              0.091015     0.000034
                              0.040174    -0.000010
                              0.017215     0.000003
   20.1 A     1  2pz   52575799.000000     0.000002
                       15301659.000000     0.000002
                        4822461.600000     0.000007
                        1632045.600000     0.000015
                         584338.640000     0.000036
                         219508.320000     0.000081
                          86085.039000     0.000191
                          35172.956000     0.000452
                          14975.745000     0.001103
                           6652.821900     0.002719
                           3084.270200     0.006655
                           1489.211300     0.015415
                            745.288670     0.031304
                            384.521300     0.047289
                            203.927220     0.017930
                            110.523340    -0.123036
                             61.345569    -0.327485
                             34.404375    -0.190153
                             19.094147     0.365341
                             10.684628     0.614487
                              5.931463     0.253665
                              3.230992     0.025247
                              1.730655     0.001457
                              0.869483    -0.000189
                              0.440589     0.000178
                              0.215859    -0.000001
                              0.091015     0.000034
                              0.040174    -0.000010
                              0.017215     0.000003
   21.1 A     1  2px   52575799.000000    -0.000002
                       15301659.000000    -0.000003
                        4822461.600000    -0.000009
                        1632045.600000    -0.000018
                         584338.640000    -0.000043
                         219508.320000    -0.000097
                          86085.039000    -0.000228
                          35172.956000    -0.000537
                          14975.745000    -0.001302
                           6652.821900    -0.003177
                           3084.270200    -0.007652
                           1489.211300    -0.017311
                            745.288670    -0.034068
                            384.521300    -0.050256
                            203.927220    -0.027762
                            110.523340     0.078094
                             61.345569     0.225253
                             34.404375     0.124053
                             19.094147    -0.273486
                             10.684628    -0.553839
                              5.931463    -0.065277
                              3.230992     0.618524
                              1.730655     0.501044
                              0.869483     0.107343
                              0.440589     0.023201
                              0.215859     0.014691
                              0.091015     0.001511
                              0.040174     0.000132
                              0.017215    -0.000015
   22.1 A     1  2py   52575799.000000    -0.000002
                       15301659.000000    -0.000003
                        4822461.600000    -0.000009
                        1632045.600000    -0.000018
                         584338.640000    -0.000043
                         219508.320000    -0.000097
                          86085.039000    -0.000228
                          35172.956000    -0.000537
                          14975.745000    -0.001302
                           6652.821900    -0.003177
                           3084.270200    -0.007652
                           1489.211300    -0.017311
                            745.288670    -0.034068
                            384.521300    -0.050256
                            203.927220    -0.027762
                            110.523340     0.078094
                             61.345569     0.225253
                             34.404375     0.124053
                             19.094147    -0.273486
                             10.684628    -0.553839
                              5.931463    -0.065277
                              3.230992     0.618524
                              1.730655     0.501044
                              0.869483     0.107343
                              0.440589     0.023201
                              0.215859     0.014691
                              0.091015     0.001511
                              0.040174     0.000132
                              0.017215    -0.000015
   23.1 A     1  2pz   52575799.000000    -0.000002
                       15301659.000000    -0.000003
                        4822461.600000    -0.000009
                        1632045.600000    -0.000018
                         584338.640000    -0.000043
                         219508.320000    -0.000097
                          86085.039000    -0.000228
                          35172.956000    -0.000537
                          14975.745000    -0.001302
                           6652.821900    -0.003177
                           3084.270200    -0.007652
                           1489.211300    -0.017311
                            745.288670    -0.034068
                            384.521300    -0.050256
                            203.927220    -0.027762
                            110.523340     0.078094
                             61.345569     0.225253
                             34.404375     0.124053
                             19.094147    -0.273486
                             10.684628    -0.553839
                              5.931463    -0.065277
                              3.230992     0.618524
                              1.730655     0.501044
                              0.869483     0.107343
                              0.440589     0.023201
                              0.215859     0.014691
                              0.091015     0.001511
                              0.040174     0.000132
                              0.017215    -0.000015
   24.1 A     1  2px   52575799.000000     0.000001
                       15301659.000000     0.000001
                        4822461.600000     0.000004
                        1632045.600000     0.000008
                         584338.640000     0.000019
                         219508.320000     0.000043
                          86085.039000     0.000102
                          35172.956000     0.000240
                          14975.745000     0.000583
                           6652.821900     0.001422
                           3084.270200     0.003426
                           1489.211300     0.007745
                            745.288670     0.015249
                            384.521300     0.022470
                            203.927220     0.012451
                            110.523340    -0.035134
                             61.345569    -0.101385
                             34.404375    -0.055104
                             19.094147     0.131617
                             10.684628     0.274237
                              5.931463     0.008683
                              3.230992    -0.421618
                              1.730655    -0.381893
                              0.869483     0.226214
                              0.440589     0.602150
                              0.215859     0.367232
                              0.091015     0.055939
                              0.040174    -0.001129
                              0.017215     0.001121
   25.1 A     1  2py   52575799.000000     0.000001
                       15301659.000000     0.000001
                        4822461.600000     0.000004
                        1632045.600000     0.000008
                         584338.640000     0.000019
                         219508.320000     0.000043
                          86085.039000     0.000102
                          35172.956000     0.000240
                          14975.745000     0.000583
                           6652.821900     0.001422
                           3084.270200     0.003426
                           1489.211300     0.007745
                            745.288670     0.015249
                            384.521300     0.022470
                            203.927220     0.012451
                            110.523340    -0.035134
                             61.345569    -0.101385
                             34.404375    -0.055104
                             19.094147     0.131617
                             10.684628     0.274237
                              5.931463     0.008683
                              3.230992    -0.421618
                              1.730655    -0.381893
                              0.869483     0.226214
                              0.440589     0.602150
                              0.215859     0.367232
                              0.091015     0.055939
                              0.040174    -0.001129
                              0.017215     0.001121
   26.1 A     1  2pz   52575799.000000     0.000001
                       15301659.000000     0.000001
                        4822461.600000     0.000004
                        1632045.600000     0.000008
                         584338.640000     0.000019
                         219508.320000     0.000043
                          86085.039000     0.000102
                          35172.956000     0.000240
                          14975.745000     0.000583
                           6652.821900     0.001422
                           3084.270200     0.003426
                           1489.211300     0.007745
                            745.288670     0.015249
                            384.521300     0.022470
                            203.927220     0.012451
                            110.523340    -0.035134
                             61.345569    -0.101385
                             34.404375    -0.055104
                             19.094147     0.131617
                             10.684628     0.274237
                              5.931463     0.008683
                              3.230992    -0.421618
                              1.730655    -0.381893
                              0.869483     0.226214
                              0.440589     0.602150
                              0.215859     0.367232
                              0.091015     0.055939
                              0.040174    -0.001129
                              0.017215     0.001121
   27.1 A     1  2px   52575799.000000    -0.000000
                       15301659.000000    -0.000000
                        4822461.600000    -0.000001
                        1632045.600000    -0.000002
                         584338.640000    -0.000005
                         219508.320000    -0.000010
                          86085.039000    -0.000024
                          35172.956000    -0.000058
                          14975.745000    -0.000140
                           6652.821900    -0.000342
                           3084.270200    -0.000823
                           1489.211300    -0.001861
                            745.288670    -0.003664
                            384.521300    -0.005398
                            203.927220    -0.002991
                            110.523340     0.008482
                             61.345569     0.024454
                             34.404375     0.013272
                             19.094147    -0.032305
                             10.684628    -0.067432
                              5.931463    -0.001366
                              3.230992     0.110673
                              1.730655     0.103187
                              0.869483    -0.077840
                              0.440589    -0.217735
                              0.215859    -0.188345
                              0.091015     0.201020
                              0.040174     0.637069
                              0.017215     0.326669
   28.1 A     1  2py   52575799.000000    -0.000000
                       15301659.000000    -0.000000
                        4822461.600000    -0.000001
                        1632045.600000    -0.000002
                         584338.640000    -0.000005
                         219508.320000    -0.000010
                          86085.039000    -0.000024
                          35172.956000    -0.000058
                          14975.745000    -0.000140
                           6652.821900    -0.000342
                           3084.270200    -0.000823
                           1489.211300    -0.001861
                            745.288670    -0.003664
                            384.521300    -0.005398
                            203.927220    -0.002991
                            110.523340     0.008482
                             61.345569     0.024454
                             34.404375     0.013272
                             19.094147    -0.032305
                             10.684628    -0.067432
                              5.931463    -0.001366
                              3.230992     0.110673
                              1.730655     0.103187
                              0.869483    -0.077840
                              0.440589    -0.217735
                              0.215859    -0.188345
                              0.091015     0.201020
                              0.040174     0.637069
                              0.017215     0.326669
   29.1 A     1  2pz   52575799.000000    -0.000000
                       15301659.000000    -0.000000
                        4822461.600000    -0.000001
                        1632045.600000    -0.000002
                         584338.640000    -0.000005
                         219508.320000    -0.000010
                          86085.039000    -0.000024
                          35172.956000    -0.000058
                          14975.745000    -0.000140
                           6652.821900    -0.000342
                           3084.270200    -0.000823
                           1489.211300    -0.001861
                            745.288670    -0.003664
                            384.521300    -0.005398
                            203.927220    -0.002991
                            110.523340     0.008482
                             61.345569     0.024454
                             34.404375     0.013272
                             19.094147    -0.032305
                             10.684628    -0.067432
                              5.931463    -0.001366
                              3.230992     0.110673
                              1.730655     0.103187
                              0.869483    -0.077840
                              0.440589    -0.217735
                              0.215859    -0.188345
                              0.091015     0.201020
                              0.040174     0.637069
                              0.017215     0.326669
   30.1 A     1  2px   52575799.000000    -0.000001
                       15301659.000000    -0.000001
                        4822461.600000    -0.000003
                        1632045.600000    -0.000005
                         584338.640000    -0.000013
                         219508.320000    -0.000028
                          86085.039000    -0.000066
                          35172.956000    -0.000156
                          14975.745000    -0.000379
                           6652.821900    -0.000925
                           3084.270200    -0.002224
                           1489.211300    -0.005040
                            745.288670    -0.009895
                            384.521300    -0.014653
                            203.927220    -0.007970
                            110.523340     0.022757
                             61.345569     0.067049
                             34.404375     0.034635
                             19.094147    -0.086605
                             10.684628    -0.190567
                              5.931463     0.011210
                              3.230992     0.295370
                              1.730655     0.357708
                              0.869483    -0.483437
                              0.440589    -0.603385
                              0.215859     0.215887
                              0.091015     0.715465
                              0.040174     0.271767
                              0.017215     0.004114
   31.1 A     1  2py   52575799.000000    -0.000001
                       15301659.000000    -0.000001
                        4822461.600000    -0.000003
                        1632045.600000    -0.000005
                         584338.640000    -0.000013
                         219508.320000    -0.000028
                          86085.039000    -0.000066
                          35172.956000    -0.000156
                          14975.745000    -0.000379
                           6652.821900    -0.000925
                           3084.270200    -0.002224
                           1489.211300    -0.005040
                            745.288670    -0.009895
                            384.521300    -0.014653
                            203.927220    -0.007970
                            110.523340     0.022757
                             61.345569     0.067049
                             34.404375     0.034635
                             19.094147    -0.086605
                             10.684628    -0.190567
                              5.931463     0.011210
                              3.230992     0.295370
                              1.730655     0.357708
                              0.869483    -0.483437
                              0.440589    -0.603385
                              0.215859     0.215887
                              0.091015     0.715465
                              0.040174     0.271767
                              0.017215     0.004114
   32.1 A     1  2pz   52575799.000000    -0.000001
                       15301659.000000    -0.000001
                        4822461.600000    -0.000003
                        1632045.600000    -0.000005
                         584338.640000    -0.000013
                         219508.320000    -0.000028
                          86085.039000    -0.000066
                          35172.956000    -0.000156
                          14975.745000    -0.000379
                           6652.821900    -0.000925
                           3084.270200    -0.002224
                           1489.211300    -0.005040
                            745.288670    -0.009895
                            384.521300    -0.014653
                            203.927220    -0.007970
                            110.523340     0.022757
                             61.345569     0.067049
                             34.404375     0.034635
                             19.094147    -0.086605
                             10.684628    -0.190567
                              5.931463     0.011210
                              3.230992     0.295370
                              1.730655     0.357708
                              0.869483    -0.483437
                              0.440589    -0.603385
                              0.215859     0.215887
                              0.091015     0.715465
                              0.040174     0.271767
                              0.017215     0.004114
   33.1 A     1  2px   52575799.000000    -0.000001
                       15301659.000000    -0.000001
                        4822461.600000    -0.000004
                        1632045.600000    -0.000009
                         584338.640000    -0.000021
                         219508.320000    -0.000047
                          86085.039000    -0.000111
                          35172.956000    -0.000263
                          14975.745000    -0.000636
                           6652.821900    -0.001554
                           3084.270200    -0.003739
                           1489.211300    -0.008475
                            745.288670    -0.016642
                            384.521300    -0.024644
                            203.927220    -0.013367
                            110.523340     0.038637
                             61.345569     0.114090
                             34.404375     0.057493
                             19.094147    -0.152735
                             10.684628    -0.335275
                              5.931463     0.054116
                              3.230992     0.556566
                              1.730655     0.705542
                              0.869483    -1.835570
                              0.440589    -0.012121
                              0.215859     1.665730
                              0.091015    -0.585220
                              0.040174    -0.541179
                              0.017215     0.007323
   34.1 A     1  2py   52575799.000000    -0.000001
                       15301659.000000    -0.000001
                        4822461.600000    -0.000004
                        1632045.600000    -0.000009
                         584338.640000    -0.000021
                         219508.320000    -0.000047
                          86085.039000    -0.000111
                          35172.956000    -0.000263
                          14975.745000    -0.000636
                           6652.821900    -0.001554
                           3084.270200    -0.003739
                           1489.211300    -0.008475
                            745.288670    -0.016642
                            384.521300    -0.024644
                            203.927220    -0.013367
                            110.523340     0.038637
                             61.345569     0.114090
                             34.404375     0.057493
                             19.094147    -0.152735
                             10.684628    -0.335275
                              5.931463     0.054116
                              3.230992     0.556566
                              1.730655     0.705542
                              0.869483    -1.835570
                              0.440589    -0.012121
                              0.215859     1.665730
                              0.091015    -0.585220
                              0.040174    -0.541179
                              0.017215     0.007323
   35.1 A     1  2pz   52575799.000000    -0.000001
                       15301659.000000    -0.000001
                        4822461.600000    -0.000004
                        1632045.600000    -0.000009
                         584338.640000    -0.000021
                         219508.320000    -0.000047
                          86085.039000    -0.000111
                          35172.956000    -0.000263
                          14975.745000    -0.000636
                           6652.821900    -0.001554
                           3084.270200    -0.003739
                           1489.211300    -0.008475
                            745.288670    -0.016642
                            384.521300    -0.024644
                            203.927220    -0.013367
                            110.523340     0.038637
                             61.345569     0.114090
                             34.404375     0.057493
                             19.094147    -0.152735
                             10.684628    -0.335275
                              5.931463     0.054116
                              3.230992     0.556566
                              1.730655     0.705542
                              0.869483    -1.835570
                              0.440589    -0.012121
                              0.215859     1.665730
                              0.091015    -0.585220
                              0.040174    -0.541179
                              0.017215     0.007323
   36.1 A     1  2px   52575799.000000    -0.000001
                       15301659.000000    -0.000002
                        4822461.600000    -0.000006
                        1632045.600000    -0.000012
                         584338.640000    -0.000030
                         219508.320000    -0.000066
                          86085.039000    -0.000157
                          35172.956000    -0.000360
                          14975.745000    -0.000908
                           6652.821900    -0.002110
                           3084.270200    -0.005394
                           1489.211300    -0.011352
                            745.288670    -0.024563
                            384.521300    -0.031084
                            203.927220    -0.026677
                            110.523340     0.074398
                             61.345569     0.122621
                             34.404375     0.158055
                             19.094147    -0.396610
                             10.684628    -0.217370
                              5.931463    -0.310283
                              3.230992     1.975310
                              1.730655    -0.901781
                              0.869483    -2.796670
                              0.440589     4.376690
                              0.215859    -2.312120
                              0.091015    -0.328877
                              0.040174     0.867979
                              0.017215    -0.037454
   37.1 A     1  2py   52575799.000000    -0.000001
                       15301659.000000    -0.000002
                        4822461.600000    -0.000006
                        1632045.600000    -0.000012
                         584338.640000    -0.000030
                         219508.320000    -0.000066
                          86085.039000    -0.000157
                          35172.956000    -0.000360
                          14975.745000    -0.000908
                           6652.821900    -0.002110
                           3084.270200    -0.005394
                           1489.211300    -0.011352
                            745.288670    -0.024563
                            384.521300    -0.031084
                            203.927220    -0.026677
                            110.523340     0.074398
                             61.345569     0.122621
                             34.404375     0.158055
                             19.094147    -0.396610
                             10.684628    -0.217370
                              5.931463    -0.310283
                              3.230992     1.975310
                              1.730655    -0.901781
                              0.869483    -2.796670
                              0.440589     4.376690
                              0.215859    -2.312120
                              0.091015    -0.328877
                              0.040174     0.867979
                              0.017215    -0.037454
   38.1 A     1  2pz   52575799.000000    -0.000001
                       15301659.000000    -0.000002
                        4822461.600000    -0.000006
                        1632045.600000    -0.000012
                         584338.640000    -0.000030
                         219508.320000    -0.000066
                          86085.039000    -0.000157
                          35172.956000    -0.000360
                          14975.745000    -0.000908
                           6652.821900    -0.002110
                           3084.270200    -0.005394
                           1489.211300    -0.011352
                            745.288670    -0.024563
                            384.521300    -0.031084
                            203.927220    -0.026677
                            110.523340     0.074398
                             61.345569     0.122621
                             34.404375     0.158055
                             19.094147    -0.396610
                             10.684628    -0.217370
                              5.931463    -0.310283
                              3.230992     1.975310
                              1.730655    -0.901781
                              0.869483    -2.796670
                              0.440589     4.376690
                              0.215859    -2.312120
                              0.091015    -0.328877
                              0.040174     0.867979
                              0.017215    -0.037454
   39.1 A     1  2px   52575799.000000     0.000000
                       15301659.000000     0.000000
                        4822461.600000     0.000000
                        1632045.600000     0.000000
                         584338.640000     0.000000
                         219508.320000     0.000000
                          86085.039000     0.000000
                          35172.956000     0.000000
                          14975.745000     0.000000
                           6652.821900     0.000000
                           3084.270200     0.000000
                           1489.211300     0.000000
                            745.288670     0.000000
                            384.521300     0.000000
                            203.927220     0.000000
                            110.523340     0.000000
                             61.345569     0.000000
                             34.404375     0.000000
                             19.094147     0.000000
                             10.684628     0.000000
                              5.931463     0.000000
                              3.230992     0.000000
                              1.730655     0.000000
                              0.869483     0.000000
                              0.440589     0.000000
                              0.215859     0.000000
                              0.091015     0.000000
                              0.040174     0.000000
                              0.017215     1.000000
   40.1 A     1  2py   52575799.000000     0.000000
                       15301659.000000     0.000000
                        4822461.600000     0.000000
                        1632045.600000     0.000000
                         584338.640000     0.000000
                         219508.320000     0.000000
                          86085.039000     0.000000
                          35172.956000     0.000000
                          14975.745000     0.000000
                           6652.821900     0.000000
                           3084.270200     0.000000
                           1489.211300     0.000000
                            745.288670     0.000000
                            384.521300     0.000000
                            203.927220     0.000000
                            110.523340     0.000000
                             61.345569     0.000000
                             34.404375     0.000000
                             19.094147     0.000000
                             10.684628     0.000000
                              5.931463     0.000000
                              3.230992     0.000000
                              1.730655     0.000000
                              0.869483     0.000000
                              0.440589     0.000000
                              0.215859     0.000000
                              0.091015     0.000000
                              0.040174     0.000000
                              0.017215     1.000000
   41.1 A     1  2pz   52575799.000000     0.000000
                       15301659.000000     0.000000
                        4822461.600000     0.000000
                        1632045.600000     0.000000
                         584338.640000     0.000000
                         219508.320000     0.000000
                          86085.039000     0.000000
                          35172.956000     0.000000
                          14975.745000     0.000000
                           6652.821900     0.000000
                           3084.270200     0.000000
                           1489.211300     0.000000
                            745.288670     0.000000
                            384.521300     0.000000
                            203.927220     0.000000
                            110.523340     0.000000
                             61.345569     0.000000
                             34.404375     0.000000
                             19.094147     0.000000
                             10.684628     0.000000
                              5.931463     0.000000
                              3.230992     0.000000
                              1.730655     0.000000
                              0.869483     0.000000
                              0.440589     0.000000
                              0.215859     0.000000
                              0.091015     0.000000
                              0.040174     0.000000
                              0.017215     1.000000
   42.1 A     1  3d0     105911.200000     0.000020
                          24974.572000     0.000129
                           8108.852700     0.000677
                           3150.520500     0.003052
                           1380.647900     0.011950
                            658.188950     0.039706
                            332.909040     0.108875
                            176.023220     0.231727
                             95.780704     0.354949
                             53.337287     0.336096
                             29.864821     0.140603
                             16.526778    -0.033742
                              9.155323    -0.064042
                              4.984876    -0.024095
                              2.636633    -0.002233
                              1.354062     0.000305
                              0.656031     0.000103
                              0.269853     0.000008
                              0.103443     0.000000
                              0.036685     0.000000
   43.1 A     1  3d2-    105911.200000     0.000020
                          24974.572000     0.000129
                           8108.852700     0.000677
                           3150.520500     0.003052
                           1380.647900     0.011950
                            658.188950     0.039706
                            332.909040     0.108875
                            176.023220     0.231727
                             95.780704     0.354949
                             53.337287     0.336096
                             29.864821     0.140603
                             16.526778    -0.033742
                              9.155323    -0.064042
                              4.984876    -0.024095
                              2.636633    -0.002233
                              1.354062     0.000305
                              0.656031     0.000103
                              0.269853     0.000008
                              0.103443     0.000000
                              0.036685     0.000000
   44.1 A     1  3d1+    105911.200000     0.000020
                          24974.572000     0.000129
                           8108.852700     0.000677
                           3150.520500     0.003052
                           1380.647900     0.011950
                            658.188950     0.039706
                            332.909040     0.108875
                            176.023220     0.231727
                             95.780704     0.354949
                             53.337287     0.336096
                             29.864821     0.140603
                             16.526778    -0.033742
                              9.155323    -0.064042
                              4.984876    -0.024095
                              2.636633    -0.002233
                              1.354062     0.000305
                              0.656031     0.000103
                              0.269853     0.000008
                              0.103443     0.000000
                              0.036685     0.000000
   45.1 A     1  3d2+    105911.200000     0.000020
                          24974.572000     0.000129
                           8108.852700     0.000677
                           3150.520500     0.003052
                           1380.647900     0.011950
                            658.188950     0.039706
                            332.909040     0.108875
                            176.023220     0.231727
                             95.780704     0.354949
                             53.337287     0.336096
                             29.864821     0.140603
                             16.526778    -0.033742
                              9.155323    -0.064042
                              4.984876    -0.024095
                              2.636633    -0.002233
                              1.354062     0.000305
                              0.656031     0.000103
                              0.269853     0.000008
                              0.103443     0.000000
                              0.036685     0.000000
   46.1 A     1  3d1-    105911.200000     0.000020
                          24974.572000     0.000129
                           8108.852700     0.000677
                           3150.520500     0.003052
                           1380.647900     0.011950
                            658.188950     0.039706
                            332.909040     0.108875
                            176.023220     0.231727
                             95.780704     0.354949
                             53.337287     0.336096
                             29.864821     0.140603
                             16.526778    -0.033742
                              9.155323    -0.064042
                              4.984876    -0.024095
                              2.636633    -0.002233
                              1.354062     0.000305
                              0.656031     0.000103
                              0.269853     0.000008
                              0.103443     0.000000
                              0.036685     0.000000
   47.1 A     1  3d0     105911.200000    -0.000007
                          24974.572000    -0.000047
                           8108.852700    -0.000246
                           3150.520500    -0.001113
                           1380.647900    -0.004403
                            658.188950    -0.014782
                            332.909040    -0.041545
                            176.023220    -0.089264
                             95.780704    -0.132364
                             53.337287    -0.078125
                             29.864821     0.163137
                             16.526778     0.427766
                              9.155323     0.404323
                              4.984876     0.149842
                              2.636633     0.013528
                              1.354062    -0.001244
                              0.656031    -0.000625
                              0.269853    -0.000007
                              0.103443    -0.000015
                              0.036685     0.000003
   48.1 A     1  3d2-    105911.200000    -0.000007
                          24974.572000    -0.000047
                           8108.852700    -0.000246
                           3150.520500    -0.001113
                           1380.647900    -0.004403
                            658.188950    -0.014782
                            332.909040    -0.041545
                            176.023220    -0.089264
                             95.780704    -0.132364
                             53.337287    -0.078125
                             29.864821     0.163137
                             16.526778     0.427766
                              9.155323     0.404323
                              4.984876     0.149842
                              2.636633     0.013528
                              1.354062    -0.001244
                              0.656031    -0.000625
                              0.269853    -0.000007
                              0.103443    -0.000015
                              0.036685     0.000003
   49.1 A     1  3d1+    105911.200000    -0.000007
                          24974.572000    -0.000047
                           8108.852700    -0.000246
                           3150.520500    -0.001113
                           1380.647900    -0.004403
                            658.188950    -0.014782
                            332.909040    -0.041545
                            176.023220    -0.089264
                             95.780704    -0.132364
                             53.337287    -0.078125
                             29.864821     0.163137
                             16.526778     0.427766
                              9.155323     0.404323
                              4.984876     0.149842
                              2.636633     0.013528
                              1.354062    -0.001244
                              0.656031    -0.000625
                              0.269853    -0.000007
                              0.103443    -0.000015
                              0.036685     0.000003
   50.1 A     1  3d2+    105911.200000    -0.000007
                          24974.572000    -0.000047
                           8108.852700    -0.000246
                           3150.520500    -0.001113
                           1380.647900    -0.004403
                            658.188950    -0.014782
                            332.909040    -0.041545
                            176.023220    -0.089264
                             95.780704    -0.132364
                             53.337287    -0.078125
                             29.864821     0.163137
                             16.526778     0.427766
                              9.155323     0.404323
                              4.984876     0.149842
                              2.636633     0.013528
                              1.354062    -0.001244
                              0.656031    -0.000625
                              0.269853    -0.000007
                              0.103443    -0.000015
                              0.036685     0.000003
   51.1 A     1  3d1-    105911.200000    -0.000007
                          24974.572000    -0.000047
                           8108.852700    -0.000246
                           3150.520500    -0.001113
                           1380.647900    -0.004403
                            658.188950    -0.014782
                            332.909040    -0.041545
                            176.023220    -0.089264
                             95.780704    -0.132364
                             53.337287    -0.078125
                             29.864821     0.163137
                             16.526778     0.427766
                              9.155323     0.404323
                              4.984876     0.149842
                              2.636633     0.013528
                              1.354062    -0.001244
                              0.656031    -0.000625
                              0.269853    -0.000007
                              0.103443    -0.000015
                              0.036685     0.000003
   52.1 A     1  3d0     105911.200000     0.000004
                          24974.572000     0.000029
                           8108.852700     0.000151
                           3150.520500     0.000680
                           1380.647900     0.002694
                            658.188950     0.009015
                            332.909040     0.025311
                            176.023220     0.054175
                             95.780704     0.081018
                             53.337287     0.048855
                             29.864821    -0.090265
                             16.526778    -0.246113
                              9.155323    -0.206236
                              4.984876     0.172306
                              2.636633     0.505507
                              1.354062     0.395599
                              0.656031     0.111489
                              0.269853     0.006247
                              0.103443    -0.000029
                              0.036685    -0.000036
   53.1 A     1  3d2-    105911.200000     0.000004
                          24974.572000     0.000029
                           8108.852700     0.000151
                           3150.520500     0.000680
                           1380.647900     0.002694
                            658.188950     0.009015
                            332.909040     0.025311
                            176.023220     0.054175
                             95.780704     0.081018
                             53.337287     0.048855
                             29.864821    -0.090265
                             16.526778    -0.246113
                              9.155323    -0.206236
                              4.984876     0.172306
                              2.636633     0.505507
                              1.354062     0.395599
                              0.656031     0.111489
                              0.269853     0.006247
                              0.103443    -0.000029
                              0.036685    -0.000036
   54.1 A     1  3d1+    105911.200000     0.000004
                          24974.572000     0.000029
                           8108.852700     0.000151
                           3150.520500     0.000680
                           1380.647900     0.002694
                            658.188950     0.009015
                            332.909040     0.025311
                            176.023220     0.054175
                             95.780704     0.081018
                             53.337287     0.048855
                             29.864821    -0.090265
                             16.526778    -0.246113
                              9.155323    -0.206236
                              4.984876     0.172306
                              2.636633     0.505507
                              1.354062     0.395599
                              0.656031     0.111489
                              0.269853     0.006247
                              0.103443    -0.000029
                              0.036685    -0.000036
   55.1 A     1  3d2+    105911.200000     0.000004
                          24974.572000     0.000029
                           8108.852700     0.000151
                           3150.520500     0.000680
                           1380.647900     0.002694
                            658.188950     0.009015
                            332.909040     0.025311
                            176.023220     0.054175
                             95.780704     0.081018
                             53.337287     0.048855
                             29.864821    -0.090265
                             16.526778    -0.246113
                              9.155323    -0.206236
                              4.984876     0.172306
                              2.636633     0.505507
                              1.354062     0.395599
                              0.656031     0.111489
                              0.269853     0.006247
                              0.103443    -0.000029
                              0.036685    -0.000036
   56.1 A     1  3d1-    105911.200000     0.000004
                          24974.572000     0.000029
                           8108.852700     0.000151
                           3150.520500     0.000680
                           1380.647900     0.002694
                            658.188950     0.009015
                            332.909040     0.025311
                            176.023220     0.054175
                             95.780704     0.081018
                             53.337287     0.048855
                             29.864821    -0.090265
                             16.526778    -0.246113
                              9.155323    -0.206236
                              4.984876     0.172306
                              2.636633     0.505507
                              1.354062     0.395599
                              0.656031     0.111489
                              0.269853     0.006247
                              0.103443    -0.000029
                              0.036685    -0.000036
   57.1 A     1  3d0     105911.200000    -0.000001
                          24974.572000    -0.000008
                           8108.852700    -0.000042
                           3150.520500    -0.000189
                           1380.647900    -0.000746
                            658.188950    -0.002504
                            332.909040    -0.007016
                            176.023220    -0.015063
                             95.780704    -0.022420
                             53.337287    -0.013378
                             29.864821     0.026555
                             16.526778     0.070496
                              9.155323     0.058301
                              4.984876    -0.065834
                              2.636633    -0.177473
                              1.354062    -0.127085
                              0.656031     0.181760
                              0.269853     0.495490
                              0.103443     0.447072
                              0.036685     0.116353
   58.1 A     1  3d2-    105911.200000    -0.000001
                          24974.572000    -0.000008
                           8108.852700    -0.000042
                           3150.520500    -0.000189
                           1380.647900    -0.000746
                            658.188950    -0.002504
                            332.909040    -0.007016
                            176.023220    -0.015063
                             95.780704    -0.022420
                             53.337287    -0.013378
                             29.864821     0.026555
                             16.526778     0.070496
                              9.155323     0.058301
                              4.984876    -0.065834
                              2.636633    -0.177473
                              1.354062    -0.127085
                              0.656031     0.181760
                              0.269853     0.495490
                              0.103443     0.447072
                              0.036685     0.116353
   59.1 A     1  3d1+    105911.200000    -0.000001
                          24974.572000    -0.000008
                           8108.852700    -0.000042
                           3150.520500    -0.000189
                           1380.647900    -0.000746
                            658.188950    -0.002504
                            332.909040    -0.007016
                            176.023220    -0.015063
                             95.780704    -0.022420
                             53.337287    -0.013378
[...]
                                    9  3  s   -0.30925   10  5  s    2.86153   10  4  px  -0.59456   10  4  py  -0.49998
                                   11  5  s   -1.01270   12  5  s   -0.82595   12  6  s   -3.42967   12  4  pz  -0.40587
                                   12  5  py   0.48576   12  5  pz  -0.70796   12  3  d2-  0.35634   13  5  s    1.68456
                                   13  4  py   0.29938   13  4  pz  -0.30920   14  3  s    0.83007   14  4  s    2.68805
   94.1     0.00000     0.14594     1  5  s   -0.33621    1  6  s   -1.22925    1  7  s   -1.65009    1  5  px   1.34981
                                    1  5  py  -0.42486    1  5  pz   0.79499    1  6  px   4.64709    1  6  pz   2.81919
                                    1  7  px  -0.55920    1  7  py  -0.51136    1  7  pz  -0.36799    1 10  px  -4.68588
                                    1 10  py  -0.91840    1 10  pz   1.32008    1  8  d0  -0.72284    1  8  d1+ -0.32742
                                    1  6  f2-  0.30588    1  6  f2+  0.38813    2  5  s   -0.74998    2  4  px   0.69298
                                    2  4  py  -0.25648    2  4  pz   0.48704    3  3  s    0.53014    4  5  s    1.22613
                                    4  4  px   0.26365    4  4  py  -0.26506    5  4  s   -0.26075    5  5  s   -1.81799
                                    5  4  px   0.38193    5  4  pz  -0.29053    6  5  s    1.76320    6  3  px  -0.28283
                                    6  3  pz   0.29096    6  4  px  -0.36999    6  4  pz   1.01323    7  3  s    1.31205
                                    7  4  s    7.56710    7  3  px   0.39346    8  5  s    0.55778    8  4  pz   0.37115
                                    9  3  s   -0.68838    9  4  s   -2.41311   10  5  s   -2.61931   10  4  px   0.60168
                                   10  4  pz   0.55065   11  5  s   -1.21592   12  5  s    1.32905   12  6  s    3.72613
                                   12  4  pz  -0.25688   12  5  pz  -0.83088   12  3  d1+ -0.27440   13  5  s   -0.39617
                                   14  3  s   -0.91712   14  4  s   -4.90809
   95.1     0.00000     0.14901     1  4  s   -0.26566    1  5  s   -0.83594    1  6  s   -2.94777    1  7  s   -3.86785
                                    1 11  s   12.56743    1  5  px   1.12243    1  5  py  -0.70455    1  6  px   4.92871
                                    1  6  py  -1.97833    1  6  pz  -0.46964    1  7  px  -1.09291    1  8  px   0.32088
                                    1 10  px  -2.88519    1 10  py   0.49965    1 10  pz  -0.95293    1  4  d2-  0.35841
                                    1  8  d0  -0.36945    1  8  d2- -0.28517    1  8  d2+  0.82058    1  8  d1- -0.29249
                                    2  5  s    0.88189    2  4  py   0.59032    3  3  s   -0.88391    3  4  s   -2.94374
                                    4  5  s    2.00915    4  4  px   0.68948    4  4  py  -0.55257    5  4  s    0.26207
                                    5  5  s    2.79027    5  4  px  -0.71399    5  4  pz   0.44675    6  5  s    0.38776
                                    6  4  px  -0.29032    6  4  py   0.30698    7  3  s    0.40380    8  5  s    1.42207
                                    8  4  px  -0.29575    8  4  py   0.31320    8  4  pz   0.25886    9  3  s   -0.88629
                                    9  4  s   -2.80081   10  5  s    1.82904   10  4  px   0.71008   10  4  py  -0.50066
                                   11  5  s    3.77845   11  4  px   0.82621   11  4  py   0.78795   11  4  pz   0.93983
                                   12  5  s   -1.97248   12  6  s  -13.98717   12  4  px   0.26784   12  5  px   2.23626
                                   12  5  py  -0.97025   12  3  d1-  0.31079   13  4  s    0.27301   13  5  s    2.84957
                                   13  4  px  -0.46056   13  4  py   0.65743   13  4  pz  -0.44753   14  3  s   -0.33727
                                   14  4  s   -2.78889
   96.1     0.00000     0.15604     1  6  s    0.54978    1  7  s    0.77160    1 11  s    0.99282    1  5  py   0.27824
                                    1  5  pz  -0.30152    1  6  py   1.14390    1  6  pz  -1.71886    1  7  pz   0.47550
                                    1 10  px  -2.55982    1 10  py  -4.50206    1 10  pz   4.52635    1  8  d0  -0.28310
                                    2  4  s   -0.40953    2  5  s   -2.42781    2  3  py  -0.40404    2  4  px  -0.74794
                                    2  4  py  -1.42480    2  4  pz  -0.27661    3  2  s    0.29171    3  3  s    2.08343
                                    3  4  s    6.19179    3  3  py  -0.44848    4  5  s   -0.28288    5  5  s   -1.12789
                                    6  4  pz  -0.47893    7  3  s   -0.98180    7  4  s   -3.48659    8  4  s    0.52984
                                    8  5  s    3.01081    8  3  px  -0.32800    8  3  pz   0.34387    8  4  px  -0.70351
                                    8  4  pz   1.03941    9  2  s   -0.34855    9  3  s   -2.24907    9  4  s   -5.95709
                                    9  3  px  -0.45327    9  3  pz   0.36480   10  4  pz   0.26896   11  5  s    0.40777
                                   11  4  pz   0.25992   12  6  s    0.36294   12  4  px   0.30521   12  5  px   0.52474
                                   12  5  py   0.93818   12  5  pz  -1.03469   12  3  d1+ -0.28192   13  5  s    0.66042
                                   14  4  s    1.34343
   97.1     0.00000     0.19127     1  4  s    0.30522    1  5  s    0.98144    1  6  s    3.81651    1  7  s    5.78649
                                    1  8  s   -0.66978    1  9  s   -0.36409    1 11  s   -2.93006    1  4  px   0.49372
                                    1  5  px   2.85744    1  5  py  -0.33441    1  5  pz   1.04903    1  6  px   9.90446
                                    1  6  py  -1.34640    1  6  pz   4.87001    1  7  px  -1.21579    1  7  py   0.30344
                                    1  7  pz  -1.09963    1  8  px   0.39049    1  8  pz   0.30581    1 10  px  -3.77569
                                    1 10  py   0.44403    1 10  pz  -1.57331    1  4  d0  -0.36318    1  4  d2- -0.60528
                                    1  4  d2+  0.50294    1  5  d2-  0.36567    1  5  d2+ -0.28697    1  8  d0  -0.73714
                                    1  8  d2- -1.10924    1  8  d2+  0.88013    2  5  s    0.45408    2  4  px   0.57751
                                    3  4  s    0.30485    5  5  s    2.06684    5  4  px  -1.31375    5  4  py   0.43196
                                    6  4  s    0.44722    6  5  s    3.92424    6  3  py   0.26238    6  4  px   1.09422
                                    6  4  py   0.42034    6  4  pz   0.63665    7  3  s   -1.65734    7  4  s    0.95070
                                    7  3  py   0.47061    7  3  pz  -0.28727    8  5  s    0.79973    8  4  pz  -0.36796
                                    9  4  s    0.36299   10  5  s    1.29814   10  4  px   0.99729   11  5  s    1.32853
                                   11  4  pz  -0.39138   12  5  s    0.34350   12  6  s  -13.85434   12  4  px   1.23511
                                   12  4  py  -0.69339   12  5  px   5.36886   12  5  py  -2.42175   13  5  s    1.84327
                                   13  4  px  -1.20807   13  4  py   0.66787   14  3  s   -0.41173   14  4  s   -0.26140
   98.1     0.00000     0.20500     1  4  s    0.37995    1  5  s    1.22438    1  6  s    4.64590    1  7  s    6.62244
                                    1 11  s   -3.00709    1  4  px  -0.38096    1  5  px  -2.19991    1  5  py   1.21640
                                    1  5  pz   0.70201    1  6  px  -8.49598    1  6  py   2.63978    1  6  pz   0.56215
                                    1  7  px   1.45709    1  7  py   0.33241    1  7  pz   0.68026    1  8  px  -0.44979
                                    1 10  px   3.83681    1 10  py  -1.04745    1 10  pz   0.26143    1  4  d2+  0.28552
                                    1  8  d0   0.46613    1  8  d1+ -1.16650    1  8  d2+  2.60650    1  8  d1- -0.43093
                                    1  6  f1+ -0.26249    1  6  f2- -0.31940    1  6  f2+ -0.35382    2  5  s   -1.19658
                                    2  4  px  -0.92384    2  4  py   0.70294    2  4  pz  -0.72107    3  3  px   0.30767
                                    3  3  pz   0.25952    4  4  s   -0.32410    4  5  s   -3.99407    4  4  px   0.61926
                                    4  4  py   1.50911    5  5  s   -0.87984    5  4  px   0.59835    5  4  pz   0.33392
                                    6  4  s    0.36934    6  5  s   -1.02220    6  4  px  -0.28639    6  4  py  -0.45982
                                    6  4  pz  -0.42644    7  4  s   -0.31886    8  5  s   -2.77496    8  4  px   0.43994
                                    8  4  py  -1.16545    8  4  pz  -0.37094    9  3  s    0.49637    9  4  s   -0.71648
                                   10  5  s   -0.81089   10  4  px  -0.27931   10  4  py   0.86101   10  4  pz   0.44401
                                   11  4  s   -0.28967   11  5  s   -1.89963   11  4  px  -2.75813   12  5  s    0.75140
                                   12  6  s    5.90702   12  4  py  -0.68843   12  4  pz  -0.71905   12  5  px  -2.25930
                                   12  5  py  -1.62628   12  5  pz  -1.56462   12  3  d0   0.28297   12  3  d2-  0.29270
                                   13  5  s   -0.64030   13  4  px   0.28621   13  4  py   0.27039   13  4  pz   0.32201
                                   14  3  s   -0.95154   14  4  s   -0.26623   14  3  px  -0.64445   14  3  py   0.26103


 HOMO     88.1    -0.299247 =      -8.1429eV
 LUMO     89.1     0.102221 =       2.7816eV
 LUMO-HOMO         0.401467 =      10.9245eV

 Orbitals saved in record  2100.2


 **********************************************************************************************************************************
 DATASETS  * FILE   NREC   LENGTH (MB)   RECORD NAMES
              1      22       64.72       500      610      700      900      950      970     1000      129      960     1700   
                                          VAR    BASINP    GEOM    SYMINP    ZMAT    AOBASIS   BASIS     P2S    ABASIS    OPER   
                                         1101     1401     1411     1412     1650     1100     1400     1410     1200     1210   
                                          SR      EKINR    POTR     PVPR    MOLCAS      S      EKIN      POT      H0       H01  
                                         1080     1600   
                                         AOSYM     SMH  

              2       6       19.11       500      610      700     1000      520     2100   
                                          VAR    BASINP    GEOM     BASIS   MCVARS     RHF  

 PROGRAMS   *        TOTAL    HF-SCF       INT      FILE
 CPU TIMES  *      2214.76   1332.21    882.32      0.01
 REAL TIME  *      2343.41 SEC
 DISK USED  *       114.99 MB (local),      276.66 GB (total)
 GA USED    *         0.01 MB       (max)       0.00 MB       (current)
 **********************************************************************************************************************************


 PROGRAM * CCSD (Closed-shell coupled cluster)     Authors: C. Hampel, H.-J. Werner, 1991, M. Deegan, P.J. Knowles, 1992


 Convergence thresholds:  THRVAR = 1.00D-08  THRDEN = 1.00D-06

 CCSD(T)     terms to be evaluated (factor= 1.000)


 Number of core orbitals:          52 (  52 )
 Number of closed-shell orbitals:  36 (  36 )
 Number of external orbitals:     583 ( 583 )

 Molecular orbitals read from record     2100.2  Type=RHF/CANONICAL  

 Number of N-1 electron functions:              36
 Number of N-2 electron functions:             666
 Number of singly external CSFs:             20988
 Number of doubly external CSFs:         220258566
 Total number of CSFs:                   220279555

 Length of J-op  integral file:               0.00 MB
 Length of K-op  integral file:              30.92 MB
 Length of 3-ext integral record:             0.00 MB

 For full I/O caching in triples, increase memory by 3126.01 Mwords to 8126.06 Mwords.

 Multipassing necessary in transformation. To avoid, increase memory by 1076.93 Mwords.

 Integral transformation finished. Total CPU:4171.99 sec, npass=  2  Memory used:4863.89 MW

 Reference energy:                 -28221.91917562

 MP2 singlet pair energy:              -1.56296395
 MP2 triplet pair energy:              -1.08057542
 MP2 correlation energy:               -2.64353938
 MP2 total energy:                 -28224.56271500

 SCS-MP2 correlation energy:           -2.54791478   (PS=  1.200000  PT=  0.333333)
 SCS-MP2 total energy:             -28224.46709041

 ITER.      SQ.NORM     CORR.ENERGY   TOTAL ENERGY   ENERGY CHANGE        DEN1      VAR(S)    VAR(P)  DIIS     TIME  TIME/IT
   1      1.64984947    -2.62266399-28224.54183961     0.02087538     0.12427383  0.41D-01  0.20D-01  1  1  9505.73  3136.61
   2      1.69795276    -2.60622368-28224.52539931     0.01644031    -0.07079611  0.84D-03  0.29D-02  2  2 12401.48  3172.47
   3      1.72565105    -2.60925647-28224.52843209    -0.00303278    -0.00792236  0.16D-02  0.26D-03  3  3 15182.02  3094.79
   4      1.74089491    -2.60723615-28224.52641177     0.00202031    -0.00530350  0.23D-03  0.47D-04  4  4 17669.80  2981.66
   5      1.75186703    -2.60653286-28224.52570848     0.00070330    -0.00246247  0.55D-04  0.70D-05  5  5 20388.11  2961.45
   6      1.75532469    -2.60634008-28224.52551570     0.00019278    -0.00031194  0.99D-05  0.24D-05  6  6 24057.04  3105.88
   7      1.75698155    -2.60618513-28224.52536075     0.00015495    -0.00004179  0.28D-05  0.42D-06  6  1 27978.19  3248.78
   8      1.75756504    -2.60615964-28224.52533526     0.00002549    -0.00008292  0.54D-06  0.12D-06  6  2 30922.44  3223.80
   9      1.75765184    -2.60615952-28224.52533514     0.00000012     0.00002319  0.14D-06  0.35D-07  6  4 34509.65  3283.70
  10      1.75767682    -2.60616238-28224.52533800    -0.00000286     0.00000697  0.41D-07  0.92D-08  6  3 37238.00  3238.59
  11      1.75770048    -2.60615939-28224.52533501     0.00000299    -0.00000899  0.18D-07  0.42D-08  6  4 40152.58  3222.64
  12      1.75770976    -2.60615982-28224.52533544    -0.00000043    -0.00000074  0.43D-08  0.82D-09  6  5 43057.20  3208.63
  13      1.75769351    -2.60616222-28224.52533784    -0.00000240     0.00000573  0.94D-09  0.29D-09  6  1 46035.05  3201.36
  14      1.75769860    -2.60616128-28224.52533690     0.00000094    -0.00000129  0.26D-09  0.67D-10  6  6 48984.07  3192.02
  15      1.75769756    -2.60616175-28224.52533737    -0.00000047     0.00000077  0.83D-10  0.17D-10  6  2 52140.08  3199.18

 Norm of t1 vector:      0.27098427      S-energy:    -0.00000193      T1 diagnostic:  0.02258202
                                                                       D1 diagnostic:  0.09056881
                                                                       D2 diagnostic:  0.15152140 (internal)

 Largest off-diagonal element in interal  block of Fock matrix:  0.48D-05
 Largest off-diagonal element in external block of Fock matrix:  0.11D-04

 Block diagonalizing Fock operator

 Multipassing necessary in transformation. To avoid, increase memory by 1076.93 Mwords.

   CPU time for triples:   2039.49 sec for i =  1 -  4 / 36 (~   0.2 % done)
   CPU time for triples:   3587.73 sec for i =  5 -  6 / 36 (~   0.6 % done)
   CPU time for triples:   3164.00 sec for i =  7 -  7 / 36 (~   0.9 % done)
   CPU time for triples:   4458.30 sec for i =  8 -  8 / 36 (~   1.3 % done)
   CPU time for triples:   2094.41 sec for i =  9 -  9 / 36 (~   1.9 % done)
   CPU time for triples:  12468.96 sec for i = 10 - 18 / 36 (~  13.4 % done)
   CPU time for triples:   4176.98 sec for i = 19 - 19 / 36 (~  15.6 % done)
   CPU time for triples:  15905.13 sec for i = 20 - 23 / 36 (~  27.1 % done)
   CPU time for triples:  15072.00 sec for i = 24 - 27 / 36 (~  43.2 % done)
   CPU time for triples:   9331.26 sec for i = 28 - 29 / 36 (~  53.2 % done)
   CPU time for triples:   8512.99 sec for i = 30 - 30 / 36 (~  58.7 % done)
   CPU time for triples:   7592.48 sec for i = 31 - 31 / 36 (~  64.6 % done)
   CPU time for triples:   8078.69 sec for i = 32 - 32 / 36 (~  70.9 % done)
   CPU time for triples:   8068.36 sec for i = 33 - 33 / 36 (~  77.5 % done)
   CPU time for triples:  11997.65 sec for i = 34 - 34 / 36 (~  84.6 % done)
   CPU time for triples:   9153.29 sec for i = 35 - 35 / 36 (~  92.1 % done)
   CPU time for triples:  11446.10 sec for i = 36 - 36 / 36 (  100.0 % done)

 Total CPU time for triples: 137241.15 sec


 RESULTS
 =======

  Reference energy                   -28221.9191756222    
  CCSD singlet pair energy             -1.662841757837
  CCSD triplet pair energy             -0.943318056353
  CCSD correlation energy              -2.606161746420

  Triples (T) contribution             -0.130155234527
  Total correlation energy             -2.736316980947

  CCSD total energy                  -28224.5253373687    
  CCSD[T] energy                     -28224.6708794976    
  CCSD-T energy                      -28224.6505671687    
 !CCSD(T) total energy               -28224.6554926032    

 Timing summary (sec):

 STEP                 CPU(USER)    SYS     CPU(TOT)    WALL
 Transformation       8599.61    300.10   8899.71   9743.28
 CCSD iterations     48184.42    756.88  48941.30  48275.22
 Triples            137241.15   1896.65 139137.80 139277.67

 Program statistics:

 Available memory in ccsd:              4999994728
 Min. memory needed in ccsd:             488706660
 Max. memory used in ccsd:               698885046
 Max. memory used in cckext:             607356414 (15 integral passes)



 **********************************************************************************************************************************
 DATASETS  * FILE   NREC   LENGTH (MB)   RECORD NAMES
              1      23    30764.11       500      610      700      900      950      970     1000      129      960     1700   
                                          VAR    BASINP    GEOM    SYMINP    ZMAT    AOBASIS   BASIS     P2S    ABASIS    OPER   
                                         1101     1401     1411     1412     1650     1100     1400     1410     1200     1210   
                                          SR      EKINR    POTR     PVPR    MOLCAS      S      EKIN      POT      H0       H01  
                                         1080     1600     1380   
                                         AOSYM     SMH     JKOP   

              2       6       19.11       500      610      700     1000      520     2100   
                                          VAR    BASINP    GEOM     BASIS   MCVARS     RHF  

 PROGRAMS   *        TOTAL   CCSD(T)    HF-SCF       INT      FILE
 CPU TIMES  *    194054.67 191839.72   1332.21    882.32      0.01
 REAL TIME  *    199700.16 SEC
 DISK USED  *        50.30 GB (local),      536.50 GB (total)
 SF USED    *        51.82 GB
 GA USED    *         0.01 MB       (max)       0.00 MB       (current)
 **********************************************************************************************************************************
 SETTING ENERGY_HF(1)   =    -28221.91917562  AU                              
 SETTING CORR_MP2(1)    =        -2.64353938  AU                              
 SETTING CORR_CCSDT(1)  =        -2.73631698  AU                              

 CCSD(T)/PA=CC-PVTZ-X2C,O=AUG-CC-PVTZ-X2C,H=AUG-CC-PVTZ-X2C,S=AUG-CC-PVTZ-X2C energy= -28224.655492603186

         CCSD(T)          HF-SCF
 -28224.65549260 -28221.91917562
 **********************************************************************************************************************************
 Molpro calculation terminated
