

 Parallel Execution: Process Information
 ==============================================================================
 Rank   Node Name                              NodeID   MyNodeRank  NodeMaster
    0   u-0-12.local                              0          0          0
    1   u-0-12.local                              0          1         -1
    2   u-0-12.local                              1          0          1
    3   u-0-12.local                              1          1         -1
    4   u-0-12.local                              2          0          2
    5   u-0-12.local                              2          1         -1
    6   u-0-12.local                              3          0          3
    7   u-0-12.local                              3          1         -1
 ==============================================================================


May use up to 31200MB of RAM as shared memory on node 0
May use up to 31250MB of RAM as shared memory on node 1
May use up to 31250MB of RAM as shared memory on node 3
May use up to 31250MB of RAM as shared memory on node 2

 *******************************************************************************
 *                                                                             *
 *  --------------------------------                                           *
 *   Amsterdam Modeling Suite (AMS)              2022.103                      *
 *  --------------------------------                                           *
 *                                               r104886 2022-06-17            *
 *                                                                             *
 *                                                                             *
 *                              =================                              *
 *                              |               |                              *
 *                              |     A M S     |                              *
 *                              |               |                              *
 *                              =================                              *
 *                                                                             *
 *                                                                             *
 *   Online information and documentation:  https://www.scm.com/support/       *
 *   E-mail:  support@scm.com   info@scm.com                                   *
 *                                                                             *
 *   Scientific publications using AMS results must be properly referenced     *
 *   See the User Manuals (or the web site) for recommended citations          *
 *   The terms and conditions of the End User License Agreement apply to       *
 *   the use of AMS, https://www.scm.com/license-terms/                        *
 *                                                                             *
 **********************  x86_64_linux_intel / intelmpi  ************************
 
 Licensed to: Dr. Val?rie Vallet / Laboratoire PhLAM UMR 8523 / Villeneuve d'Ascq Cedex / FRANCE 2023-02-21 11:49:39
 SCM User ID: u10325
  
 AMS 2022.103  RunTime: Mar06-2023 10:35:34  ShM Nodes: 4  Procs: 8

 AMS jobname: pao_oh2_I_h2o.SR.b3lyp.tz2p.opt-freq-A1
 AMS jobid  : 67634462

 Start   directory: /home/shaaban/ams/PhD/iodide/pao_oh2_I_h2o/gp/
 Results directory: /home/shaaban/ams/PhD/iodide/pao_oh2_I_h2o/gp/pao_oh2_I_h2o.SR.b3lyp.tz2p.opt-freq-A1.results/
 Scratch directory: /state/partition2/shaaban/930559.phlam-s-sakura/amstmp_pao_oh2_I_h2o.SR.b3lyp.tz2p.opt-freq-A1_kid0.67634462/


 Communication costs MPI_COMM_WORLD:      2.037 usec per message,   0.0255 usec per 8-byte item
 Communication costs for intra-node:      0.281 usec per message,   0.0114 usec per 8-byte item

 RNG seed: -1847158192 235814773 59302925 1987306817 -1764732483 -960572968 -1397749727 -1080177729



                      ************************************************************************
                      *  ADF 2022.103  RunTime: Mar06-2023 10:35:35  ShM Nodes: 4  Procs: 8  *
                      ************************************************************************
  
       ***************************
       *  GEOMETRY OPTIMIZATION  *
       ***************************

Optimization Method                    Quasi Newton
Optimization Coordinates               Delocalized Coordinates
Optimize lattice                       F
 
 ------------------------------------------------------
 Convergence criteria (Hartree,Angstrom)
 ------------------------------------------------------
 Maximum gradient               0.000100000000
 Maximum rms gradient           0.000066666667
 Maximum step allowed           0.001000000000
 Maximum rms step allowed       0.000666666667
 Maximum energy change allowe   0.000010000000
 Maximum stress energy allowe   0.000500000000
 
Initial model Hessian                  Automatic Hessian
 
------------------------------------
Quasi-Newton Optimizer Parameters
------------------------------------
Hessian Update Method                  BFGS
Maximum number of steps                  250
First GDIIS cycle                          0
Maximum GDIIS vectors                      0
Trust radius (bohr)                        0.200000
Trust radius varies                        T
Constraints converged at all steps         T
Use projector                              T
 
 Rigid motions settings for: old optimizer
 Atomic rotations (x,y,z):     T T T
 Atomic translations (x,y,z):  T T T
 Tolerance:                   1.000000000000000E-006
 
--------
Geometry
--------
Formula: H4IO4Pa
Atoms
  Index Symbol   x (angstrom)   y (angstrom)   z (angstrom)
      1     Pa     0.00918346     0.12531789    -0.04940702
      2      O     1.38522228     1.95518483    -0.00245830
      3      O    -0.82952215     2.25555387     0.00320090
      4      I    -2.94982733     0.08494084     0.01559206
      5      O     1.75691916    -0.00386655     1.24447560
      6      O    -0.11185549    -2.16077636    -0.10617526
      7      H    -0.91249323    -2.61353647    -0.38110707
      8      H     0.61063818    -2.76626708     0.07543938
      9      H     1.94588106     2.17603179     0.74486248
     10      H    -1.60566479     2.67989291    -0.36981249
 
Total System Charge             0.00000
Bonding info available!
 
 
----------------
ADF Engine Input
----------------
 
 Basis
 Type TZ2P
 Core None
 End
 XC
 Hybrid B3LYP
 End
 NumericalQuality Good
 

 Title: *** (NO TITLE) ***

 Using automatic Hessian for delocalized coordinates.
 *** GO1_GOStep1 ***



 ======================
 RI Hartree-Fock Scheme
 ======================
  
 Fit Set Quality     : GOOD
 Threshold Quality   : GOOD
 Integration Quality : GOOD
 Response Quality    : DEFAULT
 Is Range Separated  :  F
 
 RIHartreeFock Dependency: number of modified vectors:           4
  
 Hartree-Fock exchange energy:   -680.386534184956     

 Energy gradients wrt nuclear displacements
 ==========================================

     Atom      Cartesian (a.u./angstrom)
                 X         Y         Z
 ----------------------------------------
     1 Pa   -0.274970 -0.324513 -0.177103
     2 O     0.010369  0.040606  0.055843
     3 O     0.018313  0.056981  0.020380
     4 I     0.028662  0.038105 -0.000471
     5 O     0.209546  0.072472  0.105066
     6 O    -0.001331  0.050620  0.011039
     7 H     0.013347  0.017995  0.000902
     8 H    -0.007457  0.014758 -0.008305
     9 H    -0.014344  0.022369  0.001088
    10 H     0.017864  0.010608 -0.008439
 ----------------------------------------
 Mulliken charges used for AMS results%charges...
 
----------------------------------------------------------------------
Geometry Convergence after Step   1       (Hartree/Angstrom,Angstrom)
----------------------------------------------------------------------
current energy                               -2.35838845 Hartree
energy change                      -2.35838845     0.00001000    F
constrained gradient max            0.32451557     0.00010000    F
constrained gradient rms            0.09804261     0.00006667    F
gradient max                        0.32451557
gradient rms                        0.09804261
cart. step max                      0.07917164     0.00100000    F
cart. step rms                      0.03448256     0.00066667    F
 
 
--------
Geometry
--------
Formula: H4IO4Pa
Atoms
  Index Symbol   x (angstrom)   y (angstrom)   z (angstrom)
      1     Pa     0.02277079     0.17859846    -0.04132592
      2      O     1.44582998     1.95869185    -0.01619351
      3      O    -0.87501442     2.27267105     0.00869369
      4      I    -2.93981239     0.02644171     0.00317590
      5      O     1.69697251    -0.08303819     1.24809457
      6      O    -0.10765116    -2.12550213    -0.09788693
      7      H    -0.91117367    -2.58135955    -0.37430521
      8      H     0.61423296    -2.73619696     0.08757427
      9      H     2.01676013     2.15606038     0.73060307
     10      H    -1.66443358     2.66610905    -0.37381965
 
Total System Charge             0.00000
Bonding info available!
 
 *** GO1_GOStep2 ***



 ======================
 RI Hartree-Fock Scheme
 ======================
  
 Fit Set Quality     : GOOD
 Threshold Quality   : GOOD
 Integration Quality : GOOD
 Response Quality    : DEFAULT
 Is Range Separated  :  F
 
 RIHartreeFock Dependency: number of modified vectors:           4
  
 Hartree-Fock exchange energy:   -680.407226787890     

 Energy gradients wrt nuclear displacements
 ==========================================

     Atom      Cartesian (a.u./angstrom)
                 X         Y         Z
 ----------------------------------------
     1 Pa   -0.265827 -0.286592 -0.173902
     2 O     0.028110  0.041466  0.049219
     3 O    -0.000026  0.058414  0.018683
     4 I     0.028749  0.036780  0.000100
     5 O     0.204138  0.046976  0.108448
     6 O     0.001163  0.052242  0.013571
     7 H     0.006443  0.012541 -0.001419
     8 H    -0.002541  0.008387 -0.007353
     9 H    -0.011591  0.019668  0.002457
    10 H     0.011383  0.010117 -0.009804
 ----------------------------------------
 Mulliken charges used for AMS results%charges...

 dE(predicted):    -0.35664E-01, dE(actual):    -0.38645E-01, Trust radius:    0.400000, all in a.u.
 
----------------------------------------------------------------------
Geometry Convergence after Step   2       (Hartree/Angstrom,Angstrom)
----------------------------------------------------------------------
current energy                               -2.39703323 Hartree
energy change                      -0.03864479     0.00001000    F
constrained gradient max            0.28659554     0.00010000    F
constrained gradient rms            0.09195197     0.00006667    F
gradient max                        0.28659554
gradient rms                        0.09195197
cart. step max                      0.14603770     0.00100000    F
cart. step rms                      0.05390235     0.00066667    F
 
 
--------
Geometry
--------
Formula: H4IO4Pa
Atoms
  Index Symbol   x (angstrom)   y (angstrom)   z (angstrom)
      1     Pa     0.04637692     0.26995485    -0.02118016
      2      O     1.50575070     1.97207584    -0.03799777
      3      O    -0.89530287     2.30413001     0.02731485
      4      I    -2.91575101    -0.10916286    -0.01640814
      5      O     1.55093481    -0.20366180     1.20831837
      6      O    -0.10170481    -2.07537915    -0.07923258
      7      H    -0.90778035    -2.53711541    -0.35562422
      8      H     0.61898430    -2.69180848     0.11146467
      9      H     2.09067387     2.13829050     0.70601720
     10      H    -1.69370040     2.66515219    -0.36806193
 
Total System Charge             0.00000
Bonding info available!
 
 *** GO1_GOStep3 ***



 ======================
 RI Hartree-Fock Scheme
 ======================
  
 Fit Set Quality     : GOOD
 Threshold Quality   : GOOD
 Integration Quality : GOOD
 Response Quality    : DEFAULT
 Is Range Separated  :  F
 
 RIHartreeFock Dependency: number of modified vectors:           4
  
 Hartree-Fock exchange energy:   -680.490764890170     

 Energy gradients wrt nuclear displacements
 ==========================================

     Atom      Cartesian (a.u./angstrom)
                 X         Y         Z
 ----------------------------------------
     1 Pa   -0.212670 -0.212419 -0.136962
     2 O     0.027036  0.040314  0.034068
     3 O    -0.003151  0.054438  0.015272
     4 I     0.027473  0.028895  0.000997
     5 O     0.156473  0.010992  0.084055
     6 O     0.004162  0.051568  0.017645
     7 H    -0.001302  0.005099 -0.003669
     8 H     0.003371  0.000501 -0.005839
     9 H    -0.010887  0.013431  0.004311
    10 H     0.009492  0.007181 -0.009879
 ----------------------------------------
 Mulliken charges used for AMS results%charges...

 dE(predicted):    -0.65489E-01, dE(actual):    -0.64911E-01, Trust radius:    0.800000, all in a.u.
 
----------------------------------------------------------------------
Geometry Convergence after Step   3       (Hartree/Angstrom,Angstrom)
----------------------------------------------------------------------
current energy                               -2.46194456 Hartree
energy change                      -0.06491133     0.00001000    F
constrained gradient max            0.21267568     0.00010000    F
constrained gradient rms            0.07134988     0.00006667    F
gradient max                        0.21267568
gradient rms                        0.07134988
cart. step max                      0.21324031     0.00100000    F
cart. step rms                      0.06858653     0.00066667    F
 
 
--------
Geometry
--------
Formula: H4IO4Pa
Atoms
  Index Symbol   x (angstrom)   y (angstrom)   z (angstrom)
      1     Pa     0.08269488     0.38222152     0.01397128
      2      O     1.60888973     1.94727717    -0.07660660
      3      O    -0.94578725     2.31015949     0.07311350
      4      I    -2.87162108    -0.23749482    -0.06434832
      5      O     1.33769450    -0.23995103     1.19126711
      6      O    -0.09511343    -2.01811632    -0.06670460
      7      H    -0.89909070    -2.48007200    -0.34837120
      8      H     0.61706685    -2.63889345     0.13470718
      9      H     2.22254412     2.08415617     0.65103321
     10      H    -1.75879646     2.62318894    -0.33345127
 
Total System Charge             0.00000
Bonding info available!
 
 *** GO1_GOStep4 ***



 ======================
 RI Hartree-Fock Scheme
 ======================
  
 Fit Set Quality     : GOOD
 Threshold Quality   : GOOD
 Integration Quality : GOOD
 Response Quality    : DEFAULT
 Is Range Separated  :  F
 
 RIHartreeFock Dependency: number of modified vectors:           4
  
 Hartree-Fock exchange energy:   -680.639840782695     

 Energy gradients wrt nuclear displacements
 ==========================================

     Atom      Cartesian (a.u./angstrom)
                 X         Y         Z
 ----------------------------------------
     1 Pa   -0.060272 -0.160868 -0.020329
     2 O     0.017937  0.021968  0.020494
     3 O    -0.009599  0.034712  0.011346
     4 I     0.030177  0.022832  0.002806
     5 O     0.018190  0.027396 -0.024319
     6 O     0.003499  0.043103  0.020860
     7 H    -0.000819  0.001761 -0.002817
     8 H     0.003619  0.000480 -0.005033
     9 H    -0.009001  0.005575  0.006876
    10 H     0.006269  0.003040 -0.009883
 ----------------------------------------
 Mulliken charges used for AMS results%charges...

 dE(predicted):    -0.74217E-01, dE(actual):    -0.51148E-01, Trust radius:    0.800000, all in a.u.
 
----------------------------------------------------------------------
Geometry Convergence after Step   4       (Hartree/Angstrom,Angstrom)
----------------------------------------------------------------------
current energy                               -2.51309259 Hartree
energy change                      -0.05114803     0.00001000    F
constrained gradient max            0.16087256     0.00010000    F
constrained gradient rms            0.03575303     0.00006667    F
gradient max                        0.16087256
gradient rms                        0.03575303
cart. step max                      0.21424255     0.00100000    F
cart. step rms                      0.08806693     0.00066667    F
 
 
--------
Geometry
--------
Formula: H4IO4Pa
Atoms
  Index Symbol   x (angstrom)   y (angstrom)   z (angstrom)
      1     Pa     0.10170415     0.44507624     0.07500695
      2      O     1.68414858     1.89365887    -0.20044642
      3      O    -0.97723899     2.30852231     0.17244557
      4      I    -2.82569346    -0.35094136    -0.20223120
      5      O     1.13664391    -0.19838936     1.40550966
      6      O    -0.08830163    -1.98344725    -0.08188466
      7      H    -0.88743743    -2.43574947    -0.38462661
      8      H     0.60801652    -2.61240987     0.13666107
      9      H     2.34807680     2.05954390     0.47490985
     10      H    -1.80143730     2.60661167    -0.22073394
 
Total System Charge             0.00000
Bonding info available!
 
 *** GO1_GOStep5 ***



 ======================
 RI Hartree-Fock Scheme
 ======================
  
 Fit Set Quality     : GOOD
 Threshold Quality   : GOOD
 Integration Quality : GOOD
 Response Quality    : DEFAULT
 Is Range Separated  :  F
 
 RIHartreeFock Dependency: number of modified vectors:           4
  
 Hartree-Fock exchange energy:   -680.671799182267     

 Energy gradients wrt nuclear displacements
 ==========================================

     Atom      Cartesian (a.u./angstrom)
                 X         Y         Z
 ----------------------------------------
     1 Pa   -0.005757 -0.125355  0.019182
     2 O     0.010046  0.023678  0.011014
     3 O    -0.011742  0.025679  0.005699
     4 I     0.029005  0.014862  0.006300
     5 O    -0.017018  0.023062 -0.052296
     6 O    -0.007656  0.032242  0.019541
     7 H     0.003720  0.000984 -0.000725
     8 H     0.001092  0.004313 -0.005795
     9 H    -0.007601  0.000562  0.005396
    10 H     0.005911 -0.000028 -0.008316
 ----------------------------------------
 Mulliken charges used for AMS results%charges...

 dE(predicted):    -0.23618E-01, dE(actual):    -0.21977E-01, Trust radius:    0.800000, all in a.u.
 
----------------------------------------------------------------------
Geometry Convergence after Step   5       (Hartree/Angstrom,Angstrom)
----------------------------------------------------------------------
current energy                               -2.53506936 Hartree
energy change                      -0.02197677     0.00001000    F
constrained gradient max            0.12535845     0.00010000    F
constrained gradient rms            0.02835829     0.00006667    F
gradient max                        0.12535845
gradient rms                        0.02835829
cart. step max                      0.19814763     0.00100000    F
cart. step rms                      0.08267675     0.00066667    F
 
 
--------
Geometry
--------
Formula: H4IO4Pa
Atoms
  Index Symbol   x (angstrom)   y (angstrom)   z (angstrom)
      1     Pa     0.09604079     0.50362087     0.12451898
      2      O     1.75783948     1.78785450    -0.31132945
      3      O    -1.01946843     2.31542830     0.25840468
      4      I    -2.80001296    -0.42801077    -0.30362408
      5      O     0.94261439    -0.11776658     1.60365729
      6      O    -0.06018429    -1.94965869    -0.10140850
      7      H    -0.84823422    -2.40115361    -0.43202105
      8      H     0.62823200    -2.58030966     0.13515094
      9      H     2.45327439     1.99202188     0.32111611
     10      H    -1.85162000     2.61044944    -0.11985465
 
Total System Charge             0.00000
Bonding info available!
 
 *** GO1_GOStep6 ***



 ======================
 RI Hartree-Fock Scheme
 ======================
  
 Fit Set Quality     : GOOD
 Threshold Quality   : GOOD
 Integration Quality : GOOD
 Response Quality    : DEFAULT
 Is Range Separated  :  F
 
 RIHartreeFock Dependency: number of modified vectors:           4
  
 Hartree-Fock exchange energy:   -680.667130349297     

 Energy gradients wrt nuclear displacements
 ==========================================

     Atom      Cartesian (a.u./angstrom)
                 X         Y         Z
 ----------------------------------------
     1 Pa    0.004999 -0.079055  0.014492
     2 O     0.006263  0.017786  0.004853
     3 O    -0.012495  0.016618  0.004232
     4 I     0.024989  0.008343  0.008201
     5 O    -0.011698  0.010040 -0.040833
     6 O    -0.016832  0.024404  0.016757
     7 H     0.004973  0.000131 -0.000490
     8 H     0.001123  0.005491 -0.005322
     9 H    -0.006366 -0.001687  0.005319
    10 H     0.005044 -0.002071 -0.007210
 ----------------------------------------
 Mulliken charges used for AMS results%charges...

 dE(predicted):    -0.23865E-01, dE(actual):    -0.15083E-01, Trust radius:    0.800000, all in a.u.
 
----------------------------------------------------------------------
Geometry Convergence after Step   6       (Hartree/Angstrom,Angstrom)
----------------------------------------------------------------------
current energy                               -2.55015203 Hartree
energy change                      -0.01508267     0.00001000    F
constrained gradient max            0.07905650     0.00010000    F
constrained gradient rms            0.01947479     0.00006667    F
gradient max                        0.07905650
gradient rms                        0.01947479
cart. step max                      0.18833436     0.00100000    F
cart. step rms                      0.07723524     0.00066667    F
 
 
--------
Geometry
--------
Formula: H4IO4Pa
Atoms
  Index Symbol   x (angstrom)   y (angstrom)   z (angstrom)
      1     Pa     0.07020603     0.55585917     0.17804617
      2      O     1.80652633     1.65207597    -0.39861755
      3      O    -1.05978886     2.33603578     0.32939638
      4      I    -2.79596761    -0.47807447    -0.36935378
      5      O     0.75428003    -0.02616015     1.76586097
      6      O    -0.01061448    -1.91784434    -0.12269750
      7      H    -0.78179489    -2.37556775    -0.48520492
      8      H     0.67637298    -2.54503593     0.12983903
      9      H     2.53381941     1.89136818     0.18466152
     10      H    -1.89455778     2.63981924    -0.03732004
 
Total System Charge             0.00000
Bonding info available!
 
 *** GO1_GOStep7 ***



 ======================
 RI Hartree-Fock Scheme
 ======================
  
 Fit Set Quality     : GOOD
 Threshold Quality   : GOOD
 Integration Quality : GOOD
 Response Quality    : DEFAULT
 Is Range Separated  :  F
 
 RIHartreeFock Dependency: number of modified vectors:           4
  
 Hartree-Fock exchange energy:   -680.658140434010     

 Energy gradients wrt nuclear displacements
 ==========================================

     Atom      Cartesian (a.u./angstrom)
                 X         Y         Z
 ----------------------------------------
     1 Pa    0.012308 -0.040713  0.004006
     2 O     0.001679  0.010213  0.000613
     3 O    -0.009584  0.007352  0.005064
     4 I     0.018705  0.004073  0.008627
     5 O    -0.007112  0.001942 -0.026287
     6 O    -0.021024  0.018609  0.013759
     7 H     0.004297 -0.000990 -0.001498
     8 H     0.002526  0.005018 -0.003697
     9 H    -0.005465 -0.002390  0.006184
    10 H     0.003671 -0.003114 -0.006771
 ----------------------------------------
 Mulliken charges used for AMS results%charges...
 Rebuilding optimization coordinates

 dE(predicted):    -0.19135E-01, dE(actual):    -0.98894E-02, Trust radius:    0.800000, all in a.u.
 
----------------------------------------------------------------------
Geometry Convergence after Step   7       (Hartree/Angstrom,Angstrom)
----------------------------------------------------------------------
current energy                               -2.56004146 Hartree
energy change                      -0.00988943     0.00001000    F
constrained gradient max            0.04071265     0.00010000    F
constrained gradient rms            0.01221713     0.00006667    F
gradient max                        0.04071265
gradient rms                        0.01221713
cart. step max                      0.20626410     0.00100000    F
cart. step rms                      0.09079075     0.00066667    F
 
 
--------
Geometry
--------
Formula: H4IO4Pa
Atoms
  Index Symbol   x (angstrom)   y (angstrom)   z (angstrom)
      1     Pa     0.02717575     0.61175600     0.24958964
      2      O     1.82578094     1.47810483    -0.48052600
      3      O    -1.10331096     2.37392721     0.40766423
      4      I    -2.79171231    -0.52878998    -0.45247832
      5      O     0.54801592     0.08407790     1.92988001
      6      O     0.06444621    -1.87699348    -0.14594251
      7      H    -0.68650424    -2.34263641    -0.54169289
      8      H     0.74803293    -2.50083288     0.12643566
      9      H     2.60626943     1.73604541     0.02132946
     10      H    -1.93971252     2.69781707     0.06035099
 
Total System Charge             0.00000
Bonding info available!
 
 *** GO1_GOStep8 ***



 ======================
 RI Hartree-Fock Scheme
 ======================
  
 Fit Set Quality     : GOOD
 Threshold Quality   : GOOD
 Integration Quality : GOOD
 Response Quality    : DEFAULT
 Is Range Separated  :  F
 
 RIHartreeFock Dependency: number of modified vectors:           4
  
 Hartree-Fock exchange energy:   -680.644338534799     

 Energy gradients wrt nuclear displacements
 ==========================================

     Atom      Cartesian (a.u./angstrom)
                 X         Y         Z
 ----------------------------------------
     1 Pa    0.019039 -0.006823 -0.012448
     2 O    -0.003079  0.003459 -0.002576
     3 O    -0.004582 -0.001469  0.007171
     4 I     0.010635 -0.000102  0.008050
     5 O    -0.004084 -0.003732 -0.006571
     6 O    -0.022391  0.013024  0.009632
     7 H     0.003686 -0.002196 -0.002672
     8 H     0.003457  0.003826 -0.001598
     9 H    -0.004346 -0.002306  0.007412
    10 H     0.001666 -0.003681 -0.006401
 ----------------------------------------
 Mulliken charges used for AMS results%charges...

 dE(predicted):    -0.11696E-01, dE(actual):    -0.76483E-02, Trust radius:    0.800000, all in a.u.
 
----------------------------------------------------------------------
Geometry Convergence after Step   8       (Hartree/Angstrom,Angstrom)
----------------------------------------------------------------------
current energy                               -2.56768979 Hartree
energy change                      -0.00764832     0.00001000    F
constrained gradient max            0.02240873     0.00010000    F
constrained gradient rms            0.00790201     0.00006667    F
gradient max                        0.02240873
gradient rms                        0.00790201
cart. step max                      0.21836464     0.00100000    F
cart. step rms                      0.10098953     0.00066667    F
 
 
--------
Geometry
--------
Formula: H4IO4Pa
Atoms
  Index Symbol   x (angstrom)   y (angstrom)   z (angstrom)
      1     Pa    -0.01756937     0.68057578     0.33249402
      2      O     1.81804368     1.27674659    -0.54847565
      3      O    -1.14695379     2.43195721     0.48875055
      4      I    -2.72470501    -0.65082369    -0.53926586
      5      O     0.35035659     0.21386586     2.07657445
      6      O     0.13678910    -1.80540446    -0.17595035
      7      H    -0.59992773    -2.27321173    -0.59611035
      8      H     0.81035208    -2.43165283     0.11600964
      9      H     2.65799911     1.51768077    -0.14273198
     10      H    -1.98590353     2.77274218     0.16331581
 
Total System Charge             0.00000
Bonding info available!
 
 *** GO1_GOStep9 ***



 ======================
 RI Hartree-Fock Scheme
 ======================
  
 Fit Set Quality     : GOOD
 Threshold Quality   : GOOD
 Integration Quality : GOOD
 Response Quality    : DEFAULT
 Is Range Separated  :  F
 
 RIHartreeFock Dependency: number of modified vectors:           4
  
 Hartree-Fock exchange energy:   -680.640411690573     

 Energy gradients wrt nuclear displacements
 ==========================================

     Atom      Cartesian (a.u./angstrom)
                 X         Y         Z
 ----------------------------------------
     1 Pa    0.025740  0.020745 -0.021337
     2 O    -0.008035 -0.003262 -0.004715
     3 O     0.002336 -0.009219  0.010534
     4 I     0.010991 -0.007652  0.007474
     5 O    -0.006203 -0.004196  0.004871
     6 O    -0.028734  0.010354  0.003108
     7 H     0.005293 -0.002964 -0.003013
     8 H     0.001984  0.002840  0.000113
     9 H    -0.003676 -0.001727  0.008831
    10 H     0.000305 -0.004919 -0.005866
 ----------------------------------------
 Mulliken charges used for AMS results%charges...

 dE(predicted):    -0.52607E-02, dE(actual):    -0.30012E-02, Trust radius:    0.800000, all in a.u.
 
----------------------------------------------------------------------
Geometry Convergence after Step   9       (Hartree/Angstrom,Angstrom)
----------------------------------------------------------------------
current energy                               -2.57069101 Hartree
energy change                      -0.00300123     0.00001000    F
constrained gradient max            0.02872317     0.00010000    F
constrained gradient rms            0.01051294     0.00006667    F
gradient max                        0.02872317
gradient rms                        0.01051294
cart. step max                      0.20056422     0.00100000    F
cart. step rms                      0.09083755     0.00066667    F
 
 
--------
Geometry
--------
Formula: H4IO4Pa
Atoms
  Index Symbol   x (angstrom)   y (angstrom)   z (angstrom)
      1     Pa    -0.08899587     0.69477902     0.36467551
      2      O     1.75909149     1.16433400    -0.56811505
      3      O    -1.17508501     2.46751331     0.50082003
      4      I    -2.85972745    -0.51279450    -0.59494058
      5      O     0.19391203     0.22862749     2.13886803
      6      O     0.30443535    -1.78762219    -0.20853070
      7      H    -0.43356216    -2.28893167    -0.59054044
      8      H     0.95768141    -2.40224933     0.15063650
      9      H     2.66324968     1.31711655    -0.27114627
     10      H    -2.02251832     2.85170299     0.25288325
 
Total System Charge             0.00000
Bonding info available!
 
 *** GO1_GOStep10 ***



 ======================
 RI Hartree-Fock Scheme
 ======================
  
 Fit Set Quality     : GOOD
 Threshold Quality   : GOOD
 Integration Quality : GOOD
 Response Quality    : DEFAULT
 Is Range Separated  :  F
 
 RIHartreeFock Dependency: number of modified vectors:           4
  
 Hartree-Fock exchange energy:   -680.610547498597     

 Energy gradients wrt nuclear displacements
 ==========================================

     Atom      Cartesian (a.u./angstrom)
                 X         Y         Z
 ----------------------------------------
     1 Pa    0.027791  0.027761 -0.036021
     2 O    -0.007817 -0.003489 -0.006612
     3 O     0.002545 -0.012016  0.010255
     4 I    -0.011966 -0.002023  0.002434
     5 O    -0.004646 -0.007249  0.025054
     6 O    -0.007633  0.007873  0.005360
     7 H    -0.000211 -0.004532 -0.004944
     8 H     0.004958 -0.001152  0.001246
     9 H     0.000026 -0.001877  0.008436
    10 H    -0.003048 -0.003296 -0.005207
 ----------------------------------------
 Mulliken charges used for AMS results%charges...
 Rebuilding optimization coordinates

 dE(predicted):    -0.43206E-02, dE(actual):    -0.41095E-02, Trust radius:    1.000000, all in a.u.
 
----------------------------------------------------------------------
Geometry Convergence after Step  10       (Hartree/Angstrom,Angstrom)
----------------------------------------------------------------------
current energy                               -2.57480051 Hartree
energy change                      -0.00410949     0.00001000    F
constrained gradient max            0.03601760     0.00010000    F
constrained gradient rms            0.01212702     0.00006667    F
gradient max                        0.03601760
gradient rms                        0.01212702
cart. step max                      0.16404688     0.00100000    F
cart. step rms                      0.05098193     0.00066667    F
 
 
--------
Geometry
--------
Formula: H4IO4Pa
Atoms
  Index Symbol   x (angstrom)   y (angstrom)   z (angstrom)
      1     Pa    -0.13975452     0.68765568     0.40715072
      2      O     1.69804622     1.14877790    -0.57166532
      3      O    -1.17700149     2.50311058     0.51851484
      4      I    -2.82013121    -0.54349304    -0.75898746
      5      O     0.22460604     0.18740823     2.14964859
      6      O     0.35372458    -1.77769316    -0.21420068
      7      H    -0.41678079    -2.27800170    -0.52378091
      8      H     0.96074550    -2.39974369     0.20426648
      9      H     2.63099928     1.26976058    -0.36711084
     10      H    -2.01597244     2.93469429     0.33077487
 
Total System Charge             0.00000
Bonding info available!
 
 *** GO1_GOStep11 ***



 ======================
 RI Hartree-Fock Scheme
 ======================
  
 Fit Set Quality     : GOOD
 Threshold Quality   : GOOD
 Integration Quality : GOOD
 Response Quality    : DEFAULT
 Is Range Separated  :  F
 
 RIHartreeFock Dependency: number of modified vectors:           4
  
 Hartree-Fock exchange energy:   -680.610550035485     

 Energy gradients wrt nuclear displacements
 ==========================================

     Atom      Cartesian (a.u./angstrom)
                 X         Y         Z
 ----------------------------------------
     1 Pa    0.009896  0.016914 -0.014598
     2 O     0.003686 -0.001027 -0.008434
     3 O     0.000554 -0.003059  0.005779
     4 I    -0.012387 -0.003114 -0.001535
     5 O     0.000277 -0.005797  0.014251
     6 O    -0.003754  0.008610  0.003367
     7 H     0.003099 -0.004831 -0.000171
     8 H    -0.000097 -0.002252 -0.001594
     9 H     0.001302 -0.001695  0.006148
    10 H    -0.002576 -0.003748 -0.003213
 ----------------------------------------
 Mulliken charges used for AMS results%charges...

 dE(predicted):    -0.25601E-02, dE(actual):    -0.39933E-02, Trust radius:    1.000000, all in a.u.
 
----------------------------------------------------------------------
Geometry Convergence after Step  11       (Hartree/Angstrom,Angstrom)
----------------------------------------------------------------------
current energy                               -2.57879380 Hartree
energy change                      -0.00399329     0.00001000    F
constrained gradient max            0.01691005     0.00010000    F
constrained gradient rms            0.00668754     0.00006667    F
gradient max                        0.01691005
gradient rms                        0.00668754
cart. step max                      0.07839993     0.00100000    F
cart. step rms                      0.02672249     0.00066667    F
 
 
--------
Geometry
--------
Formula: H4IO4Pa
Atoms
  Index Symbol   x (angstrom)   y (angstrom)   z (angstrom)
      1     Pa    -0.15834307     0.67489454     0.43360640
      2      O     1.66116662     1.14868065    -0.57534896
      3      O    -1.17126973     2.51176753     0.52855081
      4      I    -2.78107630    -0.56207168    -0.83738739
      5      O     0.23047124     0.16822224     2.16405102
      6      O     0.37572481    -1.77950627    -0.21500114
      7      H    -0.41293272    -2.26489944    -0.50476092
      8      H     0.94896937    -2.40718025     0.24175082
      9      H     2.60370963     1.26724201    -0.42596398
     10      H    -1.99793870     2.97532635     0.36511363
 
Total System Charge             0.00000
Bonding info available!
 
 *** GO1_GOStep12 ***



 ======================
 RI Hartree-Fock Scheme
 ======================
  
 Fit Set Quality     : GOOD
 Threshold Quality   : GOOD
 Integration Quality : GOOD
 Response Quality    : DEFAULT
 Is Range Separated  :  F
 
 RIHartreeFock Dependency: number of modified vectors:           4
  
 Hartree-Fock exchange energy:   -680.611612382815     

 Energy gradients wrt nuclear displacements
 ==========================================

     Atom      Cartesian (a.u./angstrom)
                 X         Y         Z
 ----------------------------------------
     1 Pa    0.005059  0.008565 -0.003310
     2 O     0.007972  0.000284 -0.008865
     3 O     0.000153  0.001391  0.004077
     4 I    -0.011201 -0.003128 -0.002776
     5 O     0.000831 -0.003548  0.007153
     6 O    -0.002179  0.009908  0.001624
     7 H     0.002484 -0.005105  0.001173
     8 H    -0.000650 -0.003085 -0.001616
     9 H     0.000583 -0.001792  0.005082
    10 H    -0.003053 -0.003491 -0.002543
 ----------------------------------------
 Mulliken charges used for AMS results%charges...

 dE(predicted):    -0.85162E-03, dE(actual):    -0.14279E-02, Trust radius:    1.000000, all in a.u.
 
----------------------------------------------------------------------
Geometry Convergence after Step  12       (Hartree/Angstrom,Angstrom)
----------------------------------------------------------------------
current energy                               -2.58022171 Hartree
energy change                      -0.00142791     0.00001000    F
constrained gradient max            0.01121817     0.00010000    F
constrained gradient rms            0.00478589     0.00006667    F
gradient max                        0.01121817
gradient rms                        0.00478589
cart. step max                      0.21137559     0.00100000    F
cart. step rms                      0.08571338     0.00066667    F
 
 
--------
Geometry
--------
Formula: H4IO4Pa
Atoms
  Index Symbol   x (angstrom)   y (angstrom)   z (angstrom)
      1     Pa    -0.20449268     0.62234081     0.51135159
      2      O     1.53687502     1.15683805    -0.58914913
      3      O    -1.14060499     2.51670528     0.56013398
      4      I    -2.63385022    -0.61492670    -1.04876299
      5      O     0.22011039     0.10687268     2.22160152
      6      O     0.44622792    -1.79903420    -0.20200852
      7      H    -0.39152550    -2.20638804    -0.48362448
      8      H     0.88316395    -2.44218513     0.37085741
      9      H     2.48488462     1.30024296    -0.61971208
     10      H    -1.90230736     3.09200996     0.45392298
 
Total System Charge             0.00000
Bonding info available!
 
 *** GO1_GOStep13 ***



 ======================
 RI Hartree-Fock Scheme
 ======================
  
 Fit Set Quality     : GOOD
 Threshold Quality   : GOOD
 Integration Quality : GOOD
 Response Quality    : DEFAULT
 Is Range Separated  :  F
 
 RIHartreeFock Dependency: number of modified vectors:           4
  
 Hartree-Fock exchange energy:   -680.615965530444     

 Energy gradients wrt nuclear displacements
 ==========================================

     Atom      Cartesian (a.u./angstrom)
                 X         Y         Z
 ----------------------------------------
     1 Pa   -0.004633 -0.015232  0.020314
     2 O     0.013831  0.004157 -0.010775
     3 O    -0.000639  0.013030 -0.000497
     4 I    -0.005757 -0.002198 -0.004494
     5 O     0.000970  0.002062 -0.006714
     6 O     0.002229  0.010570 -0.004101
     7 H     0.000374 -0.003622  0.005342
     8 H    -0.002415 -0.003757 -0.001385
     9 H    -0.000943 -0.001842  0.003364
    10 H    -0.003018 -0.003167 -0.001054
 ----------------------------------------
 Mulliken charges used for AMS results%charges...

 dE(predicted):    -0.23678E-02, dE(actual):    -0.24791E-02, Trust radius:    1.000000, all in a.u.
 
----------------------------------------------------------------------
Geometry Convergence after Step  13       (Hartree/Angstrom,Angstrom)
----------------------------------------------------------------------
current energy                               -2.58270085 Hartree
energy change                      -0.00247914     0.00001000    F
constrained gradient max            0.02032359     0.00010000    F
constrained gradient rms            0.00707731     0.00006667    F
gradient max                        0.02032359
gradient rms                        0.00707731
cart. step max                      0.10411818     0.00100000    F
cart. step rms                      0.04712770     0.00066667    F
 
 
--------
Geometry
--------
Formula: H4IO4Pa
Atoms
  Index Symbol   x (angstrom)   y (angstrom)   z (angstrom)
      1     Pa    -0.23002680     0.60117363     0.54531519
      2      O     1.46750712     1.15048989    -0.59383457
      3      O    -1.12031147     2.51762109     0.57693376
      4      I    -2.56203446    -0.64666140    -1.12060516
      5      O     0.18060333     0.08761521     2.25853208
      6      O     0.48210747    -1.81314940    -0.16871037
      7      H    -0.34647933    -2.17579078    -0.53321900
      8      H     0.85199785    -2.46740634     0.43853192
      9      H     2.40276685     1.31727059    -0.72383026
     10      H    -1.82764942     3.16131317     0.49549670
 
Total System Charge             0.00000
Bonding info available!
 
 *** GO1_GOStep14 ***



 ======================
 RI Hartree-Fock Scheme
 ======================
  
 Fit Set Quality     : GOOD
 Threshold Quality   : GOOD
 Integration Quality : GOOD
 Response Quality    : DEFAULT
 Is Range Separated  :  F
 
 RIHartreeFock Dependency: number of modified vectors:           4
  
 Hartree-Fock exchange energy:   -680.620169048670     

 Energy gradients wrt nuclear displacements
 ==========================================

     Atom      Cartesian (a.u./angstrom)
                 X         Y         Z
 ----------------------------------------
     1 Pa   -0.006227 -0.018317  0.022386
     2 O     0.010032  0.004370 -0.009442
     3 O     0.001338  0.014141 -0.001856
     4 I    -0.002741 -0.001557 -0.003443
     5 O     0.000805  0.003126 -0.008846
     6 O     0.002345  0.005259 -0.003378
     7 H    -0.003418 -0.000074  0.001551
     8 H     0.001674 -0.002359  0.000774
     9 H    -0.000721 -0.001758  0.003076
    10 H    -0.003087 -0.002832 -0.000822
 ----------------------------------------
 Mulliken charges used for AMS results%charges...

 dE(predicted):    -0.70085E-03, dE(actual):    -0.99733E-03, Trust radius:    1.000000, all in a.u.
 
----------------------------------------------------------------------
Geometry Convergence after Step  14       (Hartree/Angstrom,Angstrom)
----------------------------------------------------------------------
current energy                               -2.58369818 Hartree
energy change                      -0.00099733     0.00001000    F
constrained gradient max            0.02239386     0.00010000    F
constrained gradient rms            0.00706841     0.00006667    F
gradient max                        0.02239386
gradient rms                        0.00706841
cart. step max                      0.21180485     0.00100000    F
cart. step rms                      0.09128334     0.00066667    F
 
 
--------
Geometry
--------
Formula: H4IO4Pa
Atoms
  Index Symbol   x (angstrom)   y (angstrom)   z (angstrom)
      1     Pa    -0.27556593     0.58527244     0.56441996
      2      O     1.36378635     1.11555225    -0.62269762
      3      O    -1.10559368     2.51729824     0.63562177
      4      I    -2.43376560    -0.68538745    -1.27097996
      5      O     0.06221297     0.06264902     2.29599473
      6      O     0.56722493    -1.83019968    -0.09498125
      7      H    -0.22090955    -2.12297665    -0.59021106
      8      H     0.78318517    -2.49559362     0.56875060
      9      H     2.24916600     1.30952980    -0.93563511
     10      H    -1.69125950     3.27633132     0.62432821
 
Total System Charge             0.00000
Bonding info available!
 
 *** GO1_GOStep15 ***



 ======================
 RI Hartree-Fock Scheme
 ======================
  
 Fit Set Quality     : GOOD
 Threshold Quality   : GOOD
 Integration Quality : GOOD
 Response Quality    : DEFAULT
 Is Range Separated  :  F
 
 RIHartreeFock Dependency: number of modified vectors:           4
  
 Hartree-Fock exchange energy:   -680.627756482394     

 Energy gradients wrt nuclear displacements
 ==========================================

     Atom      Cartesian (a.u./angstrom)
                 X         Y         Z
 ----------------------------------------
     1 Pa   -0.005934 -0.009753  0.008679
     2 O    -0.000615  0.000677 -0.003022
     3 O     0.004407  0.009635 -0.001105
     4 I     0.000186 -0.000579 -0.002101
     5 O     0.001962  0.002025 -0.002631
     6 O     0.003310 -0.004559 -0.000190
     7 H    -0.004047  0.005335 -0.001244
     8 H     0.003307  0.001101  0.000119
     9 H     0.000131 -0.001506  0.002378
    10 H    -0.002706 -0.002376 -0.000883
 ----------------------------------------
 Mulliken charges used for AMS results%charges...

 dE(predicted):    -0.11022E-02, dE(actual):    -0.13844E-02, Trust radius:    1.000000, all in a.u.
 
----------------------------------------------------------------------
Geometry Convergence after Step  15       (Hartree/Angstrom,Angstrom)
----------------------------------------------------------------------
current energy                               -2.58508263 Hartree
energy change                      -0.00138444     0.00001000    F
constrained gradient max            0.00975610     0.00010000    F
constrained gradient rms            0.00391891     0.00006667    F
gradient max                        0.00975610
gradient rms                        0.00391891
cart. step max                      0.14526975     0.00100000    F
cart. step rms                      0.07096847     0.00066667    F
 
 
--------
Geometry
--------
Formula: H4IO4Pa
Atoms
  Index Symbol   x (angstrom)   y (angstrom)   z (angstrom)
      1     Pa    -0.29572755     0.56723480     0.54110718
      2      O     1.30638844     1.14228315    -0.64458292
      3      O    -1.09129144     2.49900695     0.66888977
      4      I    -2.37597082    -0.68276095    -1.36522963
      5      O    -0.02344310     0.02532933     2.28277257
      6      O     0.61437992    -1.87206383    -0.00888465
      7      H    -0.09924470    -2.13360292    -0.61984254
      8      H     0.69432240    -2.53428973     0.68659593
      9      H     2.12544489     1.38570623    -1.08090486
     10      H    -1.55637688     3.33563265     0.71468943
 
Total System Charge             0.00000
Bonding info available!
 
 *** GO1_GOStep16 ***



 ======================
 RI Hartree-Fock Scheme
 ======================
  
 Fit Set Quality     : GOOD
 Threshold Quality   : GOOD
 Integration Quality : GOOD
 Response Quality    : DEFAULT
 Is Range Separated  :  F
 
 RIHartreeFock Dependency: number of modified vectors:           3
  
 Hartree-Fock exchange energy:   -680.634478934152     

 Energy gradients wrt nuclear displacements
 ==========================================

     Atom      Cartesian (a.u./angstrom)
                 X         Y         Z
 ----------------------------------------
     1 Pa   -0.001373 -0.001424 -0.008980
     2 O    -0.011716  0.000080  0.006268
     3 O     0.006761  0.003017 -0.000397
     4 I     0.000643  0.001300 -0.000260
     5 O     0.002562  0.000576  0.002254
     6 O     0.003289 -0.010753  0.005126
     7 H    -0.003602  0.008123 -0.004334
     8 H     0.004419  0.001807  0.000331
     9 H     0.000948 -0.001485  0.001004
    10 H    -0.001931 -0.001241 -0.001013
 ----------------------------------------
 Mulliken charges used for AMS results%charges...
 Rebuilding optimization coordinates
Bad geometry: could not add a dihedral for atom    9
Bad geometry: could not add a dihedral for atom   10

 dE(predicted):    -0.70114E-03, dE(actual):    -0.73942E-03, Trust radius:    1.000000, all in a.u.
 
----------------------------------------------------------------------
Geometry Convergence after Step  16       (Hartree/Angstrom,Angstrom)
----------------------------------------------------------------------
current energy                               -2.58582205 Hartree
energy change                      -0.00073942     0.00001000    F
constrained gradient max            0.01174052     0.00010000    F
constrained gradient rms            0.00452400     0.00006667    F
gradient max                        0.01174052
gradient rms                        0.00452400
cart. step max                      0.08864929     0.00100000    F
cart. step rms                      0.03631713     0.00066667    F
 
 
--------
Geometry
--------
Formula: H4IO4Pa
Atoms
  Index Symbol   x (angstrom)   y (angstrom)   z (angstrom)
      1     Pa    -0.30626483     0.58733029     0.52492725
      2      O     1.30738778     1.10729352    -0.67084914
      3      O    -1.10611516     2.50490584     0.71316546
      4      I    -2.34574942    -0.70313208    -1.39706193
      5      O    -0.11209240     0.03914696     2.27644506
      6      O     0.64113111    -1.85492733     0.00788302
      7      H    -0.03606884    -2.13701823    -0.63161162
      8      H     0.67761676    -2.51136704     0.71274093
      9      H     2.10235930     1.33682668    -1.15748312
     10      H    -1.52372315     3.36341708     0.79645436
 
Total System Charge             0.00000
Bonding info available!
 
 *** GO1_GOStep17 ***



 ======================
 RI Hartree-Fock Scheme
 ======================
  
 Fit Set Quality     : GOOD
 Threshold Quality   : GOOD
 Integration Quality : GOOD
 Response Quality    : DEFAULT
 Is Range Separated  :  F
 
 RIHartreeFock Dependency: number of modified vectors:           4
  
 Hartree-Fock exchange energy:   -680.635282938589     

 Energy gradients wrt nuclear displacements
 ==========================================

     Atom      Cartesian (a.u./angstrom)
                 X         Y         Z
 ----------------------------------------
     1 Pa    0.000064  0.009024 -0.013516
     2 O    -0.011887 -0.003600  0.007144
     3 O     0.006109 -0.003736  0.002673
     4 I     0.000729  0.000341 -0.000351
     5 O     0.001068  0.000991  0.005184
     6 O     0.002672 -0.007999  0.002634
     7 H    -0.001456  0.005730 -0.001913
     8 H     0.002732  0.000942 -0.000869
     9 H     0.001270 -0.001035  0.000268
    10 H    -0.001302 -0.000657 -0.001253
 ----------------------------------------
 Mulliken charges used for AMS results%charges...

 dE(predicted):    -0.41111E-03, dE(actual):    -0.38891E-03, Trust radius:    1.000000, all in a.u.
 
----------------------------------------------------------------------
Geometry Convergence after Step  17       (Hartree/Angstrom,Angstrom)
----------------------------------------------------------------------
current energy                               -2.58621096 Hartree
energy change                      -0.00038891     0.00001000    F
constrained gradient max            0.01351956     0.00010000    F
constrained gradient rms            0.00479519     0.00006667    F
gradient max                        0.01352038
gradient rms                        0.00479520
cart. step max                      0.10643767     0.00100000    F
cart. step rms                      0.05286105     0.00066667    F
 
 
--------
Geometry
--------
Formula: H4IO4Pa
Atoms
  Index Symbol   x (angstrom)   y (angstrom)   z (angstrom)
      1     Pa    -0.28450554     0.56761303     0.51826570
      2      O     1.34193017     1.17514602    -0.64069777
      3      O    -1.09250423     2.49342353     0.65329970
      4      I    -2.43449660    -0.67822673    -1.31286090
      5      O    -0.03538425     0.01316652     2.25874647
      6      O     0.59309078    -1.87798836    -0.02068680
      7      H    -0.09974673    -2.20152805    -0.62169556
      8      H     0.69987627    -2.52188922     0.68921730
      9      H     2.17007044     1.43382742    -1.05104545
     10      H    -1.55984916     3.32893151     0.70206760
 
Total System Charge             0.00000
Bonding info available!
 
 *** GO1_GOStep18 ***



 ======================
 RI Hartree-Fock Scheme
 ======================
  
 Fit Set Quality     : GOOD
 Threshold Quality   : GOOD
 Integration Quality : GOOD
 Response Quality    : DEFAULT
 Is Range Separated  :  F
 
 RIHartreeFock Dependency: number of modified vectors:           4
  
 Hartree-Fock exchange energy:   -680.629805264921     

 Energy gradients wrt nuclear displacements
 ==========================================

     Atom      Cartesian (a.u./angstrom)
                 X         Y         Z
 ----------------------------------------
     1 Pa   -0.003455 -0.005158 -0.003640
     2 O    -0.006448  0.003359  0.002419
     3 O     0.005984  0.003521 -0.000384
     4 I    -0.000457  0.000849 -0.000157
     5 O     0.001524  0.000820  0.001621
     6 O     0.002031 -0.005638  0.003226
     7 H    -0.001469  0.003897 -0.002230
     8 H     0.002437  0.000229 -0.000438
     9 H     0.001788 -0.001289  0.000627
    10 H    -0.001935 -0.000590 -0.001043
 ----------------------------------------
 Mulliken charges used for AMS results%charges...

 dE(predicted):    -0.37749E-03, dE(actual):    -0.23189E-03, Trust radius:    1.000000, all in a.u.
 
----------------------------------------------------------------------
Geometry Convergence after Step  18       (Hartree/Angstrom,Angstrom)
----------------------------------------------------------------------
current energy                               -2.58644285 Hartree
energy change                      -0.00023189     0.00001000    F
constrained gradient max            0.00646825     0.00010000    F
constrained gradient rms            0.00289071     0.00006667    F
gradient max                        0.00646710
gradient rms                        0.00289071
cart. step max                      0.06446432     0.00100000    F
cart. step rms                      0.02736804     0.00066667    F
 
 
--------
Geometry
--------
Formula: H4IO4Pa
Atoms
  Index Symbol   x (angstrom)   y (angstrom)   z (angstrom)
      1     Pa    -0.29105311     0.57553555     0.50666714
      2      O     1.33723058     1.16148878    -0.66065590
      3      O    -1.10161250     2.49311125     0.68480511
      4      I    -2.39890800    -0.69036178    -1.35411679
      5      O    -0.08526243     0.00771281     2.24863851
      6      O     0.61298413    -1.87310230    -0.00233829
      7      H    -0.06118224    -2.20470971    -0.61877924
      8      H     0.67120849    -2.50574378     0.72347393
      9      H     2.14162244     1.41998822    -1.11550977
     10      H    -1.52654620     3.34855663     0.76242558
 
Total System Charge             0.00000
Bonding info available!
 
 *** GO1_GOStep19 ***



 ======================
 RI Hartree-Fock Scheme
 ======================
  
 Fit Set Quality     : GOOD
 Threshold Quality   : GOOD
 Integration Quality : GOOD
 Response Quality    : DEFAULT
 Is Range Separated  :  F
 
 RIHartreeFock Dependency: number of modified vectors:           4
  
 Hartree-Fock exchange energy:   -680.631435187020     

 Energy gradients wrt nuclear displacements
 ==========================================

     Atom      Cartesian (a.u./angstrom)
                 X         Y         Z
 ----------------------------------------
     1 Pa   -0.003417 -0.000211 -0.005255
     2 O    -0.005555  0.001769  0.002421
     3 O     0.005205  0.000410  0.001235
     4 I     0.000034  0.000518 -0.000081
     5 O     0.000870  0.001047  0.002126
     6 O     0.002569 -0.003519  0.002041
     7 H    -0.000597  0.002403 -0.000132
     8 H     0.000899 -0.000653 -0.001626
     9 H     0.001243 -0.001234  0.000444
    10 H    -0.001250 -0.000529 -0.001174
 ----------------------------------------
 Mulliken charges used for AMS results%charges...

 dE(predicted):    -0.25864E-03, dE(actual):    -0.37384E-03, Trust radius:    1.000000, all in a.u.
 
----------------------------------------------------------------------
Geometry Convergence after Step  19       (Hartree/Angstrom,Angstrom)
----------------------------------------------------------------------
current energy                               -2.58681669 Hartree
energy change                      -0.00037384     0.00001000    F
constrained gradient max            0.00557041     0.00010000    F
constrained gradient rms            0.00226767     0.00006667    F
gradient max                        0.00557035
gradient rms                        0.00226768
cart. step max                      0.06853261     0.00100000    F
cart. step rms                      0.03096199     0.00066667    F
 
 
--------
Geometry
--------
Formula: H4IO4Pa
Atoms
  Index Symbol   x (angstrom)   y (angstrom)   z (angstrom)
      1     Pa    -0.29409028     0.58600722     0.48288251
      2      O     1.34707570     1.16144864    -0.68185010
      3      O    -1.11541360     2.49026578     0.71467283
      4      I    -2.37503717    -0.70176336    -1.38511554
      5      O    -0.14304182    -0.01348689     2.21863615
      6      O     0.61787611    -1.86945952     0.01766302
      7      H    -0.01632287    -2.24357249    -0.61516575
      8      H     0.63939406    -2.47113333     0.77249840
      9      H     2.12212563     1.42723750    -1.18056941
     10      H    -1.48408462     3.36693213     0.83095819
 
Total System Charge             0.00000
Bonding info available!
 
 *** GO1_GOStep20 ***



 ======================
 RI Hartree-Fock Scheme
 ======================
  
 Fit Set Quality     : GOOD
 Threshold Quality   : GOOD
 Integration Quality : GOOD
 Response Quality    : DEFAULT
 Is Range Separated  :  F
 
 RIHartreeFock Dependency: number of modified vectors:           4
  
 Hartree-Fock exchange energy:   -680.632124131178     

 Energy gradients wrt nuclear displacements
 ==========================================

     Atom      Cartesian (a.u./angstrom)
                 X         Y         Z
 ----------------------------------------
     1 Pa   -0.004026  0.004023 -0.002749
     2 O    -0.001820  0.001293  0.000580
     3 O     0.003562 -0.002730  0.002640
     4 I     0.000574 -0.000145  0.000348
     5 O    -0.000431  0.001424  0.000443
     6 O     0.002066 -0.000132  0.000517
     7 H    -0.000110 -0.000185  0.000591
     8 H    -0.000048 -0.002047 -0.001451
     9 H     0.000365 -0.001180  0.000350
    10 H    -0.000131 -0.000320 -0.001269
 ----------------------------------------
 Mulliken charges used for AMS results%charges...

 dE(predicted):    -0.28067E-03, dE(actual):    -0.34498E-03, Trust radius:    1.000000, all in a.u.
 
----------------------------------------------------------------------
Geometry Convergence after Step  20       (Hartree/Angstrom,Angstrom)
----------------------------------------------------------------------
current energy                               -2.58716167 Hartree
energy change                      -0.00034498     0.00001000    F
constrained gradient max            0.00402737     0.00010000    F
constrained gradient rms            0.00173072     0.00006667    F
gradient max                        0.00402779
gradient rms                        0.00173072
cart. step max                      0.02792725     0.00100000    F
cart. step rms                      0.01482218     0.00066667    F
 
 
--------
Geometry
--------
Formula: H4IO4Pa
Atoms
  Index Symbol   x (angstrom)   y (angstrom)   z (angstrom)
      1     Pa    -0.28874078     0.58411947     0.46996676
      2      O     1.35776288     1.17481377    -0.68861725
      3      O    -1.12263815     2.48288701     0.71912543
      4      I    -2.36959631    -0.69736597    -1.39837397
      5      O    -0.14418672    -0.04041817     2.19713851
      6      O     0.61453643    -1.87285599     0.02206626
      7      H    -0.01646584    -2.27149974    -0.59771080
      8      H     0.61895704    -2.44441136     0.80038029
      9      H     2.12073093     1.45177174    -1.19945091
     10      H    -1.47187833     3.36543492     0.85008597
 
Total System Charge             0.00000
Bonding info available!
 
 *** GO1_GOStep21 ***



 ======================
 RI Hartree-Fock Scheme
 ======================
  
 Fit Set Quality     : GOOD
 Threshold Quality   : GOOD
 Integration Quality : GOOD
 Response Quality    : DEFAULT
 Is Range Separated  :  F
 
 RIHartreeFock Dependency: number of modified vectors:           4
  
 Hartree-Fock exchange energy:   -680.630971152242     

 Energy gradients wrt nuclear displacements
 ==========================================

     Atom      Cartesian (a.u./angstrom)
                 X         Y         Z
 ----------------------------------------
     1 Pa   -0.004961  0.001716  0.000149
     2 O     0.001140  0.002391 -0.001308
     3 O     0.002080 -0.001602  0.002531
     4 I     0.000621 -0.000199  0.000351
     5 O    -0.000560  0.001034 -0.000632
     6 O     0.002157  0.001649 -0.000237
     7 H     0.000320 -0.001391  0.002443
     8 H    -0.001170 -0.002339 -0.002376
     9 H     0.000118 -0.001143  0.000280
    10 H     0.000255 -0.000117 -0.001200
 ----------------------------------------
 Mulliken charges used for AMS results%charges...

 dE(predicted):    -0.93982E-04, dE(actual):    -0.15124E-03, Trust radius:    1.000000, all in a.u.
 
----------------------------------------------------------------------
Geometry Convergence after Step  21       (Hartree/Angstrom,Angstrom)
----------------------------------------------------------------------
current energy                               -2.58731291 Hartree
energy change                      -0.00015124     0.00001000    F
constrained gradient max            0.00495974     0.00010000    F
constrained gradient rms            0.00166077     0.00006667    F
gradient max                        0.00496046
gradient rms                        0.00166077
cart. step max                      0.03191544     0.00100000    F
cart. step rms                      0.01301871     0.00066667    F
 
 
--------
Geometry
--------
Formula: H4IO4Pa
Atoms
  Index Symbol   x (angstrom)   y (angstrom)   z (angstrom)
      1     Pa    -0.28181183     0.58319213     0.46055259
      2      O     1.37234347     1.18384423    -0.68841984
      3      O    -1.13159667     2.47727388     0.71638269
      4      I    -2.37707683    -0.68729971    -1.39701715
      5      O    -0.13364642    -0.06664892     2.17792238
      6      O     0.59920514    -1.87416372     0.01966681
      7      H    -0.02210403    -2.30210525    -0.59006679
      8      H     0.61593220    -2.41249591     0.82160234
      9      H     2.13109663     1.46928725    -1.20093642
     10      H    -1.47386049     3.36159171     0.85492368
 
Total System Charge             0.00000
Bonding info available!
 
 *** GO1_GOStep22 ***



 ======================
 RI Hartree-Fock Scheme
 ======================
  
 Fit Set Quality     : GOOD
 Threshold Quality   : GOOD
 Integration Quality : GOOD
 Response Quality    : DEFAULT
 Is Range Separated  :  F
 
 RIHartreeFock Dependency: number of modified vectors:           4
  
 Hartree-Fock exchange energy:   -680.629460464472     

 Energy gradients wrt nuclear displacements
 ==========================================

     Atom      Cartesian (a.u./angstrom)
                 X         Y         Z
 ----------------------------------------
     1 Pa   -0.004120 -0.000375  0.003076
     2 O     0.002734  0.002906 -0.002287
     3 O     0.000538 -0.000219  0.002086
     4 I     0.000539 -0.000401  0.000455
     5 O    -0.000777  0.000445 -0.002052
     6 O     0.000330  0.001272 -0.000284
     7 H     0.000103 -0.001416  0.000496
     8 H     0.000033 -0.001509 -0.000532
     9 H     0.000215 -0.001005  0.000116
    10 H     0.000404  0.000301 -0.001074
 ----------------------------------------
 Mulliken charges used for AMS results%charges...

 dE(predicted):    -0.83434E-04, dE(actual):    -0.11237E-03, Trust radius:    1.000000, all in a.u.
 
----------------------------------------------------------------------
Geometry Convergence after Step  22       (Hartree/Angstrom,Angstrom)
----------------------------------------------------------------------
current energy                               -2.58742528 Hartree
energy change                      -0.00011237     0.00001000    F
constrained gradient max            0.00411960     0.00010000    F
constrained gradient rms            0.00149636     0.00006667    F
gradient max                        0.00412048
gradient rms                        0.00149636
cart. step max                      0.01936034     0.00100000    F
cart. step rms                      0.00965747     0.00066667    F
 
 
--------
Geometry
--------
Formula: H4IO4Pa
Atoms
  Index Symbol   x (angstrom)   y (angstrom)   z (angstrom)
      1     Pa    -0.27517070     0.57669304     0.45894525
      2      O     1.37436676     1.18872045    -0.68816921
      3      O    -1.13561913     2.46854763     0.71391824
      4      I    -2.37038100    -0.67498782    -1.40931989
      5      O    -0.11465129    -0.08546373     2.17153364
      6      O     0.60105859    -1.87805994     0.02103073
      7      H    -0.03032833    -2.30502563    -0.57879757
      8      H     0.59823067    -2.39313558     0.83807167
      9      H     2.12522397     1.48141402    -1.20821588
     10      H    -1.47424839     3.35377324     0.85561329
 
Total System Charge             0.00000
Bonding info available!
 
 *** GO1_GOStep23 ***



 ======================
 RI Hartree-Fock Scheme
 ======================
  
 Fit Set Quality     : GOOD
 Threshold Quality   : GOOD
 Integration Quality : GOOD
 Response Quality    : DEFAULT
 Is Range Separated  :  F
 
 RIHartreeFock Dependency: number of modified vectors:           4
  
 Hartree-Fock exchange energy:   -680.629292770840     

 Energy gradients wrt nuclear displacements
 ==========================================

     Atom      Cartesian (a.u./angstrom)
                 X         Y         Z
 ----------------------------------------
     1 Pa   -0.003037 -0.002505  0.002731
     2 O     0.002181  0.002930 -0.001829
     3 O    -0.000391  0.001219  0.001578
     4 I     0.000440 -0.000001  0.000305
     5 O    -0.000343 -0.000114 -0.001841
     6 O     0.000719  0.000856 -0.000090
     7 H     0.000036 -0.001013  0.001041
     8 H    -0.000317 -0.000745 -0.000934
     9 H     0.000202 -0.000975  0.000023
    10 H     0.000510  0.000348 -0.000983
 ----------------------------------------
 Mulliken charges used for AMS results%charges...

 dE(predicted):    -0.42187E-04, dE(actual):    -0.71845E-04, Trust radius:    1.000000, all in a.u.
 
----------------------------------------------------------------------
Geometry Convergence after Step  23       (Hartree/Angstrom,Angstrom)
----------------------------------------------------------------------
current energy                               -2.58749713 Hartree
energy change                      -0.00007184     0.00001000    F
constrained gradient max            0.00303683     0.00010000    F
constrained gradient rms            0.00135138     0.00006667    F
gradient max                        0.00303777
gradient rms                        0.00135138
cart. step max                      0.01337107     0.00100000    F
cart. step rms                      0.00530576     0.00066667    F
 
 
--------
Geometry
--------
Formula: H4IO4Pa
Atoms
  Index Symbol   x (angstrom)   y (angstrom)   z (angstrom)
      1     Pa    -0.27062250     0.57474813     0.46165631
      2      O     1.37654717     1.18260861    -0.68530204
      3      O    -1.13890894     2.46424870     0.71136795
      4      I    -2.37009162    -0.66723100    -1.40937378
      5      O    -0.10128022    -0.08805455     2.17439120
      6      O     0.60210092    -1.87657277     0.01745026
      7      H    -0.03453910    -2.29795746    -0.58099979
      8      H     0.59322267    -2.38142347     0.84088026
      9      H     2.12663016     1.47503456    -1.20685646
     10      H    -1.48457739     3.34707494     0.85139637
 
Total System Charge             0.00000
Bonding info available!
 
 *** GO1_GOStep24 ***



 ======================
 RI Hartree-Fock Scheme
 ======================
  
 Fit Set Quality     : GOOD
 Threshold Quality   : GOOD
 Integration Quality : GOOD
 Response Quality    : DEFAULT
 Is Range Separated  :  F
 
 RIHartreeFock Dependency: number of modified vectors:           4
  
 Hartree-Fock exchange energy:   -680.629470218541     

 Energy gradients wrt nuclear displacements
 ==========================================

     Atom      Cartesian (a.u./angstrom)
                 X         Y         Z
 ----------------------------------------
     1 Pa   -0.001174 -0.002121  0.001050
     2 O     0.000424  0.001942 -0.000547
     3 O    -0.000654  0.001208  0.001348
     4 I     0.000265  0.000182  0.000189
     5 O    -0.000145 -0.000374 -0.000868
     6 O     0.000374 -0.000234 -0.000160
     7 H    -0.000033 -0.000253  0.000196
     8 H     0.000178  0.000151 -0.000185
     9 H     0.000314 -0.000904 -0.000074
    10 H     0.000451  0.000403 -0.000949
 ----------------------------------------
 Mulliken charges used for AMS results%charges...

 dE(predicted):    -0.25616E-04, dE(actual):    -0.34463E-04, Trust radius:    1.000000, all in a.u.
 
----------------------------------------------------------------------
Geometry Convergence after Step  24       (Hartree/Angstrom,Angstrom)
----------------------------------------------------------------------
current energy                               -2.58753159 Hartree
energy change                      -0.00003446     0.00001000    F
constrained gradient max            0.00211348     0.00010000    F
constrained gradient rms            0.00078658     0.00006667    F
gradient max                        0.00211351
gradient rms                        0.00078658
cart. step max                      0.00852699     0.00100000    F
cart. step rms                      0.00384831     0.00066667    F
 
 
--------
Geometry
--------
Formula: H4IO4Pa
Atoms
  Index Symbol   x (angstrom)   y (angstrom)   z (angstrom)
      1     Pa    -0.26792762     0.57488807     0.46332613
      2      O     1.37859220     1.17699079    -0.68356030
      3      O    -1.14012290     2.46200464     0.71035759
      4      I    -2.37049782    -0.66565677    -1.40675047
      5      O    -0.09429841    -0.08401999     2.17789691
      6      O     0.60378655    -1.87451344     0.01508737
      7      H    -0.03529619    -2.28962468    -0.58531481
      8      H     0.58821404    -2.37772289     0.83955306
      9      H     2.12913567     1.46803264    -1.20534332
     10      H    -1.49310438     3.34209731     0.84935812
 
Total System Charge             0.00000
Bonding info available!
 
 *** GO1_GOStep25 ***



 ======================
 RI Hartree-Fock Scheme
 ======================
  
 Fit Set Quality     : GOOD
 Threshold Quality   : GOOD
 Integration Quality : GOOD
 Response Quality    : DEFAULT
 Is Range Separated  :  F
 
 RIHartreeFock Dependency: number of modified vectors:           4
  
 Hartree-Fock exchange energy:   -680.629945071772     

 Energy gradients wrt nuclear displacements
 ==========================================

     Atom      Cartesian (a.u./angstrom)
                 X         Y         Z
 ----------------------------------------
     1 Pa   -0.000215 -0.000929 -0.000452
     2 O    -0.000810  0.001149  0.000424
     3 O    -0.000443  0.000501  0.001340
     4 I     0.000167  0.000236  0.000144
     5 O    -0.000039 -0.000396 -0.000076
     6 O     0.000331 -0.000582 -0.000416
     7 H    -0.000006  0.000117 -0.000078
     8 H     0.000271  0.000437  0.000190
     9 H     0.000340 -0.000874 -0.000107
    10 H     0.000405  0.000342 -0.000968
 ----------------------------------------
 Mulliken charges used for AMS results%charges...

 dE(predicted):    -0.10131E-04, dE(actual):    -0.71285E-05, Trust radius:    1.000000, all in a.u.
 
----------------------------------------------------------------------
Geometry Convergence after Step  25       (Hartree/Angstrom,Angstrom)
----------------------------------------------------------------------
current energy                               -2.58753872 Hartree
energy change                      -0.00000713     0.00001000    T
constrained gradient max            0.00129444     0.00010000    F
constrained gradient rms            0.00054199     0.00006667    F
gradient max                        0.00129223
gradient rms                        0.00054199
cart. step max                      0.00712790     0.00100000    F
cart. step rms                      0.00290486     0.00066667    F
 
 
--------
Geometry
--------
Formula: H4IO4Pa
Atoms
  Index Symbol   x (angstrom)   y (angstrom)   z (angstrom)
      1     Pa    -0.26539880     0.57557037     0.46318118
      2      O     1.38199807     1.17451416    -0.68278630
      3      O    -1.14054828     2.46034327     0.70962594
      4      I    -2.37164019    -0.66621504    -1.40326639
      5      O    -0.08908388    -0.07954986     2.17929636
      6      O     0.60322866    -1.87331685     0.01411733
      7      H    -0.03549895    -2.28534514    -0.58889934
      8      H     0.58263693    -2.37662667     0.83852173
      9      H     2.13301988     1.46540410    -1.20398620
     10      H    -1.50023227     3.33769733     0.84880598
 
Total System Charge             0.00000
Bonding info available!
 
 *** GO1_GOStep26 ***



 ======================
 RI Hartree-Fock Scheme
 ======================
  
 Fit Set Quality     : GOOD
 Threshold Quality   : GOOD
 Integration Quality : GOOD
 Response Quality    : DEFAULT
 Is Range Separated  :  F
 
 RIHartreeFock Dependency: number of modified vectors:           4
  
 Hartree-Fock exchange energy:   -680.630234911613     

 Energy gradients wrt nuclear displacements
 ==========================================

     Atom      Cartesian (a.u./angstrom)
                 X         Y         Z
 ----------------------------------------
     1 Pa    0.000031 -0.000053 -0.001252
     2 O    -0.001238  0.000794  0.000850
     3 O    -0.000168 -0.000177  0.001396
     4 I     0.000127  0.000208  0.000159
     5 O     0.000013 -0.000353  0.000360
     6 O     0.000288 -0.000534 -0.000585
     7 H     0.000022  0.000202 -0.000209
     8 H     0.000239  0.000486  0.000385
     9 H     0.000329 -0.000869 -0.000114
    10 H     0.000356  0.000297 -0.000992
 ----------------------------------------
 Mulliken charges used for AMS results%charges...

 dE(predicted):    -0.56119E-05, dE(actual):    -0.26613E-05, Trust radius:    1.000000, all in a.u.
 
----------------------------------------------------------------------
Geometry Convergence after Step  26       (Hartree/Angstrom,Angstrom)
----------------------------------------------------------------------
current energy                               -2.58754138 Hartree
energy change                      -0.00000266     0.00001000    T
constrained gradient max            0.00135282     0.00010000    F
constrained gradient rms            0.00058016     0.00006667    F
gradient max                        0.00135084
gradient rms                        0.00058016
cart. step max                      0.01260603     0.00100000    F
cart. step rms                      0.00494558     0.00066667    F
 
 
--------
Geometry
--------
Formula: H4IO4Pa
Atoms
  Index Symbol   x (angstrom)   y (angstrom)   z (angstrom)
      1     Pa    -0.26012810     0.57647249     0.46162764
      2      O     1.38899619     1.17353858    -0.68276894
      3      O    -1.14055400     2.45712764     0.70860486
      4      I    -2.37215718    -0.66728569    -1.39892277
      5      O    -0.07927423    -0.07184954     2.18012987
      6      O     0.60011325    -1.87290233     0.01494931
      7      H    -0.03607419    -2.28097489    -0.59359037
      8      H     0.57003090    -2.37720185     0.83857956
      9      H     2.13954565     1.46626348    -1.20358105
     10      H    -1.51201714     3.32928780     0.84958217
 
Total System Charge             0.00000
Bonding info available!
 
 *** GO1_GOStep27 ***



 ======================
 RI Hartree-Fock Scheme
 ======================
  
 Fit Set Quality     : GOOD
 Threshold Quality   : GOOD
 Integration Quality : GOOD
 Response Quality    : DEFAULT
 Is Range Separated  :  F
 
 RIHartreeFock Dependency: number of modified vectors:           4
  
 Hartree-Fock exchange energy:   -680.630579930662     

 Energy gradients wrt nuclear displacements
 ==========================================

     Atom      Cartesian (a.u./angstrom)
                 X         Y         Z
 ----------------------------------------
     1 Pa   -0.000108  0.000791 -0.001999
     2 O    -0.001301  0.000612  0.001130
     3 O     0.000288 -0.001107  0.001525
     4 I     0.000113  0.000141  0.000219
     5 O     0.000102 -0.000208  0.000758
     6 O     0.000252 -0.000193 -0.000702
     7 H     0.000058  0.000176 -0.000291
     8 H     0.000056  0.000434  0.000505
     9 H     0.000283 -0.000886 -0.000118
    10 H     0.000258  0.000238 -0.001027
 ----------------------------------------
 Mulliken charges used for AMS results%charges...

 dE(predicted):    -0.96284E-05, dE(actual):    -0.49641E-05, Trust radius:    1.000000, all in a.u.
 
----------------------------------------------------------------------
Geometry Convergence after Step  27       (Hartree/Angstrom,Angstrom)
----------------------------------------------------------------------
current energy                               -2.58754634 Hartree
energy change                      -0.00000496     0.00001000    T
constrained gradient max            0.00200665     0.00010000    F
constrained gradient rms            0.00071934     0.00006667    F
gradient max                        0.00200691
gradient rms                        0.00071934
cart. step max                      0.01407241     0.00100000    F
cart. step rms                      0.00530749     0.00066667    F
 
 
--------
Geometry
--------
Formula: H4IO4Pa
Atoms
  Index Symbol   x (angstrom)   y (angstrom)   z (angstrom)
      1     Pa    -0.25379152     0.57695682     0.45952629
      2      O     1.39636068     1.17538746    -0.68446527
      3      O    -1.14001050     2.45371807     0.70814256
      4      I    -2.36974716    -0.66656085    -1.39843562
      5      O    -0.06879873    -0.06452691     2.18003748
      6      O     0.59472210    -1.87439991     0.01887818
      7      H    -0.03734320    -2.27959243    -0.59597270
      8      H     0.55595849    -2.38071434     0.84092896
      9      H     2.14451023     1.47202285    -1.20643099
     10      H    -1.52337925     3.32018492     0.85240139
 
Total System Charge             0.00000
Bonding info available!
 
 *** GO1_GOStep28 ***



 ======================
 RI Hartree-Fock Scheme
 ======================
  
 Fit Set Quality     : GOOD
 Threshold Quality   : GOOD
 Integration Quality : GOOD
 Response Quality    : DEFAULT
 Is Range Separated  :  F
 
 RIHartreeFock Dependency: number of modified vectors:           4
  
 Hartree-Fock exchange energy:   -680.630728644317     

 Energy gradients wrt nuclear displacements
 ==========================================

     Atom      Cartesian (a.u./angstrom)
                 X         Y         Z
 ----------------------------------------
     1 Pa   -0.000570  0.000781 -0.002053
     2 O    -0.000804  0.000820  0.000981
     3 O     0.000578 -0.001567  0.001681
     4 I     0.000120  0.000076  0.000264
[...]
 Index  Atom      ---- Displacements (x/y/z) ----
     1    Pa      -0.005994  -0.016796   0.032880
     2     O      -0.253721  -0.038022  -0.324301
     3     O      -0.128063  -0.073890   0.044657
     4     I       0.038328   0.033507  -0.055876
     5     O       0.366998   0.174196   0.074763
     6     O      -0.156784  -0.067798   0.177122
     7     H      -0.157602  -0.114230   0.208771
     8     H      -0.066559  -0.052677   0.191720
     9     H      -0.397301  -0.048691  -0.512519
    10     H      -0.107715  -0.065791   0.051104
 
 Mode:     8      Frequency (cm-1):       64.1149     Intensity (km/mol):        1.3074
 Index  Atom      ---- Displacements (x/y/z) ----
     1    Pa       0.023764  -0.001588  -0.000313
     2     O       0.170273   0.114062   0.261766
     3     O      -0.248065  -0.119516  -0.145796
     4     I      -0.034187  -0.003621  -0.007184
     5     O       0.225823   0.113990   0.025005
     6     O      -0.194552  -0.052348  -0.078917
     7     H      -0.366605   0.015952   0.045071
     8     H      -0.001093  -0.101257  -0.096883
     9     H       0.304531   0.088624   0.408333
    10     H      -0.341344  -0.075136  -0.365169
 
 Mode:     9      Frequency (cm-1):       84.5261     Intensity (km/mol):        2.8579
 Index  Atom      ---- Displacements (x/y/z) ----
     1    Pa      -0.013535   0.040951   0.021497
     2     O       0.032462  -0.098505   0.041409
     3     O       0.211754   0.131325   0.186899
     4     I      -0.003640  -0.082141  -0.043090
     5     O       0.170559   0.007881  -0.006127
     6     O      -0.204933   0.017436  -0.191432
     7     H      -0.378721   0.166435  -0.118747
     8     H      -0.083807  -0.081476  -0.245411
     9     H       0.204558  -0.291056   0.086970
    10     H       0.488626   0.238872   0.287014
 
 Mode:    10      Frequency (cm-1):       92.6315     Intensity (km/mol):        4.3008
 Index  Atom      ---- Displacements (x/y/z) ----
     1    Pa       0.014824   0.010185  -0.039124
     2     O       0.040143   0.136665   0.048574
     3     O      -0.011048  -0.033542   0.251025
     4     I      -0.008876  -0.013948  -0.000933
     5     O      -0.030673  -0.072911  -0.062668
     6     O      -0.122162  -0.070318   0.245290
     7     H      -0.113001  -0.161754   0.296992
     8     H      -0.253284   0.158384   0.379356
     9     H       0.072873   0.241774   0.181718
    10     H      -0.023258  -0.180533   0.574923
 
 Mode:    11      Frequency (cm-1):      101.7135     Intensity (km/mol):        4.5585
 Index  Atom      ---- Displacements (x/y/z) ----
     1    Pa       0.031730   0.008071   0.011835
     2     O      -0.084745   0.100430  -0.119855
     3     O      -0.040703  -0.016867  -0.053414
     4     I       0.031866  -0.014670   0.021950
     5     O      -0.247392  -0.023038   0.014505
     6     O      -0.253265  -0.071611  -0.146912
     7     H      -0.420547   0.205528  -0.165441
     8     H      -0.351564  -0.187057  -0.225311
     9     H      -0.332859   0.310161  -0.246500
    10     H      -0.244695  -0.155755   0.011502
 
 Mode:    12      Frequency (cm-1):      126.8542     Intensity (km/mol):        4.2802
 Index  Atom      ---- Displacements (x/y/z) ----
     1    Pa       0.027623  -0.021699   0.025695
     2     O      -0.059261   0.231979   0.027192
     3     O       0.194059   0.053933  -0.070203
     4     I      -0.072759  -0.024399  -0.059760
     5     O      -0.028642   0.154204   0.086208
     6     O       0.065532   0.017956   0.052930
     7     H       0.098771   0.018200   0.016870
     8     H       0.125424  -0.070262   0.001911
     9     H      -0.381933   0.766129   0.094660
    10     H       0.262405   0.062668  -0.004393
 
 Mode:    13      Frequency (cm-1):      149.6600     Intensity (km/mol):       15.7380
 Index  Atom      ---- Displacements (x/y/z) ----
     1    Pa       0.053152   0.023038   0.023654
     2     O       0.066014  -0.191871  -0.071819
     3     O      -0.169794  -0.085046   0.113982
     4     I      -0.074434  -0.026517  -0.057075
     5     O      -0.146568   0.104802   0.058664
     6     O       0.081679   0.092030   0.006892
     7     H       0.139456   0.169831  -0.105320
     8     H      -0.005273  -0.017383  -0.066820
     9     H       0.151182  -0.464279  -0.207275
    10     H      -0.420545  -0.359470   0.434137
 
 Mode:    14      Frequency (cm-1):      165.1821     Intensity (km/mol):       34.2650
 Index  Atom      ---- Displacements (x/y/z) ----
     1    Pa       0.022740   0.028298   0.030239
     2     O      -0.036304   0.028724  -0.036909
     3     O      -0.015455   0.018832  -0.099197
     4     I      -0.037550  -0.021623  -0.033190
     5     O       0.054302  -0.322857  -0.085813
     6     O      -0.011638   0.019460   0.089872
     7     H       0.045046  -0.024847   0.063135
     8     H      -0.263299   0.224066   0.201341
     9     H      -0.014428  -0.154067  -0.170944
    10     H      -0.107686   0.250805  -0.750560
 
 Mode:    15      Frequency (cm-1):      233.9271     Intensity (km/mol):        6.0734
 Index  Atom      ---- Displacements (x/y/z) ----
     1    Pa      -0.000925  -0.030586  -0.007790
     2     O       0.045629  -0.065610   0.003259
     3     O       0.013397   0.004317  -0.045502
     4     I       0.012140   0.003457   0.010794
     5     O       0.041043  -0.038687  -0.000420
     6     O      -0.149636   0.445775   0.058808
     7     H       0.073745   0.396648  -0.138963
     8     H      -0.255011   0.384984   0.014855
     9     H      -0.259746   0.465217   0.090292
    10     H      -0.088843  -0.158533   0.204204
 
 Mode:    16      Frequency (cm-1):      251.7444     Intensity (km/mol):       85.1902
 Index  Atom      ---- Displacements (x/y/z) ----
     1    Pa      -0.005434   0.012974   0.005286
     2     O       0.061733  -0.088462   0.030173
     3     O      -0.000747   0.048566  -0.072808
     4     I      -0.001899  -0.001980  -0.002914
     5     O       0.050472  -0.059566  -0.025402
     6     O       0.022510  -0.072135  -0.009861
     7     H      -0.007652  -0.121118   0.054977
     8     H       0.109478  -0.043613   0.013303
     9     H      -0.508393   0.487386  -0.175070
    10     H      -0.234901  -0.324191   0.498248
 
 Mode:    17      Frequency (cm-1):      263.9090     Intensity (km/mol):       16.4435
 Index  Atom      ---- Displacements (x/y/z) ----
     1    Pa      -0.002427   0.003336   0.000211
     2     O      -0.000953  -0.015259  -0.013188
     3     O      -0.002601   0.003737  -0.003184
     4     I       0.000241  -0.001429   0.002019
     5     O       0.029997   0.012887  -0.001693
     6     O       0.018479  -0.044701   0.018572
     7     H       0.412782   0.125444  -0.482647
     8     H      -0.662976  -0.164569  -0.101951
     9     H       0.089070   0.160783   0.253960
    10     H      -0.025800  -0.018726   0.020020
 
 Mode:    18      Frequency (cm-1):      295.2910     Intensity (km/mol):       84.8224
 Index  Atom      ---- Displacements (x/y/z) ----
     1    Pa       0.000807   0.004385   0.002264
     2     O      -0.015945  -0.069502  -0.077340
     3     O       0.007726  -0.001285   0.032612
     4     I      -0.000055  -0.000586  -0.001584
     5     O      -0.010927  -0.005726   0.000162
     6     O       0.002002  -0.008347  -0.013823
     7     H      -0.127703  -0.068655   0.154500
     8     H       0.243628   0.021850   0.020976
     9     H       0.220829   0.472136   0.694569
    10     H      -0.242707  -0.009930  -0.262852
 
 Mode:    19      Frequency (cm-1):      306.0096     Intensity (km/mol):      186.1582
 Index  Atom      ---- Displacements (x/y/z) ----
     1    Pa       0.002236  -0.001888   0.006701
     2     O      -0.071959   0.052466  -0.031092
     3     O       0.007816   0.036679  -0.121067
     4     I      -0.001320   0.000866  -0.001565
     5     O       0.012533  -0.041967  -0.001601
     6     O      -0.000294   0.007299   0.001186
     7     H      -0.072385   0.018991   0.063869
     8     H       0.037995   0.039941   0.024289
     9     H       0.491784  -0.313722   0.350693
    10     H       0.020052  -0.285967   0.643630
 
 Mode:    20      Frequency (cm-1):      361.8014     Intensity (km/mol):      178.3124
 Index  Atom      ---- Displacements (x/y/z) ----
     1    Pa      -0.004582  -0.004108  -0.002924
     2     O      -0.015161   0.034678   0.027618
     3     O       0.101544   0.041903   0.028915
     4     I       0.001803  -0.000297   0.000717
     5     O       0.019416   0.020703   0.003710
     6     O      -0.007757   0.006143   0.001731
     7     H       0.062198  -0.029301  -0.043442
     8     H      -0.010349  -0.016439  -0.012772
     9     H       0.059435  -0.250361  -0.129310
    10     H      -0.843985  -0.366145  -0.217873
 
 Mode:    21      Frequency (cm-1):      424.2646     Intensity (km/mol):      326.0041
 Index  Atom      ---- Displacements (x/y/z) ----
     1    Pa       0.001284   0.002806   0.000912
     2     O       0.015633   0.014934  -0.016516
     3     O      -0.009363   0.006651  -0.002619
     4     I      -0.000262  -0.001572   0.000908
     5     O      -0.008964  -0.025795  -0.018528
     6     O      -0.081325   0.028936   0.049448
     7     H       0.457860  -0.315709  -0.251267
     8     H       0.517990  -0.522165  -0.261123
     9     H       0.052883  -0.029032  -0.007992
    10     H       0.043211   0.029274   0.009870
 
 Mode:    22      Frequency (cm-1):      512.8357     Intensity (km/mol):       54.5731
 Index  Atom      ---- Displacements (x/y/z) ----
     1    Pa      -0.002010  -0.000977  -0.002742
     2     O      -0.000146  -0.001086   0.005377
     3     O      -0.000650   0.010038   0.004550
     4     I      -0.000531   0.001947   0.000555
     5     O       0.011991  -0.019904  -0.032075
     6     O       0.043075  -0.001311   0.073191
     7     H      -0.384348   0.696056   0.033886
     8     H       0.092466  -0.530988  -0.255836
     9     H      -0.010819   0.002285  -0.004952
    10     H      -0.030942   0.005990  -0.024345
 
 Mode:    23      Frequency (cm-1):      577.1517     Intensity (km/mol):      226.7696
 Index  Atom      ---- Displacements (x/y/z) ----
     1    Pa      -0.045391   0.022988   0.023351
     2     O       0.373408   0.134807  -0.267696
     3     O       0.216512  -0.416318  -0.069271
     4     I       0.001122  -0.000737  -0.001099
     5     O       0.018510  -0.024902   0.024387
     6     O       0.013210  -0.001117  -0.002060
     7     H      -0.100464   0.109898   0.039288
     8     H      -0.045347   0.013937   0.003488
     9     H       0.399289   0.075446  -0.287650
    10     H       0.144894  -0.495438   0.023756
 
 Mode:    24      Frequency (cm-1):      620.2842     Intensity (km/mol):      186.0124
 Index  Atom      ---- Displacements (x/y/z) ----
     1    Pa       0.012424   0.044167  -0.020504
     2     O      -0.361207  -0.153619   0.260227
     3     O       0.184296  -0.438263  -0.049262
     4     I       0.002248   0.000713   0.002884
     5     O       0.000715  -0.032319   0.039101
     6     O      -0.021035   0.021530   0.017011
     7     H       0.085343  -0.011251  -0.063082
     8     H       0.115318  -0.140323  -0.078233
     9     H      -0.424191  -0.065386   0.266582
    10     H       0.222495  -0.432948  -0.026682
 
 Mode:    25      Frequency (cm-1):      863.6692     Intensity (km/mol):      295.5269
 Index  Atom      ---- Displacements (x/y/z) ----
     1    Pa      -0.003969   0.015797  -0.060182
     2     O       0.045500   0.015129  -0.026980
     3     O      -0.036062   0.080985   0.020441
     4     I      -0.001694  -0.001270  -0.001175
     5     O       0.054336  -0.296641   0.885207
     6     O       0.006840  -0.021467   0.014167
     7     H      -0.040402   0.161321  -0.053548
     8     H       0.070403  -0.218750  -0.101123
     9     H       0.021343   0.023738  -0.057452
    10     H      -0.048891   0.095409  -0.013568
 
 Mode:    26      Frequency (cm-1):     1598.3296     Intensity (km/mol):       78.8882
 Index  Atom      ---- Displacements (x/y/z) ----
     1    Pa       0.000066  -0.000042  -0.000121
     2     O      -0.000187   0.000207  -0.000022
     3     O      -0.000037  -0.000024   0.000042
     4     I       0.000118  -0.000019  -0.000092
     5     O       0.000998  -0.001194   0.001460
     6     O       0.035799   0.060020  -0.011079
     7     H      -0.157602  -0.500148   0.493280
     8     H      -0.453248  -0.424283  -0.302037
     9     H       0.000178  -0.000042   0.000188
    10     H       0.000290  -0.000157   0.000276
 
 Mode:    27      Frequency (cm-1):     3692.6092     Intensity (km/mol):       54.3769
 Index  Atom      ---- Displacements (x/y/z) ----
     1    Pa       0.000041  -0.000073   0.000016
     2     O      -0.000101   0.000023   0.000043
     3     O      -0.000156   0.000200   0.000013
     4     I      -0.000024  -0.000047  -0.000040
     5     O      -0.000054   0.000227   0.000057
     6     O      -0.036543  -0.034077  -0.017729
     7     H       0.577368   0.371671   0.616319
     8     H      -0.000925   0.184763  -0.334220
     9     H       0.001232   0.000851  -0.000722
    10     H       0.000730  -0.001061  -0.000396
 
 Mode:    28      Frequency (cm-1):     3821.6102     Intensity (km/mol):      145.6559
 Index  Atom      ---- Displacements (x/y/z) ----
     1    Pa      -0.000012  -0.000004  -0.000018
     2     O      -0.000172  -0.000153   0.000157
     3     O       0.000084  -0.000107  -0.000033
     4     I       0.000005   0.000021   0.000010
     5     O       0.000033  -0.000103   0.000334
     6     O       0.012459  -0.020096   0.063864
     7     H      -0.238329  -0.166317  -0.226457
     8     H       0.041601   0.484094  -0.789621
     9     H       0.003563   0.002598  -0.003076
    10     H      -0.001500   0.002563   0.001065
 
 Mode:    29      Frequency (cm-1):     3874.2077     Intensity (km/mol):      240.0018
 Index  Atom      ---- Displacements (x/y/z) ----
     1    Pa       0.000010  -0.000000  -0.000000
     2     O       0.042915   0.030136  -0.034441
     3     O       0.002900  -0.005386  -0.002333
     4     I      -0.000011  -0.000007  -0.000008
     5     O      -0.000117  -0.000065   0.000210
     6     O       0.000041  -0.000246   0.000261
     7     H      -0.000320  -0.000028   0.000084
     8     H      -0.000064   0.002791  -0.004421
     9     H      -0.678505  -0.478240   0.543412
    10     H      -0.048021   0.088610   0.038163
 
 Mode:    30      Frequency (cm-1):     3885.3985     Intensity (km/mol):      224.2742
 Index  Atom      ---- Displacements (x/y/z) ----
     1    Pa       0.000004   0.000007  -0.000005
     2     O      -0.004888  -0.003282   0.003880
     3     O       0.028088  -0.051711  -0.022039
     4     I       0.000013   0.000011   0.000012
     5     O      -0.000055   0.000185  -0.000314
     6     O      -0.000124   0.000078  -0.000230
     7     H       0.001872   0.000815   0.001598
     8     H       0.000133  -0.001846   0.002224
     9     H       0.073364   0.051596  -0.058829
    10     H      -0.443250   0.815143   0.351499

PES point character: Geometry corresponds to a local minimum on the PES.




 ============================
 Statistical Thermal Analysis  ***  ideal gas assumed  ***
 ============================
  
 Pressure:                  1.000000 atm.
 Temperature:             298.150000 K



 Moments of Inertia [amu*bohr^2] and principal axis
 ==================================================

        1102.0634       3630.6782       3972.6767
 ------------------------------------------------
           0.6805         -0.4855         -0.5488
           0.4175          0.8724         -0.2541
           0.6021         -0.0562          0.7964


 The rotational contribution to the molecular entropy includes
 a term, dependent on the symmetry number sigma. The results 
 reported below were computed using sigma = 1, determined from
 the point group symmetry of the input geometry (NOSYM). 
 If this is not the correct symmetry, try symmetrizing the molecule before
 running the calculation (note: linear molecules should be aligned along one
 of the Cartesian axes).
 Contributions from frequencies below 20 1/cm are not included in vibrational sums.
 Their contributions, if any, are reported separately.


     Temp                                                        Transl      Rotat     Vibrat     Total
     ----                                                        ------      -----     ------     -----

     298.15   Entropy (cal/mol-K):                               44.038     31.142     39.535    114.715
              Nuclear Internal Energy (kcal/mol):                 0.889      0.889     37.927     39.704
              Constant Volume Heat Capacity (cal/mol-K):          2.981      2.981     31.019     36.981
          (c) Constant Volume Heat Capacity (cal/mol-K):          2.981      2.981     27.052     33.013

       Summary of energy terms
                                                   hartree              eV         kcal/mol           kJ/mol
                                      --------------------     -----------       ----------      -----------
      Energy from Engine:               -2.587881732880907        -70.4198         -1623.92         -6794.48
      Nuclear Internal Energy:           0.063273106128472          1.7217            39.70           166.12
  (c) Nuclear Internal Energy:           0.061238040349914          1.6664            38.43           160.78
      Internal Energy U:                -2.524608626752435        -68.6981         -1584.22         -6628.36
      pV/n = RT:                         0.000944186013486          0.0257             0.59             2.48
      Enthalpy H:                       -2.523664440738949        -68.6724         -1583.62         -6625.88
      -T*S:                             -0.054504750679522         -1.4831           -34.20          -143.10
  (c) -T*S:                             -0.052988877592873         -1.4419           -33.25          -139.12
      Gibbs free energy:                -2.578169191418470        -70.1556         -1617.83         -6768.98
 
 
 
  (c) The properties marked with this symbol have been corrected using 'low vibrational frequency free rotor
      interpolation corrections'. For those terms all positive frequencies are used (also ones below 20 1/cm),
      but the contribution to the partition function of small vibrational frequencies is modified as described
      in the following paper:
      S. Grimme, 'Supramolecular Binding Thermodynamics by Dispersion-Corrected Density Functional Theory'
      (Chem. Eur. J. 2012, 18, 9955-9964)
      Configuration: Dampener Frequency          :   100.000 1/cm
                     Dampener Alpha              :     4.000
                     Averaging Moment of Inertia : 1.000E-44 kg m2

--------------
Atomic charges
--------------
  Index   Atom    Charge
      1     Pa    2.3033
      2      O   -0.6069
      3      O   -0.6071
      4      I   -0.4811
      5      O   -0.7128
      6      O   -0.4124
      7      H    0.2222
      8      H    0.2296
      9      H    0.0353
     10      H    0.0300


Dipole moment vector    (Debye):     2.73848089    0.21460817    0.40157371
              magnitude (Debye):     2.77607559


Final PES point is a local minimum. Geometry optimization successful!


AMS application finished. Exiting.
NORMAL TERMINATION
     Total cpu time:  121269.62
  Total system time:   92018.37
 Total elapsed time:  234915.68
 WARNING: total system time is high compared to CPU time. 
 Make sure the machine is not oversubscribed and has enough memory, SCM_TMPDIR p
 oints to a fast file system, and the network is fast enough.
