

 Parallel Execution: Process Information
 ==============================================================================
 Rank   Node Name                              NodeID   MyNodeRank  NodeMaster
    0   u-0-10.local                              0          0          0
    1   u-0-10.local                              0          1         -1
    2   u-0-10.local                              0          2         -1
    3   u-0-10.local                              0          3         -1
    4   u-0-10.local                              1          0          1
    5   u-0-10.local                              1          1         -1
    6   u-0-10.local                              1          2         -1
    7   u-0-10.local                              1          3         -1
 ==============================================================================


May use up to 62450MB of RAM as shared memory on node 0
May use up to 124950MB of RAM as shared memory on node 1

 *******************************************************************************
 *                                                                             *
 *  --------------------------------                                           *
 *   Amsterdam Modeling Suite (AMS)              2023.101                      *
 *  --------------------------------                                           *
 *                                               r111868 2023-03-31            *
 *                                                                             *
 *                                                                             *
 *                              =================                              *
 *                              |               |                              *
 *                              |     A M S     |                              *
 *                              |               |                              *
 *                              =================                              *
 *                                                                             *
 *                                                                             *
 *   Online information and documentation:  https://www.scm.com/support/       *
 *   E-mail:  support@scm.com   info@scm.com                                   *
 *                                                                             *
 *   Scientific publications using AMS results must be properly referenced     *
 *   See the User Manuals (or the web site) for recommended citations          *
 *   The terms and conditions of the End User License Agreement apply to       *
 *   the use of AMS, https://www.scm.com/license-terms/                        *
 *                                                                             *
 **********************  x86_64_linux_intel / intelmpi  ************************
 
 Licensed to: Dr. Val?rie Vallet / Laboratoire PhLAM UMR 8523 / Villeneuve d'Ascq Cedex / FRANCE 2023-03-27 15:45:49
 SCM User ID: u10325
  
 AMS 2023.101  RunTime: Nov19-2023 22:17:37  ShM Nodes: 2  Procs: 8

 AMS jobname: pa_oh4_so4.SO.b3lyp.tz2p.sp-B21-gp-2
 AMS jobid  : 1848971517

 Start   directory: /home/shaaban/ams/PhD/sulfate/pa_oh4_so4/solvation/B21/SP-SR-SO-GP/
 Results directory: /home/shaaban/ams/PhD/sulfate/pa_oh4_so4/solvation/B21/SP-SR-SO-GP/pa_oh4_so4.SO.b3lyp.tz2p.sp-B21-gp-2.results/
 Scratch directory: /state/partition2/shaaban/985818.phlam-s-sakura/amstmp_pa_oh4_so4.SO.b3lyp.tz2p.sp-B21-gp-2_kid0.1848971517/


 Communication costs MPI_COMM_WORLD:      1.202 usec per message,   0.0115 usec per 8-byte item
 Communication costs for intra-node:      0.482 usec per message,   0.0055 usec per 8-byte item

 RNG seed: -1955869136 394602078 -207281149 1107091938 -1662578908 1189884457 -542839671 1664863474



                      ************************************************************************
                      *  ADF 2023.101  RunTime: Nov19-2023 22:17:38  ShM Nodes: 2  Procs: 8  *
                      ************************************************************************
  

       ****************************
       * SINGLE POINT CALCULATION *
       ****************************
 
--------
Geometry
--------
Formula: H4O8PaS
Atoms
  Index Symbol   x (angstrom)   y (angstrom)   z (angstrom)
      1     Pa     0.41989550    -0.14753771    -0.21981682
      2      O     1.02536731     1.36274637    -1.56785609
      3      H     1.45341868     2.22701234    -1.53144668
      4      O    -1.08674480     1.12529908     0.60755909
      5      H    -1.35855389     2.02056962     0.37275461
      6      O    -0.41964308    -1.22577966    -1.85819641
      7      H    -0.85480627    -2.08287560    -1.93523578
      8      O    -0.16527977    -1.65341401     1.14298842
      9      H     0.02802061    -2.58375787     1.31217252
     10      O     2.32502220     0.32946753     1.13787530
     11      O     2.51256532    -1.29779027    -0.54999149
     12      S     3.36155246    -0.63643846     0.54202459
     13      O     4.46789021     0.10531679    -0.04683769
     14      O     3.77325233    -1.61723952     1.53679997
 
Total System Charge            -1.00000
Bonding info available!
 
 
----------------
ADF Engine Input
----------------
 
 Basis
 Type TZ2P
 Core None
 End
 XC
 Hybrid B3LYP
 End
 Relativity
 Level Spin-Orbit
 End
 NumericalQuality Good
 

 Title: *** (NO TITLE) ***

 *** adf ***



 ===========================
 A T T A C H E D   F I L E S
 ===========================
  



 ===============================
 M O D E L   P A R A M E T E R S
 ===============================
  
 DENSITY FUNCTIONAL POTENTIAL (scf)
    Hybrid:                            B3LYP                                   == Not Default ==

 SPIN  (restricted / unrestr.)
    Molecule:                          Restricted                               
    Fragments:                         Restricted                               

 OTHER ASPECTS
    Relativistic Corrections:          Spin-Orbit (ZORA,MAPA)                  == Not Default ==

    Nuclear Charge Density Model:      Point Charge Nuclei                      
    Core Treatment:                    Frozen Orbital(s)                        

    Hyperfine or Zeeman Interaction:   ---                                      


 Fragment File(s)
 ----------------
 Pa:
         file : /home/shaaban/ams/PhD/sulfate/pa_oh4_so4/solvation/B21/SP-SR-SO-GP/pa_oh4_so4.SO.b3lyp.tz2p.sp-B21-gp-2.results/t21.376DF1AB.Pa
         jobid: 0
         title: Protactinium (TZ2P, all electron)
 O:
         file : /home/shaaban/ams/PhD/sulfate/pa_oh4_so4/solvation/B21/SP-SR-SO-GP/pa_oh4_so4.SO.b3lyp.tz2p.sp-B21-gp-2.results/t21.6BA271D4.O
         jobid: 0
         title: Oxygen (TZ2P)
 H:
         file : /home/shaaban/ams/PhD/sulfate/pa_oh4_so4/solvation/B21/SP-SR-SO-GP/pa_oh4_so4.SO.b3lyp.tz2p.sp-B21-gp-2.results/t21.1FC863BF.H
         jobid: 0
         title: Hydrogen (TZ2P)
 S:
         file : /home/shaaban/ams/PhD/sulfate/pa_oh4_so4/solvation/B21/SP-SR-SO-GP/pa_oh4_so4.SO.b3lyp.tz2p.sp-B21-gp-2.results/t21.1D38E0E5.S
         jobid: 0
         title: Sulphur (TZ2P)



 ===============
 G E O M E T R Y  ***  3D  Molecule  ***
 ===============
  

 ATOMS
 =====                            X Y Z                    CHARGE
                                (Angstrom)             Nucl     +Core       At.Mass
                       --------------------------    ----------------       -------
    1  Pa              0.4199   -0.1475   -0.2198     91.00     91.00      231.0359
    2  O               1.0254    1.3627   -1.5679      8.00      8.00       15.9949
    3  H               1.4534    2.2270   -1.5314      1.00      1.00        1.0078
    4  O              -1.0867    1.1253    0.6076      8.00      8.00       15.9949
    5  H              -1.3586    2.0206    0.3728      1.00      1.00        1.0078
    6  O              -0.4196   -1.2258   -1.8582      8.00      8.00       15.9949
    7  H              -0.8548   -2.0829   -1.9352      1.00      1.00        1.0078
    8  O              -0.1653   -1.6534    1.1430      8.00      8.00       15.9949
    9  H               0.0280   -2.5838    1.3122      1.00      1.00        1.0078
   10  O               2.3250    0.3295    1.1379      8.00      8.00       15.9949
   11  O               2.5126   -1.2978   -0.5500      8.00      8.00       15.9949
   12  S               3.3616   -0.6364    0.5420     16.00     16.00       31.9721
   13  O               4.4679    0.1053   -0.0468      8.00      8.00       15.9949
   14  O               3.7733   -1.6172    1.5368      8.00      8.00       15.9949


 FRAGMENTS
 =========                                     Atoms in this Fragment     Cart. coord.s (Angstrom)
                                               -------------------------------------------------------
    1  Pa                                                1  Pa           0.4199   -0.1475   -0.2198
    2  O                                                 2  O            1.0254    1.3627   -1.5679
    3  O                                                 4  O           -1.0867    1.1253    0.6076
    4  O                                                 6  O           -0.4196   -1.2258   -1.8582
    5  O                                                 8  O           -0.1653   -1.6534    1.1430
    6  O                                                10  O            2.3250    0.3295    1.1379
    7  O                                                11  O            2.5126   -1.2978   -0.5500
    8  O                                                13  O            4.4679    0.1053   -0.0468
    9  O                                                14  O            3.7733   -1.6172    1.5368
   10  H                                                 3  H            1.4534    2.2270   -1.5314
   11  H                                                 5  H           -1.3586    2.0206    0.3728
   12  H                                                 7  H           -0.8548   -2.0829   -1.9352
   13  H                                                 9  H            0.0280   -2.5838    1.3122
   14  S                                                12  S            3.3616   -0.6364    0.5420


 Interatomic Distance Matrix (Angstrom)
 --------------------------------------

   1)     0.000
   2)     2.113   0.000
   3)     2.903   0.965   0.000
   4)     2.139   3.041   3.499   0.000
   5)     2.866   3.144   3.402   0.965   0.000
   6)     2.133   2.979   3.942   3.472   4.049   0.000
   7)     2.883   3.942   4.906   4.100   4.735   0.964   0.000
   8)     2.114   4.227   4.983   2.976   3.939   3.042   3.184   0.000
   9)     2.904   4.986   5.767   3.937   4.899   3.478   3.402   0.965   0.000
  10)     2.388   3.175   3.389   3.543   4.125   4.351   5.037   3.183   3.714   0.000
  11)     2.411   3.213   3.809   4.491   5.182   3.212   3.725   3.188   3.361   2.352
          0.000
  12)     3.078   3.729   4.017   4.785   5.419   4.517   5.100   3.719   3.937   1.537
          1.533   0.000
  13)     4.060   3.968   3.974   5.685   6.147   5.380   6.057   5.097   5.366   2.459
          2.459   1.456   0.000
  14)     4.061   5.106   5.438   5.657   6.397   5.409   5.804   3.958   3.874   2.459
          2.459   1.456   2.441   0.000

 Min. Distance =    0.9643
 Max. Distance =    6.3972



 =====================================
 S Y M M E T R Y ,   E L E C T R O N S
 =====================================
  
 Symmetry: NOSYM

 Double Group Irreducible Representations (spinor symmetry)
 -----------------------------------------------------------
 A1/2

 Symmetry is NOT used when fitting density


 Configuration of Valence Electrons
 ==================================
 ( determined in the SCF procedure )

 Total:   176

 Net Charge: -1 (Nuclei minus Electrons)

 Aufbau principle for MO occupations will be applied through SCF cycle no.     150
 Thereafter, the program will assign electrons to MOs that are spatially
 similar to the occupied MOs in a "reference" cycle ("KeepOrbitals").
 The reference cycle is always the PREVIOUS cycle: it will evolve with
 the SCF procedure.
1
 ***************************************************************************************************



                                      ****************************************
                                      *  B U I L D : (Fragments, Functions)  *
                                      ****************************************
  



 =======
 S F O s  ***  (Symmetrized Fragment Orbitals)  ***
 =======
  
 SFOs are linear combinations of (valence) Fragment Orbitals (FOs), such that the SFOs transform as the
 irreducible representations of the (molecular) symmetry group. Each SFO is therefore characterized by
 an irrep of the molecule and by a few (or only one) generating FOs.
 The SFOs constitute a symmetry-adapted basis for the Fock matrix. The MO eigenvector coefficients in
 this basis provide a direct interpretation of the MOs in terms of Frontier Orbital Theory.

 The SFOs are combined with auxiliary Core Functions (CFs) to ensure orthogonalization on the (frozen)
 Core Orbitals (COs). The Core-orthogonalized SFOs (CSFOs) constitute the true Fock basis.

 The FOs, and hence also the (C)SFOs are combinations of the elementary basis functions (BAS). The basis
 functions that participate in the description of the SFOs depend on the irrep. The indices of the
 involved functions are printed below for each irrep.
 (The complete list of primitive basis functions is printed in another section)

 Total nr. of (C)SFOs (summation over all irreps) :   421

 NOTE: a (C)SFO that is defined as a combination of more than one FO is usually NOT normalized.

 NOTE: the (C)SFOs are single group symmetry adapted orbitals.



                                       === A ===
 Nr. of SFOs :  421
 Cartesian basis functions that participate in this irrep (total number =   485) :
      1     2     3     4     5     6     7     8     9    10
     11    12    13    14    15    16    17    20    23    26
     29    32    35    38    41    44    47    50   157    18
     21    24    27    30    33    36    39    42    45    48
     51   158    19    22    25    28    31    34    37    40
     43    46    49    52   159    53    59    65    71    77
     83    89    95   101    54    60    66    72    78    84
     90    96   102    55    61    67    73    79    85    91
     97   103    56    62    68    74    80    86    92    98
    104    57    63    69    75    81    87    93    99   105
     58    64    70    76    82    88    94   100   106   107
    117   127   137   147   108   118   128   138   148   109
    119   129   139   149   110   120   130   140   150   111
    121   131   141   151   112   122   132   142   152   113
    123   133   143   153   114   124   134   144   154   115
    125   135   145   155   116   126   136   146   156   160
    161   162   163   164   165   168   171   166   169   172
    167   170   173   174   175   176   177   178   179   180
    181   182   183   184   185   186   187   188   189   190
    191   192   193   194   195   198   201   196   199   202
    197   200   203   204   205   206   207   208   209   210
    211   212   213   214   215   216   217   218   219   220
    221   222   223   224   225   228   231   226   229   232
    227   230   233   234   235   236   237   238   239   240
    241   242   243   244   245   246   247   248   249   250
    251   252   253   254   255   258   261   256   259   262
    257   260   263   264   265   266   267   268   269   270
    271   272   273   274   275   276   277   278   279   280
    281   282   283   284   285   288   291   286   289   292
    287   290   293   294   295   296   297   298   299   300
    301   302   303   304   305   306   307   308   309   310
    311   312   313   314   315   318   321   316   319   322
    317   320   323   324   325   326   327   328   329   330
    331   332   333   334   335   336   337   338   339   340
    341   342   343   344   345   348   351   346   349   352
    347   350   353   354   355   356   357   358   359   360
    361   362   363   364   365   366   367   368   369   370
    371   372   373   374   375   378   381   376   379   382
    377   380   383   384   385   386   387   388   389   390
    391   392   393   394   395   396   397   398   399   400
    401   402   403   404   405   406   407   408   409   410
    411   412   413   414   415   416   417   418   419   420
    421   422   423   424   425   426   427   428   429   430
    431   432   433   434   435   436   437   438   439   440
    441   442   443   444   445   446   447   448   449   450
    451   458   459   460   452   455   461   464   467   453
    456   462   465   468   454   457   463   466   469   470
    471   472   473   474   475   476   477   478   479   480
    481   482   483   484   485

    SFO  (index         Fragment          Generating    Expansion in Fragment Orbitals
  indx  incl.CFs)   Occup   Orb.Energy   FragmentType  Coeff.   Orbital     on Fragment
 --------------------------------------------------------------------------------------
     1       1      2.000   -4140.144 au  Pa            1.00      1 S               1
                        ( -112659.040 eV)
     2       2      2.000    -772.390 au  Pa            1.00      2 S               1
                        (  -21017.794 eV)
     3       3      2.000    -195.003 au  Pa            1.00      3 S               1
                        (   -5306.298 eV)
     4       4      2.000     -49.664 au  Pa            1.00      4 S               1
                        (   -1351.436 eV)
     5       5      2.000     -11.057 au  Pa            1.00      5 S               1
                        (    -300.888 eV)
     6       6      2.000      -1.766 au  Pa            1.00      6 S               1
                        (     -48.049 eV)
     7       7      2.000      -0.167 au  Pa            1.00      7 S               1
                        (      -4.550 eV)
     8       8       --         0.031 au  Pa            1.00      8 S               1
                        (       0.841 eV)
     9       9       --         0.336 au  Pa            1.00      9 S               1
                        (       9.133 eV)
    10      10       --         1.674 au  Pa            1.00     10 S               1
                        (      45.549 eV)
    11      11       --         8.680 au  Pa            1.00     11 S               1
                        (     236.196 eV)
    12      12       --        46.308 au  Pa            1.00     12 S               1
                        (    1260.118 eV)
    13      13       --      1052.293 au  Pa            1.00     13 S               1
                        (   28634.347 eV)
    14      14       --      5423.866 au  Pa            1.00     14 S               1
                        (  147590.909 eV)
    15      15       --     16326.809 au  Pa            1.00     15 S               1
                        (  444275.077 eV)
    16      16       --     46434.730 au  Pa            1.00     16 S               1
                        ( 1263553.301 eV)
    17      17      2.000    -644.804 au  Pa            1.00      1 P:x             1
                        (  -17546.004 eV)
    18      18      2.000    -159.382 au  Pa            1.00      2 P:x             1
                        (   -4336.995 eV)
    19      19      2.000     -38.001 au  Pa            1.00      3 P:x             1
                        (   -1034.059 eV)
    20      20      2.000      -7.452 au  Pa            1.00      4 P:x             1
                        (    -202.774 eV)
    21      21      2.000      -0.880 au  Pa            1.00      5 P:x             1
                        (     -23.949 eV)
    22      22       --        -0.008 au  Pa            1.00      6 P:x             1
                        (      -0.215 eV)
    23      23       --         0.404 au  Pa            1.00      7 P:x             1
                        (      10.994 eV)
    24      24       --         1.850 au  Pa            1.00      8 P:x             1
                        (      50.342 eV)
    25      25       --         7.570 au  Pa            1.00      9 P:x             1
                        (     205.994 eV)
    26      26       --        35.931 au  Pa            1.00     10 P:x             1
                        (     977.731 eV)
    27      27       --       178.469 au  Pa            1.00     11 P:x             1
                        (    4856.387 eV)
    28      28       --      1509.400 au  Pa            1.00     12 P:x             1
                        (   41072.871 eV)
    29      29       --     10783.504 au  Pa            1.00     13 P:x             1
                        (  293434.081 eV)
    30      30      2.000    -644.804 au  Pa            1.00      1 P:y             1
                        (  -17546.004 eV)
    31      31      2.000    -159.382 au  Pa            1.00      2 P:y             1
                        (   -4336.995 eV)
    32      32      2.000     -38.001 au  Pa            1.00      3 P:y             1
                        (   -1034.059 eV)
    33      33      2.000      -7.452 au  Pa            1.00      4 P:y             1
                        (    -202.774 eV)
    34      34      2.000      -0.880 au  Pa            1.00      5 P:y             1
                        (     -23.949 eV)
    35      35       --        -0.008 au  Pa            1.00      6 P:y             1
                        (      -0.215 eV)
    36      36       --         0.404 au  Pa            1.00      7 P:y             1
                        (      10.994 eV)
    37      37       --         1.850 au  Pa            1.00      8 P:y             1
                        (      50.342 eV)
    38      38       --         7.570 au  Pa            1.00      9 P:y             1
                        (     205.994 eV)
    39      39       --        35.931 au  Pa            1.00     10 P:y             1
                        (     977.731 eV)
    40      40       --       178.469 au  Pa            1.00     11 P:y             1
                        (    4856.387 eV)
    41      41       --      1509.400 au  Pa            1.00     12 P:y             1
                        (   41072.871 eV)
    42      42       --     10783.504 au  Pa            1.00     13 P:y             1
                        (  293434.081 eV)
    43      43      2.000    -644.804 au  Pa            1.00      1 P:z             1
                        (  -17546.004 eV)
    44      44      2.000    -159.382 au  Pa            1.00      2 P:z             1
                        (   -4336.995 eV)
    45      45      2.000     -38.001 au  Pa            1.00      3 P:z             1
                        (   -1034.059 eV)
    46      46      2.000      -7.452 au  Pa            1.00      4 P:z             1
                        (    -202.774 eV)
    47      47      2.000      -0.880 au  Pa            1.00      5 P:z             1
                        (     -23.949 eV)
    48      48       --        -0.008 au  Pa            1.00      6 P:z             1
                        (      -0.215 eV)
    49      49       --         0.404 au  Pa            1.00      7 P:z             1
                        (      10.994 eV)
    50      50       --         1.850 au  Pa            1.00      8 P:z             1
                        (      50.342 eV)
    51      51       --         7.570 au  Pa            1.00      9 P:z             1
                        (     205.994 eV)
    52      52       --        35.931 au  Pa            1.00     10 P:z             1
                        (     977.731 eV)
    53      53       --       178.469 au  Pa            1.00     11 P:z             1
                        (    4856.387 eV)
    54      54       --      1509.400 au  Pa            1.00     12 P:z             1
                        (   41072.871 eV)
    55      55       --     10783.504 au  Pa            1.00     13 P:z             1
                        (  293434.081 eV)
    56      56      2.000    -127.750 au  Pa            1.00      1 D:z2            1
                        (   -3476.261 eV)
    57      57      2.000     -25.974 au  Pa            1.00      2 D:z2            1
                        (    -706.779 eV)
    58      58      2.000      -3.548 au  Pa            1.00      3 D:z2            1
                        (     -96.540 eV)
    59      59      0.200      -0.066 au  Pa            1.00      4 D:z2            1
                        (      -1.808 eV)
    60      60       --         0.084 au  Pa            1.00      5 D:z2            1
                        (       2.281 eV)
    61      61       --         0.569 au  Pa            1.00      6 D:z2            1
                        (      15.477 eV)
    62      62       --         3.594 au  Pa            1.00      7 D:z2            1
                        (      97.805 eV)
    63      63       --        24.986 au  Pa            1.00      8 D:z2            1
                        (     679.903 eV)
    64      64       --       204.782 au  Pa            1.00      9 D:z2            1
                        (    5572.393 eV)
    65      65      2.000    -127.750 au  Pa            1.00      1 D:x2-y2         1
                        (   -3476.261 eV)
    66      66      2.000     -25.974 au  Pa            1.00      2 D:x2-y2         1
                        (    -706.779 eV)
    67      67      2.000      -3.548 au  Pa            1.00      3 D:x2-y2         1
                        (     -96.540 eV)
    68      68      0.200      -0.066 au  Pa            1.00      4 D:x2-y2         1
                        (      -1.808 eV)
    69      69       --         0.084 au  Pa            1.00      5 D:x2-y2         1
                        (       2.281 eV)
    70      70       --         0.569 au  Pa            1.00      6 D:x2-y2         1
                        (      15.477 eV)
    71      71       --         3.594 au  Pa            1.00      7 D:x2-y2         1
                        (      97.805 eV)
    72      72       --        24.986 au  Pa            1.00      8 D:x2-y2         1
                        (     679.903 eV)
    73      73       --       204.782 au  Pa            1.00      9 D:x2-y2         1
                        (    5572.393 eV)
    74      74      2.000    -127.750 au  Pa            1.00      1 D:xy            1
                        (   -3476.261 eV)
    75      75      2.000     -25.974 au  Pa            1.00      2 D:xy            1
                        (    -706.779 eV)
    76      76      2.000      -3.548 au  Pa            1.00      3 D:xy            1
                        (     -96.540 eV)
    77      77      0.200      -0.066 au  Pa            1.00      4 D:xy            1
                        (      -1.808 eV)
    78      78       --         0.084 au  Pa            1.00      5 D:xy            1
                        (       2.281 eV)
    79      79       --         0.569 au  Pa            1.00      6 D:xy            1
                        (      15.477 eV)
    80      80       --         3.594 au  Pa            1.00      7 D:xy            1
                        (      97.805 eV)
    81      81       --        24.986 au  Pa            1.00      8 D:xy            1
                        (     679.903 eV)
    82      82       --       204.782 au  Pa            1.00      9 D:xy            1
                        (    5572.393 eV)
    83      83      2.000    -127.750 au  Pa            1.00      1 D:xz            1
                        (   -3476.261 eV)
    84      84      2.000     -25.974 au  Pa            1.00      2 D:xz            1
                        (    -706.779 eV)
    85      85      2.000      -3.548 au  Pa            1.00      3 D:xz            1
                        (     -96.540 eV)
    86      86      0.200      -0.066 au  Pa            1.00      4 D:xz            1
                        (      -1.808 eV)
    87      87       --         0.084 au  Pa            1.00      5 D:xz            1
                        (       2.281 eV)
    88      88       --         0.569 au  Pa            1.00      6 D:xz            1
                        (      15.477 eV)
    89      89       --         3.594 au  Pa            1.00      7 D:xz            1
                        (      97.805 eV)
    90      90       --        24.986 au  Pa            1.00      8 D:xz            1
                        (     679.903 eV)
    91      91       --       204.782 au  Pa            1.00      9 D:xz            1
                        (    5572.393 eV)
    92      92      2.000    -127.750 au  Pa            1.00      1 D:yz            1
                        (   -3476.261 eV)
    93      93      2.000     -25.974 au  Pa            1.00      2 D:yz            1
                        (    -706.779 eV)
    94      94      2.000      -3.548 au  Pa            1.00      3 D:yz            1
                        (     -96.540 eV)
    95      95      0.200      -0.066 au  Pa            1.00      4 D:yz            1
                        (      -1.808 eV)
    96      96       --         0.084 au  Pa            1.00      5 D:yz            1
                        (       2.281 eV)
    97      97       --         0.569 au  Pa            1.00      6 D:yz            1
                        (      15.477 eV)
    98      98       --         3.594 au  Pa            1.00      7 D:yz            1
                        (      97.805 eV)
    99      99       --        24.986 au  Pa            1.00      8 D:yz            1
                        (     679.903 eV)
   100     100       --       204.782 au  Pa            1.00      9 D:yz            1
                        (    5572.393 eV)
   101     101      2.000     -13.085 au  Pa            1.00      1 F:z3            1
                        (    -356.050 eV)
   102     102      0.286      -0.042 au  Pa            1.00      2 F:z3            1
                        (      -1.139 eV)
   103     103       --         0.419 au  Pa            1.00      3 F:z3            1
                        (      11.400 eV)
   104     104       --         2.553 au  Pa            1.00      4 F:z3            1
                        (      69.470 eV)
   105     105       --        21.603 au  Pa            1.00      5 F:z3            1
                        (     587.835 eV)
   106     106      2.000     -13.085 au  Pa            1.00      1 F:z             1
                        (    -356.050 eV)
   107     107      0.286      -0.042 au  Pa            1.00      2 F:z             1
                        (      -1.139 eV)
   108     108       --         0.419 au  Pa            1.00      3 F:z             1
                        (      11.400 eV)
   109     109       --         2.553 au  Pa            1.00      4 F:z             1
                        (      69.470 eV)
   110     110       --        21.603 au  Pa            1.00      5 F:z             1
                        (     587.835 eV)
   111     111      2.000     -13.085 au  Pa            1.00      1 F:xyz           1
                        (    -356.050 eV)
   112     112      0.286      -0.042 au  Pa            1.00      2 F:xyz           1
                        (      -1.139 eV)
   113     113       --         0.419 au  Pa            1.00      3 F:xyz           1
                        (      11.400 eV)
   114     114       --         2.553 au  Pa            1.00      4 F:xyz           1
                        (      69.470 eV)
   115     115       --        21.603 au  Pa            1.00      5 F:xyz           1
                        (     587.835 eV)
   116     116      2.000     -13.085 au  Pa            1.00      1 F:z2x           1
                        (    -356.050 eV)
   117     117      0.286      -0.042 au  Pa            1.00      2 F:z2x           1
                        (      -1.139 eV)
   118     118       --         0.419 au  Pa            1.00      3 F:z2x           1
                        (      11.400 eV)
   119     119       --         2.553 au  Pa            1.00      4 F:z2x           1
                        (      69.470 eV)
   120     120       --        21.603 au  Pa            1.00      5 F:z2x           1
                        (     587.835 eV)
   121     121      2.000     -13.085 au  Pa            1.00      1 F:z2y           1
                        (    -356.050 eV)
   122     122      0.286      -0.042 au  Pa            1.00      2 F:z2y           1
                        (      -1.139 eV)
   123     123       --         0.419 au  Pa            1.00      3 F:z2y           1
                        (      11.400 eV)
   124     124       --         2.553 au  Pa            1.00      4 F:z2y           1
                        (      69.470 eV)
   125     125       --        21.603 au  Pa            1.00      5 F:z2y           1
                        (     587.835 eV)
   126     126      2.000     -13.085 au  Pa            1.00      1 F:x             1
                        (    -356.050 eV)
   127     127      0.286      -0.042 au  Pa            1.00      2 F:x             1
                        (      -1.139 eV)
   128     128       --         0.419 au  Pa            1.00      3 F:x             1
                        (      11.400 eV)
   129     129       --         2.553 au  Pa            1.00      4 F:x             1
                        (      69.470 eV)
   130     130       --        21.603 au  Pa            1.00      5 F:x             1
                        (     587.835 eV)
   131     131      2.000     -13.085 au  Pa            1.00      1 F:y             1
                        (    -356.050 eV)
   132     132      0.286      -0.042 au  Pa            1.00      2 F:y             1
                        (      -1.139 eV)
   133     133       --         0.419 au  Pa            1.00      3 F:y             1
                        (      11.400 eV)
   134     134       --         2.553 au  Pa            1.00      4 F:y             1
                        (      69.470 eV)
   135     135       --        21.603 au  Pa            1.00      5 F:y             1
                        (     587.835 eV)
   136     136      2.000     -19.315 au  O             1.00      1 S               2
                        (    -525.599 eV)
   137     137      2.000      -0.972 au  O             1.00      2 S               2
                        (     -26.457 eV)
   138     138       --         0.838 au  O             1.00      3 S               2
                        (      22.795 eV)
   139     139       --        13.598 au  O             1.00      4 S               2
                        (     370.019 eV)
   140     140       --       122.184 au  O             1.00      5 S               2
                        (    3324.790 eV)
   141     141      1.333      -0.361 au  O             1.00      1 P:x             2
                        (      -9.818 eV)
   142     142       --         0.380 au  O             1.00      2 P:x             2
                        (      10.337 eV)
   143     143       --         3.931 au  O             1.00      3 P:x             2
                        (     106.958 eV)
   144     144      1.333      -0.361 au  O             1.00      1 P:y             2
                        (      -9.818 eV)
   145     145       --         0.380 au  O             1.00      2 P:y             2
                        (      10.337 eV)
   146     146       --         3.931 au  O             1.00      3 P:y             2
                        (     106.958 eV)
   147     147      1.333      -0.361 au  O             1.00      1 P:z             2
                        (      -9.818 eV)
   148     148       --         0.380 au  O             1.00      2 P:z             2
                        (      10.337 eV)
   149     149       --         3.931 au  O             1.00      3 P:z             2
                        (     106.958 eV)
   150     150       --         1.117 au  O             1.00      1 D:z2            2
                        (      30.399 eV)
   151     151       --         1.117 au  O             1.00      1 D:x2-y2         2
                        (      30.399 eV)
   152     152       --         1.117 au  O             1.00      1 D:xy            2
                        (      30.399 eV)
   153     153       --         1.117 au  O             1.00      1 D:xz            2
                        (      30.399 eV)
   154     154       --         1.117 au  O             1.00      1 D:yz            2
                        (      30.399 eV)
   155     155       --         3.432 au  O             1.00      1 F:z3            2
                        (      93.382 eV)
   156     156       --         3.432 au  O             1.00      1 F:z             2
                        (      93.382 eV)
   157     157       --         3.432 au  O             1.00      1 F:xyz           2
                        (      93.382 eV)
   158     158       --         3.432 au  O             1.00      1 F:z2x           2
                        (      93.382 eV)
   159     159       --         3.432 au  O             1.00      1 F:z2y           2
                        (      93.382 eV)
   160     160       --         3.432 au  O             1.00      1 F:x             2
                        (      93.382 eV)
   161     161       --         3.432 au  O             1.00      1 F:y             2
                        (      93.382 eV)
   162     162      2.000     -19.315 au  O             1.00      1 S               3
                        (    -525.599 eV)
   163     163      2.000      -0.972 au  O             1.00      2 S               3
                        (     -26.457 eV)
   164     164       --         0.838 au  O             1.00      3 S               3
                        (      22.795 eV)
   165     165       --        13.598 au  O             1.00      4 S               3
                        (     370.019 eV)
   166     166       --       122.184 au  O             1.00      5 S               3
                        (    3324.790 eV)
   167     167      1.333      -0.361 au  O             1.00      1 P:x             3
                        (      -9.818 eV)
   168     168       --         0.380 au  O             1.00      2 P:x             3
                        (      10.337 eV)
   169     169       --         3.931 au  O             1.00      3 P:x             3
                        (     106.958 eV)
   170     170      1.333      -0.361 au  O             1.00      1 P:y             3
                        (      -9.818 eV)
   171     171       --         0.380 au  O             1.00      2 P:y             3
                        (      10.337 eV)
   172     172       --         3.931 au  O             1.00      3 P:y             3
                        (     106.958 eV)
   173     173      1.333      -0.361 au  O             1.00      1 P:z             3
                        (      -9.818 eV)
   174     174       --         0.380 au  O             1.00      2 P:z             3
                        (      10.337 eV)
   175     175       --         3.931 au  O             1.00      3 P:z             3
                        (     106.958 eV)
   176     176       --         1.117 au  O             1.00      1 D:z2            3
                        (      30.399 eV)
   177     177       --         1.117 au  O             1.00      1 D:x2-y2         3
                        (      30.399 eV)
   178     178       --         1.117 au  O             1.00      1 D:xy            3
                        (      30.399 eV)
   179     179       --         1.117 au  O             1.00      1 D:xz            3
                        (      30.399 eV)
   180     180       --         1.117 au  O             1.00      1 D:yz            3
                        (      30.399 eV)
   181     181       --         3.432 au  O             1.00      1 F:z3            3
                        (      93.382 eV)
   182     182       --         3.432 au  O             1.00      1 F:z             3
                        (      93.382 eV)
   183     183       --         3.432 au  O             1.00      1 F:xyz           3
                        (      93.382 eV)
   184     184       --         3.432 au  O             1.00      1 F:z2x           3
                        (      93.382 eV)
   185     185       --         3.432 au  O             1.00      1 F:z2y           3
                        (      93.382 eV)
   186     186       --         3.432 au  O             1.00      1 F:x             3
                        (      93.382 eV)
   187     187       --         3.432 au  O             1.00      1 F:y             3
                        (      93.382 eV)
   188     188      2.000     -19.315 au  O             1.00      1 S               4
                        (    -525.599 eV)
   189     189      2.000      -0.972 au  O             1.00      2 S               4
                        (     -26.457 eV)
   190     190       --         0.838 au  O             1.00      3 S               4
                        (      22.795 eV)
   191     191       --        13.598 au  O             1.00      4 S               4
                        (     370.019 eV)
   192     192       --       122.184 au  O             1.00      5 S               4
                        (    3324.790 eV)
   193     193      1.333      -0.361 au  O             1.00      1 P:x             4
                        (      -9.818 eV)
   194     194       --         0.380 au  O             1.00      2 P:x             4
                        (      10.337 eV)
   195     195       --         3.931 au  O             1.00      3 P:x             4
                        (     106.958 eV)
   196     196      1.333      -0.361 au  O             1.00      1 P:y             4
                        (      -9.818 eV)
   197     197       --         0.380 au  O             1.00      2 P:y             4
                        (      10.337 eV)
   198     198       --         3.931 au  O             1.00      3 P:y             4
                        (     106.958 eV)
   199     199      1.333      -0.361 au  O             1.00      1 P:z             4
                        (      -9.818 eV)
   200     200       --         0.380 au  O             1.00      2 P:z             4
                        (      10.337 eV)
   201     201       --         3.931 au  O             1.00      3 P:z             4
                        (     106.958 eV)
   202     202       --         1.117 au  O             1.00      1 D:z2            4
                        (      30.399 eV)
   203     203       --         1.117 au  O             1.00      1 D:x2-y2         4
                        (      30.399 eV)
   204     204       --         1.117 au  O             1.00      1 D:xy            4
                        (      30.399 eV)
   205     205       --         1.117 au  O             1.00      1 D:xz            4
                        (      30.399 eV)
   206     206       --         1.117 au  O             1.00      1 D:yz            4
                        (      30.399 eV)
   207     207       --         3.432 au  O             1.00      1 F:z3            4
                        (      93.382 eV)
   208     208       --         3.432 au  O             1.00      1 F:z             4
                        (      93.382 eV)
   209     209       --         3.432 au  O             1.00      1 F:xyz           4
                        (      93.382 eV)
   210     210       --         3.432 au  O             1.00      1 F:z2x           4
                        (      93.382 eV)
   211     211       --         3.432 au  O             1.00      1 F:z2y           4
                        (      93.382 eV)
   212     212       --         3.432 au  O             1.00      1 F:x             4
                        (      93.382 eV)
   213     213       --         3.432 au  O             1.00      1 F:y             4
                        (      93.382 eV)
   214     214      2.000     -19.315 au  O             1.00      1 S               5
                        (    -525.599 eV)
   215     215      2.000      -0.972 au  O             1.00      2 S               5
                        (     -26.457 eV)
   216     216       --         0.838 au  O             1.00      3 S               5
                        (      22.795 eV)
   217     217       --        13.598 au  O             1.00      4 S               5
                        (     370.019 eV)
   218     218       --       122.184 au  O             1.00      5 S               5
                        (    3324.790 eV)
   219     219      1.333      -0.361 au  O             1.00      1 P:x             5
                        (      -9.818 eV)
   220     220       --         0.380 au  O             1.00      2 P:x             5
                        (      10.337 eV)
   221     221       --         3.931 au  O             1.00      3 P:x             5
                        (     106.958 eV)
   222     222      1.333      -0.361 au  O             1.00      1 P:y             5
                        (      -9.818 eV)
   223     223       --         0.380 au  O             1.00      2 P:y             5
                        (      10.337 eV)
   224     224       --         3.931 au  O             1.00      3 P:y             5
                        (     106.958 eV)
   225     225      1.333      -0.361 au  O             1.00      1 P:z             5
                        (      -9.818 eV)
   226     226       --         0.380 au  O             1.00      2 P:z             5
                        (      10.337 eV)
   227     227       --         3.931 au  O             1.00      3 P:z             5
                        (     106.958 eV)
   228     228       --         1.117 au  O             1.00      1 D:z2            5
                        (      30.399 eV)
   229     229       --         1.117 au  O             1.00      1 D:x2-y2         5
                        (      30.399 eV)
   230     230       --         1.117 au  O             1.00      1 D:xy            5
                        (      30.399 eV)
   231     231       --         1.117 au  O             1.00      1 D:xz            5
                        (      30.399 eV)
   232     232       --         1.117 au  O             1.00      1 D:yz            5
                        (      30.399 eV)
   233     233       --         3.432 au  O             1.00      1 F:z3            5
                        (      93.382 eV)
   234     234       --         3.432 au  O             1.00      1 F:z             5
                        (      93.382 eV)
   235     235       --         3.432 au  O             1.00      1 F:xyz           5
                        (      93.382 eV)
   236     236       --         3.432 au  O             1.00      1 F:z2x           5
                        (      93.382 eV)
   237     237       --         3.432 au  O             1.00      1 F:z2y           5
                        (      93.382 eV)
   238     238       --         3.432 au  O             1.00      1 F:x             5
                        (      93.382 eV)
   239     239       --         3.432 au  O             1.00      1 F:y             5
                        (      93.382 eV)
   240     240      2.000     -19.315 au  O             1.00      1 S               6
                        (    -525.599 eV)
   241     241      2.000      -0.972 au  O             1.00      2 S               6
                        (     -26.457 eV)
   242     242       --         0.838 au  O             1.00      3 S               6
                        (      22.795 eV)
   243     243       --        13.598 au  O             1.00      4 S               6
                        (     370.019 eV)
   244     244       --       122.184 au  O             1.00      5 S               6
                        (    3324.790 eV)
   245     245      1.333      -0.361 au  O             1.00      1 P:x             6
                        (      -9.818 eV)
   246     246       --         0.380 au  O             1.00      2 P:x             6
                        (      10.337 eV)
   247     247       --         3.931 au  O             1.00      3 P:x             6
                        (     106.958 eV)
   248     248      1.333      -0.361 au  O             1.00      1 P:y             6
                        (      -9.818 eV)
   249     249       --         0.380 au  O             1.00      2 P:y             6
                        (      10.337 eV)
   250     250       --         3.931 au  O             1.00      3 P:y             6
                        (     106.958 eV)
   251     251      1.333      -0.361 au  O             1.00      1 P:z             6
                        (      -9.818 eV)
   252     252       --         0.380 au  O             1.00      2 P:z             6
                        (      10.337 eV)
   253     253       --         3.931 au  O             1.00      3 P:z             6
                        (     106.958 eV)
   254     254       --         1.117 au  O             1.00      1 D:z2            6
                        (      30.399 eV)
   255     255       --         1.117 au  O             1.00      1 D:x2-y2         6
                        (      30.399 eV)
   256     256       --         1.117 au  O             1.00      1 D:xy            6
                        (      30.399 eV)
   257     257       --         1.117 au  O             1.00      1 D:xz            6
                        (      30.399 eV)
   258     258       --         1.117 au  O             1.00      1 D:yz            6
                        (      30.399 eV)
   259     259       --         3.432 au  O             1.00      1 F:z3            6
                        (      93.382 eV)
   260     260       --         3.432 au  O             1.00      1 F:z             6
                        (      93.382 eV)
   261     261       --         3.432 au  O             1.00      1 F:xyz           6
                        (      93.382 eV)
   262     262       --         3.432 au  O             1.00      1 F:z2x           6
                        (      93.382 eV)
   263     263       --         3.432 au  O             1.00      1 F:z2y           6
                        (      93.382 eV)
   264     264       --         3.432 au  O             1.00      1 F:x             6
                        (      93.382 eV)
   265     265       --         3.432 au  O             1.00      1 F:y             6
                        (      93.382 eV)
   266     266      2.000     -19.315 au  O             1.00      1 S               7
                        (    -525.599 eV)
   267     267      2.000      -0.972 au  O             1.00      2 S               7
                        (     -26.457 eV)
   268     268       --         0.838 au  O             1.00      3 S               7
                        (      22.795 eV)
   269     269       --        13.598 au  O             1.00      4 S               7
                        (     370.019 eV)
   270     270       --       122.184 au  O             1.00      5 S               7
                        (    3324.790 eV)
   271     271      1.333      -0.361 au  O             1.00      1 P:x             7
                        (      -9.818 eV)
   272     272       --         0.380 au  O             1.00      2 P:x             7
                        (      10.337 eV)
   273     273       --         3.931 au  O             1.00      3 P:x             7
                        (     106.958 eV)
   274     274      1.333      -0.361 au  O             1.00      1 P:y             7
                        (      -9.818 eV)
   275     275       --         0.380 au  O             1.00      2 P:y             7
                        (      10.337 eV)
   276     276       --         3.931 au  O             1.00      3 P:y             7
                        (     106.958 eV)
   277     277      1.333      -0.361 au  O             1.00      1 P:z             7
                        (      -9.818 eV)
   278     278       --         0.380 au  O             1.00      2 P:z             7
                        (      10.337 eV)
   279     279       --         3.931 au  O             1.00      3 P:z             7
                        (     106.958 eV)
   280     280       --         1.117 au  O             1.00      1 D:z2            7
                        (      30.399 eV)
   281     281       --         1.117 au  O             1.00      1 D:x2-y2         7
                        (      30.399 eV)
   282     282       --         1.117 au  O             1.00      1 D:xy            7
                        (      30.399 eV)
   283     283       --         1.117 au  O             1.00      1 D:xz            7
                        (      30.399 eV)
   284     284       --         1.117 au  O             1.00      1 D:yz            7
                        (      30.399 eV)
   285     285       --         3.432 au  O             1.00      1 F:z3            7
                        (      93.382 eV)
   286     286       --         3.432 au  O             1.00      1 F:z             7
                        (      93.382 eV)
   287     287       --         3.432 au  O             1.00      1 F:xyz           7
                        (      93.382 eV)
   288     288       --         3.432 au  O             1.00      1 F:z2x           7
                        (      93.382 eV)
   289     289       --         3.432 au  O             1.00      1 F:z2y           7
                        (      93.382 eV)
   290     290       --         3.432 au  O             1.00      1 F:x             7
                        (      93.382 eV)
   291     291       --         3.432 au  O             1.00      1 F:y             7
                        (      93.382 eV)
   292     292      2.000     -19.315 au  O             1.00      1 S               8
                        (    -525.599 eV)
   293     293      2.000      -0.972 au  O             1.00      2 S               8
                        (     -26.457 eV)
   294     294       --         0.838 au  O             1.00      3 S               8
                        (      22.795 eV)
   295     295       --        13.598 au  O             1.00      4 S               8
                        (     370.019 eV)
   296     296       --       122.184 au  O             1.00      5 S               8
                        (    3324.790 eV)
   297     297      1.333      -0.361 au  O             1.00      1 P:x             8
                        (      -9.818 eV)
   298     298       --         0.380 au  O             1.00      2 P:x             8
                        (      10.337 eV)
   299     299       --         3.931 au  O             1.00      3 P:x             8
                        (     106.958 eV)
   300     300      1.333      -0.361 au  O             1.00      1 P:y             8
                        (      -9.818 eV)
   301     301       --         0.380 au  O             1.00      2 P:y             8
                        (      10.337 eV)
   302     302       --         3.931 au  O             1.00      3 P:y             8
                        (     106.958 eV)
   303     303      1.333      -0.361 au  O             1.00      1 P:z             8
                        (      -9.818 eV)
   304     304       --         0.380 au  O             1.00      2 P:z             8
                        (      10.337 eV)
   305     305       --         3.931 au  O             1.00      3 P:z             8
                        (     106.958 eV)
   306     306       --         1.117 au  O             1.00      1 D:z2            8
                        (      30.399 eV)
   307     307       --         1.117 au  O             1.00      1 D:x2-y2         8
                        (      30.399 eV)
   308     308       --         1.117 au  O             1.00      1 D:xy            8
                        (      30.399 eV)
   309     309       --         1.117 au  O             1.00      1 D:xz            8
                        (      30.399 eV)
   310     310       --         1.117 au  O             1.00      1 D:yz            8
                        (      30.399 eV)
   311     311       --         3.432 au  O             1.00      1 F:z3            8
                        (      93.382 eV)
   312     312       --         3.432 au  O             1.00      1 F:z             8
                        (      93.382 eV)
   313     313       --         3.432 au  O             1.00      1 F:xyz           8
                        (      93.382 eV)
   314     314       --         3.432 au  O             1.00      1 F:z2x           8
                        (      93.382 eV)
   315     315       --         3.432 au  O             1.00      1 F:z2y           8
                        (      93.382 eV)
   316     316       --         3.432 au  O             1.00      1 F:x             8
                        (      93.382 eV)
   317     317       --         3.432 au  O             1.00      1 F:y             8
                        (      93.382 eV)
   318     318      2.000     -19.315 au  O             1.00      1 S               9
                        (    -525.599 eV)
   319     319      2.000      -0.972 au  O             1.00      2 S               9
                        (     -26.457 eV)
   320     320       --         0.838 au  O             1.00      3 S               9
                        (      22.795 eV)
   321     321       --        13.598 au  O             1.00      4 S               9
                        (     370.019 eV)
   322     322       --       122.184 au  O             1.00      5 S               9
                        (    3324.790 eV)
   323     323      1.333      -0.361 au  O             1.00      1 P:x             9
                        (      -9.818 eV)
   324     324       --         0.380 au  O             1.00      2 P:x             9
                        (      10.337 eV)
   325     325       --         3.931 au  O             1.00      3 P:x             9
                        (     106.958 eV)
   326     326      1.333      -0.361 au  O             1.00      1 P:y             9
                        (      -9.818 eV)
   327     327       --         0.380 au  O             1.00      2 P:y             9
                        (      10.337 eV)
   328     328       --         3.931 au  O             1.00      3 P:y             9
                        (     106.958 eV)
   329     329      1.333      -0.361 au  O             1.00      1 P:z             9
                        (      -9.818 eV)
   330     330       --         0.380 au  O             1.00      2 P:z             9
                        (      10.337 eV)
   331     331       --         3.931 au  O             1.00      3 P:z             9
                        (     106.958 eV)
   332     332       --         1.117 au  O             1.00      1 D:z2            9
                        (      30.399 eV)
   333     333       --         1.117 au  O             1.00      1 D:x2-y2         9
                        (      30.399 eV)
   334     334       --         1.117 au  O             1.00      1 D:xy            9
                        (      30.399 eV)
   335     335       --         1.117 au  O             1.00      1 D:xz            9
                        (      30.399 eV)
   336     336       --         1.117 au  O             1.00      1 D:yz            9
                        (      30.399 eV)
   337     337       --         3.432 au  O             1.00      1 F:z3            9
                        (      93.382 eV)
   338     338       --         3.432 au  O             1.00      1 F:z             9
                        (      93.382 eV)
   339     339       --         3.432 au  O             1.00      1 F:xyz           9
                        (      93.382 eV)
   340     340       --         3.432 au  O             1.00      1 F:z2x           9
                        (      93.382 eV)
   341     341       --         3.432 au  O             1.00      1 F:z2y           9
                        (      93.382 eV)
   342     342       --         3.432 au  O             1.00      1 F:x             9
                        (      93.382 eV)
   343     343       --         3.432 au  O             1.00      1 F:y             9
                        (      93.382 eV)
   344     344      1.000      -0.244 au  H             1.00      1 S              10
                        (      -6.641 eV)
   345     345       --         0.104 au  H             1.00      2 S              10
                        (       2.836 eV)
   346     346       --         1.564 au  H             1.00      3 S              10
                        (      42.560 eV)
   347     347       --         0.436 au  H             1.00      1 P:x            10
                        (      11.864 eV)
   348     348       --         0.436 au  H             1.00      1 P:y            10
                        (      11.864 eV)
   349     349       --         0.436 au  H             1.00      1 P:z            10
                        (      11.864 eV)
   350     350       --         2.617 au  H             1.00      1 D:z2           10
                        (      71.221 eV)
   351     351       --         2.617 au  H             1.00      1 D:x2-y2        10
                        (      71.221 eV)
   352     352       --         2.617 au  H             1.00      1 D:xy           10
                        (      71.221 eV)
   353     353       --         2.617 au  H             1.00      1 D:xz           10
                        (      71.221 eV)
   354     354       --         2.617 au  H             1.00      1 D:yz           10
                        (      71.221 eV)
   355     355      1.000      -0.244 au  H             1.00      1 S              11
                        (      -6.641 eV)
   356     356       --         0.104 au  H             1.00      2 S              11
                        (       2.836 eV)
   357     357       --         1.564 au  H             1.00      3 S              11
                        (      42.560 eV)
   358     358       --         0.436 au  H             1.00      1 P:x            11
                        (      11.864 eV)
   359     359       --         0.436 au  H             1.00      1 P:y            11
                        (      11.864 eV)
   360     360       --         0.436 au  H             1.00      1 P:z            11
                        (      11.864 eV)
   361     361       --         2.617 au  H             1.00      1 D:z2           11
                        (      71.221 eV)
   362     362       --         2.617 au  H             1.00      1 D:x2-y2        11
                        (      71.221 eV)
   363     363       --         2.617 au  H             1.00      1 D:xy           11
                        (      71.221 eV)
   364     364       --         2.617 au  H             1.00      1 D:xz           11
                        (      71.221 eV)
   365     365       --         2.617 au  H             1.00      1 D:yz           11
                        (      71.221 eV)
   366     366      1.000      -0.244 au  H             1.00      1 S              12
                        (      -6.641 eV)
   367     367       --         0.104 au  H             1.00      2 S              12
                        (       2.836 eV)
   368     368       --         1.564 au  H             1.00      3 S              12
                        (      42.560 eV)
   369     369       --         0.436 au  H             1.00      1 P:x            12
                        (      11.864 eV)
   370     370       --         0.436 au  H             1.00      1 P:y            12
                        (      11.864 eV)
   371     371       --         0.436 au  H             1.00      1 P:z            12
                        (      11.864 eV)
   372     372       --         2.617 au  H             1.00      1 D:z2           12
                        (      71.221 eV)
   373     373       --         2.617 au  H             1.00      1 D:x2-y2        12
                        (      71.221 eV)
   374     374       --         2.617 au  H             1.00      1 D:xy           12
                        (      71.221 eV)
   375     375       --         2.617 au  H             1.00      1 D:xz           12
                        (      71.221 eV)
   376     376       --         2.617 au  H             1.00      1 D:yz           12
                        (      71.221 eV)
   377     377      1.000      -0.244 au  H             1.00      1 S              13
                        (      -6.641 eV)
   378     378       --         0.104 au  H             1.00      2 S              13
                        (       2.836 eV)
   379     379       --         1.564 au  H             1.00      3 S              13
                        (      42.560 eV)
   380     380       --         0.436 au  H             1.00      1 P:x            13
                        (      11.864 eV)
   381     381       --         0.436 au  H             1.00      1 P:y            13
                        (      11.864 eV)
   382     382       --         0.436 au  H             1.00      1 P:z            13
                        (      11.864 eV)
   383     383       --         2.617 au  H             1.00      1 D:z2           13
                        (      71.221 eV)
   384     384       --         2.617 au  H             1.00      1 D:x2-y2        13
                        (      71.221 eV)
   385     385       --         2.617 au  H             1.00      1 D:xy           13
                        (      71.221 eV)
   386     386       --         2.617 au  H             1.00      1 D:xz           13
                        (      71.221 eV)
   387     387       --         2.617 au  H             1.00      1 D:yz           13
                        (      71.221 eV)
   388     388      2.000     -89.200 au  S             1.00      1 S              14
                        (   -2427.259 eV)
   389     389      2.000      -8.042 au  S             1.00      2 S              14
                        (    -218.844 eV)
   390     390      2.000      -0.695 au  S             1.00      3 S              14
                        (     -18.914 eV)
   391     391       --         0.217 au  S             1.00      4 S              14
                        (       5.908 eV)
   392     392       --         2.090 au  S             1.00      5 S              14
                        (      56.875 eV)
   393     393       --        12.721 au  S             1.00      6 S              14
                        (     346.165 eV)
   394     394       --       192.681 au  S             1.00      7 S              14
                        (    5243.115 eV)
   395     395      2.000      -5.951 au  S             1.00      1 P:x            14
                        (    -161.937 eV)
   396     396      1.333      -0.271 au  S             1.00      2 P:x            14
                        (      -7.386 eV)
   397     397       --         0.147 au  S             1.00      3 P:x            14
                        (       3.991 eV)
   398     398       --         1.258 au  S             1.00      4 P:x            14
                        (      34.241 eV)
   399     399       --        13.143 au  S             1.00      5 P:x            14
                        (     357.653 eV)
   400     400      2.000      -5.951 au  S             1.00      1 P:y            14
                        (    -161.937 eV)
   401     401      1.333      -0.271 au  S             1.00      2 P:y            14
                        (      -7.386 eV)
   402     402       --         0.147 au  S             1.00      3 P:y            14
                        (       3.991 eV)
   403     403       --         1.258 au  S             1.00      4 P:y            14
                        (      34.241 eV)
   404     404       --        13.143 au  S             1.00      5 P:y            14
                        (     357.653 eV)
   405     405      2.000      -5.951 au  S             1.00      1 P:z            14
                        (    -161.937 eV)
   406     406      1.333      -0.271 au  S             1.00      2 P:z            14
                        (      -7.386 eV)
   407     407       --         0.147 au  S             1.00      3 P:z            14
                        (       3.991 eV)
   408     408       --         1.258 au  S             1.00      4 P:z            14
                        (      34.241 eV)
   409     409       --        13.143 au  S             1.00      5 P:z            14
                        (     357.653 eV)
   410     410       --         0.481 au  S             1.00      1 D:z2           14
                        (      13.094 eV)
   411     411       --         0.481 au  S             1.00      1 D:x2-y2        14
                        (      13.094 eV)
   412     412       --         0.481 au  S             1.00      1 D:xy           14
                        (      13.094 eV)
   413     413       --         0.481 au  S             1.00      1 D:xz           14
                        (      13.094 eV)
   414     414       --         0.481 au  S             1.00      1 D:yz           14
                        (      13.094 eV)
   415     415       --         1.329 au  S             1.00      1 F:z3           14
                        (      36.153 eV)
   416     416       --         1.329 au  S             1.00      1 F:z            14
                        (      36.153 eV)
   417     417       --         1.329 au  S             1.00      1 F:xyz          14
                        (      36.153 eV)
   418     418       --         1.329 au  S             1.00      1 F:z2x          14
                        (      36.153 eV)
   419     419       --         1.329 au  S             1.00      1 F:z2y          14
                        (      36.153 eV)
   420     420       --         1.329 au  S             1.00      1 F:x            14
                        (      36.153 eV)
   421     421       --         1.329 au  S             1.00      1 F:y            14
                        (      36.153 eV)



 ================================
 (Slater-type)  F U N C T I O N S  ***  (Basis and Fit)  ***
 ================================
  

 Atom Type    1  (Pa)
 ==============

 Valence Basis Sets:  43
 -----------------------
   1 S 1028.000000
   1 S  240.000000
   1 S  107.000000
   2 S  131.500000
   2 S   46.500000
   3 S   59.100000
   3 S   25.450000
   4 S   15.550000
   4 S   11.050000
   5 S   10.200000
   5 S    7.100000
   6 S    4.950000
   6 S    3.250000
   7 S    2.350000
   7 S    1.550000
   7 S    1.020000
   2 P  240.000000
   2 P   84.000000
   2 P   43.600000
   3 P   24.750000
   3 P   17.850000
   4 P   17.650000
   4 P   12.100000
   5 P    8.500000
   5 P    5.900000
   6 P    4.400000
   6 P    3.000000
   6 P    2.100000
   3 D   33.750000
   3 D   21.750000
   4 D   15.300000
   4 D   10.450000
   5 D    7.150000
   5 D    4.600000
   6 D    3.000000
   6 D    1.700000
   6 D    0.980000
   4 F   17.100000
   4 F    9.350000
   5 F    5.850000
   5 F    3.150000
   5 F    1.550000
   7 P    1.550000

 Charge Fitting Sets (for the computation of the Coulomb Potential):  87
 -----------------------------------------------------------------------
   1 S 2056.000000
   1 S 1549.519000
   1 S 1167.806000
   1 S  880.126000
   1 S  663.313000
   1 S  499.911000
   1 S  376.761000
   1 S  283.949000
   1 S  214.000000
   1 S  127.280000
   2 S  140.220000
   2 S   93.850000
   3 S   92.230000
   3 S   65.710000
   4 S   61.900000
   4 S   45.910000
   5 S   42.420000
   5 S   32.370000
   6 S   29.610000
   6 S   23.090000
   7 S   21.000000
   7 S   16.670000
   8 S   15.120000
   8 S   12.170000
   9 S   11.020000
   9 S    8.970000
  10 S    8.120000
  10 S    6.680000
  11 S    6.050000
  11 S    5.020000
  12 S    4.550000
  12 S    3.800000
  12 S    3.180000
  13 S    2.880000
  13 S    2.420000
  13 S    2.040000
   2 P  150.600000
   3 P  125.870000
   4 P  103.260000
   5 P   84.350000
   6 P   68.960000
   7 P   56.560000
   7 P   40.600000
   8 P   33.430000
   8 P   24.490000
   9 P   20.250000
   9 P   15.090000
  10 P   12.530000
  10 P    9.470000
  11 P    7.900000
  11 P    6.040000
  12 P    5.060000
  12 P    3.910000
  13 P    3.290000
  13 P    2.570000
   3 D  128.750000
   4 D   91.090000
   5 D   65.210000
   6 D   47.270000
   7 D   34.690000
   8 D   25.740000
   9 D   19.290000
   9 D   13.060000
  10 D    9.880000
  10 D    6.820000
  11 D    5.210000
  11 D    3.650000
  12 D    2.810000
  12 D    2.000000
   4 F  116.350000
   5 F   72.360000
   6 F   46.140000
   7 F   30.070000
   8 F   19.970000
   9 F   13.480000
  10 F    9.240000
  10 F    5.790000
  11 F    4.020000
  11 F    2.570000
   5 G   52.950000
   6 G   31.380000
   7 G   19.110000
   8 G   11.920000
   9 G    7.580000
  10 G    4.910000
  11 G    3.230000
  11 G    1.960000

 Atom Type    2  (O)
 ==============

 Valence Basis Sets:  10
 -----------------------
   1 S    9.800000
   1 S    6.800000
   2 S    7.580000
   2 S    2.880000
   2 S    1.720000
   2 P    4.080000
   2 P    2.080000
   2 P    1.120000
   3 D    2.000000
   4 F    3.000000

 Charge Fitting Sets (for the computation of the Coulomb Potential):  22
 -----------------------------------------------------------------------
   1 S   19.600000
   2 S   22.600000
   2 S   15.680000
   2 S   10.890000
   2 S    7.560000
   3 S    7.690000
   3 S    5.650000
   3 S    4.150000
   3 S    3.050000
   3 S    2.240000
   2 P   12.860000
   2 P    7.680000
   3 P    6.780000
   3 P    4.390000
   3 P    2.840000
   3 D    8.800000
   3 D    5.580000
   3 D    3.530000
   3 D    2.240000
   4 F    6.200000
   4 F    3.700000
   5 G    4.500000

 Atom Type    3  (H)
 ==============

 Valence Basis Sets:   5
 -----------------------
   1 S    0.690000
   1 S    0.920000
   1 S    1.580000
   2 P    1.250000
   3 D    2.500000

 Charge Fitting Sets (for the computation of the Coulomb Potential):  11
 -----------------------------------------------------------------------
   1 S    3.160000
   1 S    2.090000
   1 S    1.380000
   2 S    1.500000
   2 P    4.000000
   2 P    2.650000
   2 P    1.750000
   3 D    4.000000
   3 D    2.500000
   4 F    3.000000
   5 G    4.000000

 Atom Type    4  (S)
 ==============

 Valence Basis Sets:  14
 -----------------------
   1 S   19.400000
   1 S   14.350000
   2 S    5.900000
   2 S    4.250000
   2 P    8.050000
   2 P    4.550000
   3 S    3.450000
   3 S    2.250000
   3 S    1.500000
   3 P    2.650000
   3 P    1.600000
   3 P    1.000000
   3 D    2.100000
   4 F    2.100000

 Charge Fitting Sets (for the computation of the Coulomb Potential):  30
 -----------------------------------------------------------------------
   1 S   38.800000
   1 S   23.350000
   2 S   26.020000
   2 S   17.570000
   3 S   17.420000
   3 S   12.500000
   3 S    8.980000
   4 S    8.520000
   4 S    6.360000
   4 S    4.750000
   5 S    4.420000
   5 S    3.390000
   5 S    2.600000
   5 S    2.000000
   2 P   27.450000
   3 P   20.250000
   4 P   14.920000
   4 P    8.780000
   5 P    6.520000
   5 P    4.040000
   5 P    2.500000
   3 D   20.900000
   4 D   14.560000
   4 D    8.130000
   5 D    5.740000
   5 D    3.390000
   5 D    2.000000
   4 F    5.000000
   4 F    3.000000
   5 G    3.620000


 BAS: List of all Elementary Cartesian Basis Functions
 =====================================================

 The numbering in the list below (to the right of the function characteristics) is referred
 to in print-outs of MO eigenvectors and Mulliken populations in the BAS representation
 (as contrasted to the SFO representation).

 Notes:
 1. The functions are characterized by a polynomial prefactor (powers of x,y,z and r) and
    an exponential decay factor alpha.
 2. Since the basis sets are specific for an atom TYPE, the individual functions occur on
    all atoms of that type.
 3. The word 'Core' in the left margin signals that it is a Core Function (CF) : not a
    degree of freedom in the valence set, but only used to ensure orthogonalization of
    the other valence basis functions on the frozen Core Orbitals.


 (power of) X  Y  Z  R     Alpha  on Atom
            ==========     =====     ==========

 Pa                                   1
                                  ---------------------------------------------------------------------------
            0  0  0  0  1028.000      1
            0  0  0  0   240.000      2
            0  0  0  0   107.000      3
            0  0  0  1   131.500      4
            0  0  0  1    46.500      5
            0  0  0  2    59.100      6
            0  0  0  2    25.450      7
            0  0  0  3    15.550      8
            0  0  0  3    11.050      9
            0  0  0  4    10.200     10
            0  0  0  4     7.100     11
            0  0  0  5     4.950     12
            0  0  0  5     3.250     13
            0  0  0  6     2.350     14
            0  0  0  6     1.550     15
            0  0  0  6     1.020     16
            1  0  0  0   240.000     17
            0  1  0  0   240.000     18
            0  0  1  0   240.000     19
            1  0  0  0    84.000     20
            0  1  0  0    84.000     21
            0  0  1  0    84.000     22
            1  0  0  0    43.600     23
            0  1  0  0    43.600     24
            0  0  1  0    43.600     25
            1  0  0  1    24.750     26
            0  1  0  1    24.750     27
            0  0  1  1    24.750     28
            1  0  0  1    17.850     29
            0  1  0  1    17.850     30
            0  0  1  1    17.850     31
            1  0  0  2    17.650     32
            0  1  0  2    17.650     33
            0  0  1  2    17.650     34
            1  0  0  2    12.100     35
            0  1  0  2    12.100     36
            0  0  1  2    12.100     37
            1  0  0  3     8.500     38
            0  1  0  3     8.500     39
            0  0  1  3     8.500     40
            1  0  0  3     5.900     41
            0  1  0  3     5.900     42
            0  0  1  3     5.900     43
            1  0  0  4     4.400     44
            0  1  0  4     4.400     45
            0  0  1  4     4.400     46
            1  0  0  4     3.000     47
            0  1  0  4     3.000     48
            0  0  1  4     3.000     49
            1  0  0  4     2.100     50
            0  1  0  4     2.100     51
            0  0  1  4     2.100     52
            2  0  0  0    33.750     53
            1  1  0  0    33.750     54
            1  0  1  0    33.750     55
            0  2  0  0    33.750     56
            0  1  1  0    33.750     57
            0  0  2  0    33.750     58
            2  0  0  0    21.750     59
            1  1  0  0    21.750     60
[...]
     451       62.6346         0.000       
     450       61.7756         0.000       
     449       61.7756         0.000       
     448       61.1177         0.000       
     447       61.1177         0.000       
     446       60.7619         0.000       
     445       60.7619         0.000       
     444       60.3893         0.000       
     443       60.3893         0.000       
     442       59.5368         0.000       
     441       59.5368         0.000       
     440       58.8541         0.000       
     439       58.8541         0.000       
     438       57.4832         0.000       
     437       57.4832         0.000       
     436       56.9425         0.000       
     435       56.9425         0.000       
     434       55.9113         0.000       
     433       55.9113         0.000       
     432       54.7796         0.000       
     431       54.7796         0.000       
     430       54.1035         0.000       
     429       54.1035         0.000       
     428       53.2917         0.000       
     427       53.2917         0.000       
     426       51.9172         0.000       
     425       51.9172         0.000       
     424       51.6732         0.000       
     423       51.6732         0.000       
     422       50.8413         0.000       
     421       50.8413         0.000       
     420       50.5729         0.000       
     419       50.5729         0.000       
     418       50.1409         0.000       
     417       50.1409         0.000       
     416       49.7329         0.000       
     415       49.7329         0.000       
     414       48.9957         0.000       
     413       48.9957         0.000       
     412       48.5580         0.000       
     411       48.5580         0.000       
     410       47.9019         0.000       
     409       47.9019         0.000       
     408       47.0140         0.000       
     407       47.0140         0.000       
     406       46.6812         0.000       
     405       46.6812         0.000       
     404       46.4274         0.000       
     403       46.4274         0.000       
     402       45.8635         0.000       
     401       45.8635         0.000       
     400       45.1569         0.000       
     399       45.1569         0.000       
     398       44.7622         0.000       
     397       44.7622         0.000       
     396       44.4233         0.000       
     395       44.4233         0.000       
     394       44.1826         0.000       
     393       44.1826         0.000       
     392       43.7671         0.000       
     391       43.7671         0.000       
     390       43.4729         0.000       
     389       43.4729         0.000       
     388       42.6012         0.000       
     387       42.6012         0.000       
     386       42.4278         0.000       
     385       42.4278         0.000       
     384       42.2476         0.000       
     383       42.2476         0.000       
     382       41.7131         0.000       
     381       41.7131         0.000       
     380       41.4729         0.000       
     379       41.4729         0.000       
     378       41.0731         0.000       
     377       41.0731         0.000       
     376       40.2126         0.000       
     375       40.2126         0.000       
     374       39.8147         0.000       
     373       39.8147         0.000       
     372       39.4844         0.000       
     371       39.4844         0.000       
     370       38.6641         0.000       
     369       38.6641         0.000       
     368       38.1168         0.000       
     367       38.1168         0.000       
     366       37.8266         0.000       
     365       37.8266         0.000       
     364       37.1508         0.000       
     363       37.1508         0.000       
     362       36.8983         0.000       
     361       36.8983         0.000       
     360       36.6169         0.000       
     359       36.6169         0.000       
     358       36.2725         0.000       
     357       36.2725         0.000       
     356       35.7604         0.000       
     355       35.7604         0.000       
     354       35.1771         0.000       
     353       35.1771         0.000       
     352       34.7654         0.000       
     351       34.7654         0.000       
     350       33.0490         0.000       
     349       33.0490         0.000       
     348       32.8997         0.000       
     347       32.8997         0.000       
     346       31.9090         0.000       
     345       31.9090         0.000       
     344       31.3734         0.000       
     343       31.3734         0.000       
     342       30.9312         0.000       
     341       30.9312         0.000       
     340       30.4835         0.000       
     339       30.4835         0.000       
     338       30.3695         0.000       
     337       30.3695         0.000       
     336       29.6186         0.000       
     335       29.6186         0.000       
     334       28.4652         0.000       
     333       28.4652         0.000       
     332       27.7375         0.000       
     331       27.7375         0.000       
     330       27.2479         0.000       
     329       27.2479         0.000       
     328       26.6874         0.000       
     327       26.6874         0.000       
     326       26.5228         0.000       
     325       26.5228         0.000       
     324       25.9275         0.000       
     323       25.9275         0.000       
     322       25.1956         0.000       
     321       25.1956         0.000       
     320       25.1704         0.000       
     319       25.1704         0.000       
     318       24.8477         0.000       
     317       24.8477         0.000       
     316       24.4789         0.000       
     315       24.4789         0.000       
     314       24.0956         0.000       
     313       24.0956         0.000       
     312       23.8095         0.000       
     311       23.8095         0.000       
     310       23.2578         0.000       
     309       23.2578         0.000       
     308       22.2192         0.000       
     307       22.2192         0.000       
     306       21.8483         0.000       
     305       21.8483         0.000       
     304       21.7535         0.000       
     303       21.7535         0.000       
     302       21.1135         0.000       
     301       21.1135         0.000       
     300       20.9478         0.000       
     299       20.9478         0.000       
     298       20.5210         0.000       
     297       20.5210         0.000       
     296       20.0816         0.000       
     295       20.0816         0.000       
     294       19.6387         0.000       
     293       19.6387         0.000       
     292       19.3679         0.000       
     291       19.3679         0.000       
     290       19.2797         0.000       
     289       19.2797         0.000       
     288       19.0850         0.000       
     287       19.0850         0.000       
     286       18.8808         0.000       
     285       18.8808         0.000       
     284       18.7914         0.000       
     283       18.7914         0.000       
     282       18.6437         0.000       
     281       18.6437         0.000       
     280       18.3612         0.000       
     279       18.3612         0.000       
     278       18.1017         0.000       
     277       18.1017         0.000       
     276       18.0500         0.000       
     275       18.0500         0.000       
     274       17.9669         0.000       
     273       17.9669         0.000       
     272       17.7791         0.000       
     271       17.7791         0.000       
     270       17.3745         0.000       
     269       17.3745         0.000       
     268       17.2742         0.000       
     267       17.2742         0.000       
     266       16.8700         0.000       
     265       16.8700         0.000       
     264       16.6451         0.000       
     263       16.6451         0.000       
     262       16.4106         0.000       
     261       16.4106         0.000       
     260       15.4774         0.000       
     259       15.4774         0.000       
     258       15.3211         0.000       
     257       15.3211         0.000       
     256       15.0910         0.000       
     255       15.0910         0.000       
     254       14.3533         0.000       
     253       14.3533         0.000       
     252       14.0852         0.000       
     251       14.0852         0.000       
     250       13.7467         0.000       
     249       13.7467         0.000       
     248       12.1204         0.000       
     247       12.1204         0.000       
     246       12.0402         0.000       
     245       12.0402         0.000       
     244       11.2387         0.000       
     243       11.2387         0.000       
     242       10.8396         0.000       
     241       10.8396         0.000       
     240       10.5737         0.000       
     239       10.5737         0.000       
     238       10.1824         0.000       
     237       10.1824         0.000       
     236       10.1264         0.000       
     235       10.1264         0.000       
     234        9.7290         0.000       
     233        9.7290         0.000       
     232        9.2855         0.000       
     231        9.2855         0.000       
     230        9.0002         0.000       
     229        9.0002         0.000       
     228        8.9546         0.000       
     227        8.9546         0.000       
     226        8.6977         0.000       
     225        8.6977         0.000       
     224        8.2799         0.000       
     223        8.2799         0.000       
     222        7.3175         0.000       
     221        7.3175         0.000       
     220        7.2311         0.000       
     219        7.2311         0.000       
     218        7.0478         0.000       
     217        7.0478         0.000       
     216        6.7527         0.000       
     215        6.7527         0.000       
     214        5.8316         0.000       
     213        5.8316         0.000       
     212        5.6542         0.000       
     211        5.6542         0.000       
     210        5.3982         0.000       
     209        5.3982         0.000       
     208        5.1992         0.000       
     207        5.1992         0.000       
     206        5.0609         0.000       
     205        5.0609         0.000       
     204        4.8926         0.000       
     203        4.8926         0.000       
     202        4.6264         0.000       
     201        4.6264         0.000       
     200        4.4191         0.000       
     199        4.4191         0.000       
     198        3.8298         0.000       
     197        3.8298         0.000       
     196        3.6928         0.000       
     195        3.6928         0.000       
     194        3.0314         0.000       
     193        3.0314         0.000       
     192        2.4736         0.000       
     191        2.4736         0.000       
     190        2.3796         0.000       
     189        2.3796         0.000       
     188        2.1459         0.000       
     187        2.1459         0.000       
     186        2.0200         0.000       
     185        2.0200         0.000       
     184        1.6693         0.000       
     183        1.6693         0.000       
     182        1.5195         0.000       
     181        1.5195         0.000       
     180        1.2269         0.000       
     179        1.2269         0.000       
     178        0.9838         0.000       
     177        0.9838         0.000 < LUMO
     176       -2.9703         1.000 < HOMO
     175       -2.9703         1.000       
     174       -3.2663         1.000       
     173       -3.2663         1.000       
     172       -3.9470         1.000       
     171       -3.9470         1.000       
     170       -4.8443         1.000       
     169       -4.8443         1.000       
     168       -4.9705         1.000       
     167       -4.9705         1.000       
     166       -5.0344         1.000       
     165       -5.0344         1.000       
     164       -5.1590         1.000       
     163       -5.1590         1.000       
     162       -5.2996         1.000       
     161       -5.2996         1.000       
     160       -5.4361         1.000       
     159       -5.4361         1.000       
     158       -5.5845         1.000       
     157       -5.5845         1.000       
     156       -5.6713         1.000       
     155       -5.6713         1.000       
     154       -5.8411         1.000       
     153       -5.8411         1.000       
     152       -5.9188         1.000       
     151       -5.9188         1.000       
     150       -6.2915         1.000       
     149       -6.2915         1.000       
     148       -6.4451         1.000       
     147       -6.4451         1.000       
     146       -6.5753         1.000       
     145       -6.5753         1.000       
     144       -8.2666         1.000       
     143       -8.2666         1.000       
     142       -8.6284         1.000       
     141       -8.6284         1.000       
     140       -8.6867         1.000       
     139       -8.6867         1.000       
     138       -9.1131         1.000       
     137       -9.1131         1.000       
     136       -9.7341         1.000       
     135       -9.7341         1.000       
     134       -9.9270         1.000       
     133       -9.9270         1.000       
     132      -10.4543         1.000       
     131      -10.4543         1.000       
     130      -11.6298         1.000       
     129      -11.6298         1.000       
     128      -18.5795         1.000       
     127      -18.5795         1.000       
     126      -18.7814         1.000       
     125      -18.7814         1.000       
     124      -22.3111         1.000       
     123      -22.3111         1.000       
     122      -22.3172         1.000       
     121      -22.3172         1.000       
     120      -22.6745         1.000       
     119      -22.6745         1.000       
     118      -22.8693         1.000       
     117      -22.8693         1.000       
     116      -23.1221         1.000       
     115      -23.1221         1.000       
     114      -23.7999         1.000       
     113      -23.7999         1.000       
     112      -24.2216         1.000       
     111      -24.2216         1.000       
     110      -26.8870         1.000       
     109      -26.8870         1.000       
     108      -28.4897         1.000       
     107      -28.4897         1.000       
     106      -46.1549         1.000       
     105      -46.1549         1.000       
     104      -92.9086         1.000       
     103      -92.9086         1.000       
     102      -92.9325         1.000       
     101      -92.9325         1.000       
     100      -92.9525         1.000       
      99      -92.9525         1.000       
      98     -100.3325         1.000       
      97     -100.3325         1.000       
      96     -100.3628         1.000       
      95     -100.3628         1.000       
      94     -160.0495         1.000       
      93     -160.0495         1.000       
      92     -160.0921         1.000       
      91     -160.0921         1.000       
      90     -161.3126         1.000       
      89     -161.3126         1.000       
      88     -189.8915         1.000       
      87     -189.8915         1.000       
      86     -189.9296         1.000       
      85     -189.9296         1.000       
      84     -217.2961         1.000       
      83     -217.2961         1.000       
      82     -238.2246         1.000       
      81     -238.2246         1.000       
      80     -300.3480         1.000       
      79     -300.3480         1.000       
      78     -350.8659         1.000       
      77     -350.8659         1.000       
      76     -350.8921         1.000       
      75     -350.8921         1.000       
      74     -350.9270         1.000       
      73     -350.9270         1.000       
      72     -350.9465         1.000       
      71     -350.9465         1.000       
      70     -360.6256         1.000       
      69     -360.6256         1.000       
      68     -360.6655         1.000       
      67     -360.6655         1.000       
      66     -360.6966         1.000       
      65     -360.6966         1.000       
      64     -515.6509         1.000       
      63     -515.6509         1.000       
      62     -515.6584         1.000       
      61     -515.6584         1.000       
      60     -516.6598         1.000       
      59     -516.6598         1.000       
      58     -516.7433         1.000       
      57     -516.7433         1.000       
      56     -517.2321         1.000       
      55     -517.2321         1.000       
      54     -517.2792         1.000       
      53     -517.2792         1.000       
      52     -517.3023         1.000       
      51     -517.3023         1.000       
      50     -517.3204         1.000       
      49     -517.3204         1.000       
      48     -690.1398         1.000       
      47     -690.1398         1.000       
      46     -690.1866         1.000       
      45     -690.1866         1.000       
      44     -690.2166         1.000       
      43     -690.2166         1.000       
      42     -729.4649         1.000       
      41     -729.4649         1.000       
      40     -729.5175         1.000       
      39     -729.5175         1.000       
      38     -979.4222         1.000       
      37     -979.4222         1.000       
      36     -979.4757         1.000       
      35     -979.4757         1.000       
      34    -1186.2228         1.000       
      33    -1186.2228         1.000       
      32    -1349.3805         1.000       
      31    -1349.3805         1.000       
      30    -2426.5472         1.000       
      29    -2426.5472         1.000       
      28    -3406.3772         1.000       
      27    -3406.3772         1.000       
      26    -3406.3973         1.000       
      25    -3406.3973         1.000       
      24    -3406.4108         1.000       
      23    -3406.4108         1.000       
      22    -3573.1751         1.000       
      21    -3573.1751         1.000       
      20    -3573.1964         1.000       
      19    -3573.1964         1.000       
      18    -4127.0761         1.000       
      17    -4127.0761         1.000       
      16    -4127.1063         1.000       
      15    -4127.1063         1.000       
      14    -4922.8812         1.000       
      13    -4922.8812         1.000       
      12    -5299.6770         1.000       
      11    -5299.6770         1.000       
      10   -16645.3623         1.000       
       9   -16645.3623         1.000       
       8   -16645.3662         1.000       
       7   -16645.3662         1.000       
       6   -20123.0405         1.000       
       5   -20123.0405         1.000       
       4   -20996.6375         1.000       
       3   -20996.6375         1.000       
       2  -112592.1805         1.000       
       1  -112592.1805         1.000       

AMS application finished. Exiting.
NORMAL TERMINATION
     Total cpu time:     705.39
  Total system time:      30.59
 Total elapsed time:     737.54
