
 Working directory              : /state/partition2/shaaban/971657.phlam-s-sakura/molpro.KqAVq5L6lq/
 Global scratch directory       : /state/partition2/shaaban/971657.phlam-s-sakura/molpro.KqAVq5L6lq/
 Wavefunction directory         : /home/shaaban/wfu/
 Main file repository           : /state/partition2/shaaban/971657.phlam-s-sakura/molpro.KqAVq5L6lq/

 id        : lill

 Nodes       nprocs
 u-0-13.local    8
 GA implementation: MPI file
 GA implementation (serial work in mppx): MPI file

 Using customized tuning parameters: mindgm=1; mindgv=20; mindgc=4; mindgr=1; noblas=0; minvec=7
 default implementation of scratch files=sf  


 Variables initialized (1025), CPU time= 0.01 sec
 ***,PaO(OH)2(C2O4)(H2O) - MP2 and CCSD(T)
 memory,5000, m;
 file, 1, pao_oh2_c2o4_h2o.ccsd-tx.int, new;
 file, 2, pao_oh2_c2o4_h2o.ccsd-tx.wfu, new;
 
 gprint, basis;
 gprint, orbital=10;
 
 nosym;
 
 geomtyp=xyz;
 
 geometry={
 Including file /home/shaaban/molpro/PhD/oxalate/pao_oh2_c2o4_h2o/pao_oh2_c2o4_h2o-A2-solvent.xyz
 }
 
 charge=-1;
 
                                                                                 ! Select X2C SR Hamiltonian
 SET,DKHO=101
 
                                                                                 ! Calculation with VTZ basis set
 basis={
 Pa=cc-pVTZ-X2C;
 O=aug-cc-pVTZ-X2C;
 H=aug-cc-pVTZ-X2C;
 C=aug-cc-pVTZ-X2C;
 }
 
                                                                                 ! Hartree-Fock calculation
 {hf;}
 
                                                                                 ! MP2 and CCSD(T) calculation
 {ccsd(t);}
 
                                                                  ! Save HF energy and CCSD(T) correlation energy for VTZ basis set
 energy_hf(1) = energr(1);
 corr_mp2(1) = EMP2-energr(1);
 corr_ccsdt(1) = ENERGT(1)-energr(1);
 
 Commands initialized (840), CPU time= 0.01 sec, 684 directives.
 Default parameters read. Elapsed time= 0.30 sec

 Checking input...
 Passed
1


                                         ***  PROGRAM SYSTEM MOLPRO  ***
                                       Copyright, TTI GmbH Stuttgart, 2015
                                    Version 2022.3 linked Wed Nov 30 12:40:34 2022


 **********************************************************************************************************************************
 LABEL *   PaO(OH(H2O) - CCSD(T)                                                         
  64 bit mpp version                                                                     DATE: 22-Jun-23          TIME: 17:27:37  
 **********************************************************************************************************************************

 SHA1:             e31ec9a5ea85254ab76f59d122cbdd51c71cf98b
 **********************************************************************************************************************************

 Memory per process:      5000 MW
 Total memory per node:  40000 MW

 GA preallocation disabled
 GA check disabled

 Variable memory set to 5000.0 MW



 Permanent file  1  pao_oh2_c2o4_h2o.ccsd-tx.int     assigned.  Implementation=df  
 Permanent file  2  pao_oh2_c2o4_h2o.ccsd-tx.wfu     assigned.  Implementation=df  



 **********************************************************************************************************************************
 DATASETS  * FILE   NREC   LENGTH (MB)   RECORD NAMES
              1       1        0.03       500   
                                          VAR  

              2       1        0.03       500   
                                          VAR  

 PROGRAMS   *        TOTAL      FILE
 CPU TIMES  *         0.22      0.02
 REAL TIME  *         0.94 SEC
 DISK USED  *         0.10 MB (local),        0.81 MB (total)
 **********************************************************************************************************************************


 SETTING GEOMTYP        =    XYZ
 ZSYMEL=NOSYM

 SETTING CHARGE         =        -1.00000000                                  
 SETTING DKHO           =       101.00000000                                  
 SETTING BASIS          =    PA=CC-PVTZ-X2C,O=AUG-CC-PVTZ-X2C,H=AUG-CC-PVTZ-X2C,C=AUG-CC-PVTZ-X2C


 Recomputing integrals since basis changed


 Using spherical harmonics

 Library entry PA     S cc-pVTZ-X2C          selected for orbital group  1
 Library entry PA     P cc-pVTZ-X2C          selected for orbital group  1
 Library entry PA     D cc-pVTZ-X2C          selected for orbital group  1
 Library entry PA     F cc-pVTZ-X2C          selected for orbital group  1
 Library entry PA     G cc-pVTZ-X2C          selected for orbital group  1
 Library entry PA     H cc-pVTZ-X2C          selected for orbital group  1
 Library entry O      S aug-cc-pVTZ-X2C      selected for orbital group  2
 Library entry O      P aug-cc-pVTZ-X2C      selected for orbital group  2
 Library entry O      D aug-cc-pVTZ-X2C      selected for orbital group  2
 Library entry O      F aug-cc-pVTZ-X2C      selected for orbital group  2
 Library entry H      S aug-cc-pVTZ-X2C      selected for orbital group  3
 Library entry H      P aug-cc-pVTZ-X2C      selected for orbital group  3
 Library entry H      D aug-cc-pVTZ-X2C      selected for orbital group  3
 Library entry C      S aug-cc-pVTZ-X2C      selected for orbital group  7
 Library entry C      P aug-cc-pVTZ-X2C      selected for orbital group  7
 Library entry C      D aug-cc-pVTZ-X2C      selected for orbital group  7
 Library entry C      F aug-cc-pVTZ-X2C      selected for orbital group  7


 PROGRAM * SEWARD (Integral evaluation for generally contracted gaussian basis sets)     Author: Roland Lindh, 1990

 Geometry written to block  1 of record 700


 Point group  C1  



 ATOMIC COORDINATES

 NR  ATOM    CHARGE       X              Y              Z

   1  PA     91.00    0.854712610    1.282475883   -0.232564316
   2  O       8.00    4.852043616    1.523011136   -1.295558631
   3  H       1.00   -1.651882588    2.765285531   -4.795334968
   4  O       8.00    1.484727847   -0.064913149    2.996168160
   5  O       8.00   -0.085926576    2.193941378   -4.050319515
   6  O       8.00   -0.900067855   -3.007175601   -1.363939498
   7  H       1.00   -1.723639245   -3.463764802   -2.927583791
   8  H       1.00   -1.137214620   -4.397263609   -0.205290552
   9  H       1.00    6.248686831    1.106444342   -0.202617810
  10  O       8.00    0.465957523    5.515887962    1.099211074
  11  C       6.00   -3.945024628    4.653434623    1.701440992
  12  C       6.00   -1.637569543    6.514732883    1.827336605
  13  O       8.00   -3.357112606    2.430302146    0.899556958
  14  O       8.00   -6.058062115    5.361172592    2.326536972
  15  O       8.00   -1.920819141    8.690421242    2.558335003

 Bond lengths in Bohr (Angstrom)

 1-2  4.143243812  1-3  5.413004708  1-4  3.554868465  1-5  4.036189563  1-6  4.770783388
     ( 2.192510205)     ( 2.864438734)     ( 1.881155379)     ( 2.135859535)     ( 2.524589847)

  1- 7  6.036375477   1- 8  6.018966576   1- 9  5.396928923   1-10  4.454944898   1-11  6.175857585
       ( 3.194312339)       ( 3.185099945)       ( 2.855931795)       ( 2.357455316)       ( 3.268123092)

  1-12  6.150705281   1-13  4.509842055   2- 9  1.821718915   3- 5  1.825842381   6- 7  1.825301895
       ( 3.254813066)       ( 2.386505640)       ( 0.964012134)       ( 0.966194179)       ( 0.965908166)

  6- 8  1.825116609  10-12  2.439812305  11-12  2.967259659  11-13  2.435359637  11-14  2.314425510
       ( 0.965810117)       ( 1.291093071)       ( 1.570206190)       ( 1.288736820)       ( 1.224741236)

 12-15  2.312619473
       ( 1.223785523)

 Bond angles

  1-2-9  124.92220792   1-3-5   34.22611508   1-5-3  131.03354184   1-6-7  126.44334521

  1-6-8  125.59664038   1-7-6   39.47815852   1-8-6   40.12902524   1-9-2   39.01055622

  1-10-12  123.60657573   1-11-12   75.59999772   1-11-13   37.90873243   1-11-14  163.95447432

  1-12-10   37.10211062   1-12-11   76.54279525   1-12-15  162.90072377   1-13-11  122.71410989

  2-1-3  102.39180957   2-1-4   94.82098172   2-1-5   88.22685397   2-1-6  110.25641438

  2- 1- 7  110.07166662   2- 1- 8  112.03867495   2- 1- 9   16.06723586   2- 1-10   96.06863786

  2- 1-11  142.98358903   2- 1-12  115.30712382   2- 1-13  161.92629463   3- 1- 4  162.08069592

  3-1-5   14.74034308   3-1-6   82.88194562   3-1-7   68.97704323   3-1-8   96.26150426

  3- 1- 9  118.45235074   3- 1-10   87.20662320   3- 1-11   75.79212714   3- 1-12   82.04669752

  3- 1-13   73.10692645   4- 1- 5  170.40080013   4- 1- 6   86.54728315   4- 1- 7  100.55529448

  4- 1- 8   72.35438294   4- 1- 9   78.78264695   4- 1-10   95.97685573   4- 1-11   93.45093219

  4- 1-12   95.16715143   4- 1-13   91.94729278   5- 1- 6   83.85851938   5- 1- 7   69.86173342

  5- 1- 8   98.06263755   5- 1- 9  104.21362316   5- 1-10   92.74173847   5- 1-11   89.53160863

  5- 1-12   91.73315871   5- 1-13   87.84065667   6- 1- 7   14.07849628   6- 1- 8   14.27433438

  6- 1- 9  109.85281239   6- 1-10  153.28250097   6- 1-11  106.21161247   6- 1-12  134.04843660

  6- 1-13   86.83954359   7- 1- 8   28.20124992   7- 1- 9  113.81177930   7- 1-10  147.49745881

  7- 1-11  103.71087513   7- 1-12  130.18891361   7- 1-13   85.02541701   7- 6- 8  107.13861421

  8- 1- 9  107.45500281   8- 1-10  150.05233172   8- 1-11  104.85930023   8- 1-12  131.84487097

  8- 1-13   85.98378851   9- 1-10   96.69316158   9- 1-11  142.44960550   9- 1-12  115.52272068

  9- 1-13  160.10467002  10- 1-11   47.14690159  10- 1-12   19.29131365  10- 1-13   66.52172042

 10-12-11  113.63998157  10-12-15  125.80897446  11- 1-12   27.85720703  11- 1-13   19.37715769

 11-12-15  120.55087026  12- 1-13   47.23373979  12-11-13  113.50680969  12-11-14  120.44395587

 13-11-14  126.04905260


 BASIS DATA

   Nr Sym  Nuc  Type         Exponents   Contraction coefficients

    1.1 A     1  1s    57606659.000000     0.002669    0.000875   -0.001011   -0.000162    0.000138   -0.000062
                                           0.000029    0.000051   -0.000067   -0.000085    0.000000
    2.1 A              15333099.000000     0.001763    0.000577   -0.000669   -0.000107    0.000091   -0.000041
                                           0.000019    0.000034   -0.000045   -0.000056    0.000000
    3.1 A               5244434.800000     0.005688    0.001860   -0.002159   -0.000346    0.000294   -0.000133
                                           0.000061    0.000110   -0.000144   -0.000182    0.000000
    4.1 A               1993947.300000     0.005833    0.001897   -0.002226   -0.000357    0.000304   -0.000137
                                           0.000063    0.000114   -0.000148   -0.000188    0.000000
    5.1 A                831464.670000     0.012471    0.004046   -0.004768   -0.000766    0.000651   -0.000294
                                           0.000135    0.000243   -0.000318   -0.000402    0.000000
    6.1 A                367473.800000     0.015337    0.004923   -0.005922   -0.000954    0.000810   -0.000366
                                           0.000168    0.000303   -0.000396   -0.000502    0.000000
    7.1 A                170948.980000     0.027802    0.008860   -0.010807   -0.001745    0.001481   -0.000669
                                           0.000307    0.000553   -0.000723   -0.000913    0.000000
    8.1 A                 82498.208000     0.037893    0.011845   -0.014983   -0.002432    0.002060   -0.000931
                                           0.000428    0.000771   -0.001008   -0.001281    0.000000
    9.1 A                 41068.557000     0.063446    0.019489   -0.025472   -0.004156    0.003514   -0.001588
                                           0.000730    0.001312   -0.001713   -0.002158    0.000000
   10.1 A                 20931.097000     0.090970    0.026964   -0.037612   -0.006192    0.005220   -0.002360
                                           0.001084    0.001959   -0.002562   -0.003271    0.000000
   11.1 A                 10881.858000     0.141353    0.040137   -0.060450   -0.010069    0.008456   -0.003823
                                           0.001756    0.003150   -0.004109   -0.005142    0.000000
                           5751.850200     0.192150    0.050328   -0.087023   -0.014758    0.012320   -0.005570
                                           0.002559    0.004641   -0.006081   -0.007843    0.000000
                           3085.413800     0.245625    0.057494   -0.119370   -0.020746    0.017180   -0.007769
                                           0.003568    0.006365   -0.008281   -0.010186    0.000000
                           1676.302600     0.236828    0.048791   -0.122988   -0.021795    0.017936   -0.008112
                                           0.003728    0.006861   -0.009046   -0.012129    0.000000
                            920.364860     0.144288    0.051386   -0.045258   -0.005640    0.005268   -0.002373
                                           0.001085    0.001652   -0.001974   -0.001042    0.000000
                            507.302700    -0.025759    0.115725    0.203246    0.056561   -0.041187    0.018724
                                          -0.008598   -0.014902    0.019190    0.021482    0.000000
                            285.301180    -0.127248    0.207489    0.548666    0.172341   -0.122683    0.055908
                                          -0.025737   -0.047910    0.063712    0.088054    0.000000
                            162.083520    -0.106345    0.166212    0.606264    0.222723   -0.155054    0.070944
                                          -0.032607   -0.056240    0.072273    0.078654    0.000000
                             92.502257    -0.075897    0.111536    0.036795   -0.036386    0.019294   -0.009062
                                           0.004086    0.001475    0.001168    0.030443    0.000000
                             54.996696    -0.159518    0.199400   -0.676887   -0.645265    0.447335   -0.211910
                                           0.098395    0.193270   -0.267108   -0.419400    0.000000
                             32.498055    -0.126680    0.162427   -0.590845   -0.685716    0.477369   -0.227312
                                           0.105023    0.171409   -0.214999   -0.161690    0.000000
                             19.139224    -0.031866    0.038627   -0.102127    0.187644   -0.152132    0.072681
                                          -0.032972   -0.027495    0.028200   -0.136514    0.000000
                             11.382710     0.001867    0.000895    0.103491    0.862021   -0.976205    0.547811
                                          -0.263192   -0.581563    0.872312    1.708580    0.000000
                              6.786052     0.000710   -0.001446    0.057992    0.445035   -0.716251    0.417708
                                          -0.198179   -0.257965    0.233684   -0.803168    0.000000
                              4.149622     0.000624    0.000224    0.007493    0.066545    0.448492   -0.350229
                                           0.170540    0.219139   -0.310498    1.111350    0.000000
                              2.398648    -0.000456    0.000036    0.000333    0.014140    0.872214   -0.849732
                                           0.456257    1.306370   -2.312230   -7.677220    0.000000
                              1.389239     0.000090    0.000196   -0.000539    0.002102    0.319316   -0.431871
                                           0.230358    0.273179    0.312923   10.897300    0.000000
                              0.799685    -0.000092   -0.000045    0.000120    0.000488    0.047531    0.436228
                                          -0.277578   -1.772950    4.829150   -2.756210    0.000000
                              0.427327     0.000032    0.000027   -0.000069   -0.000720    0.030738    0.715435
                                          -0.561943   -0.897998   -3.625440   -6.603630    0.000000
                              0.220940    -0.000014   -0.000008    0.000023   -0.000086    0.010089    0.233487
                                          -0.326569    1.531090   -1.220420    6.760400    0.000000
                              0.086038     0.000004    0.000003   -0.000008   -0.000060    0.001152    0.063336
                                           0.301677    1.025940    2.677810   -2.145480    0.000000
                              0.041219    -0.000002   -0.000001    0.000004   -0.000044    0.001537    0.118995
                                           0.692734   -0.772162   -0.536170   -1.021350    0.000000
                              0.018781     0.000001    0.000000   -0.000001   -0.000024    0.000590    0.043903
                                           0.253879   -0.484754   -0.805222    1.252960    1.000000
   12.1 A     1  2px   52575799.000000     0.000013
                       15301659.000000     0.000017
                        4822461.600000     0.000052
                        1632045.600000     0.000107
                         584338.640000     0.000256
                         219508.320000     0.000572
                          86085.039000     0.001336
                          35172.956000     0.003129
                          14975.745000     0.007503
                           6652.821900     0.017986
                           3084.270200     0.042103
                           1489.211300     0.090969
                            745.288670     0.167976
                            384.521300     0.234709
                            203.927220     0.220200
                            110.523340     0.174708
                             61.345569     0.190642
                             34.404375     0.137246
                             19.094147     0.033402
                             10.684628    -0.000867
                              5.931463    -0.000935
                              3.230992    -0.000009
                              1.730655     0.000164
                              0.869483     0.000022
                              0.440589     0.000009
                              0.215859    -0.000000
                              0.091015     0.000001
                              0.040174    -0.000000
                              0.017215     0.000000
   13.1 A     1  2py   52575799.000000     0.000013
                       15301659.000000     0.000017
                        4822461.600000     0.000052
                        1632045.600000     0.000107
                         584338.640000     0.000256
                         219508.320000     0.000572
                          86085.039000     0.001336
                          35172.956000     0.003129
                          14975.745000     0.007503
                           6652.821900     0.017986
                           3084.270200     0.042103
                           1489.211300     0.090969
                            745.288670     0.167976
                            384.521300     0.234709
                            203.927220     0.220200
                            110.523340     0.174708
                             61.345569     0.190642
                             34.404375     0.137246
                             19.094147     0.033402
                             10.684628    -0.000867
                              5.931463    -0.000935
                              3.230992    -0.000009
                              1.730655     0.000164
                              0.869483     0.000022
                              0.440589     0.000009
                              0.215859    -0.000000
                              0.091015     0.000001
                              0.040174    -0.000000
                              0.017215     0.000000
   14.1 A     1  2pz   52575799.000000     0.000013
                       15301659.000000     0.000017
                        4822461.600000     0.000052
                        1632045.600000     0.000107
                         584338.640000     0.000256
                         219508.320000     0.000572
                          86085.039000     0.001336
                          35172.956000     0.003129
                          14975.745000     0.007503
                           6652.821900     0.017986
                           3084.270200     0.042103
                           1489.211300     0.090969
                            745.288670     0.167976
                            384.521300     0.234709
                            203.927220     0.220200
                            110.523340     0.174708
                             61.345569     0.190642
                             34.404375     0.137246
                             19.094147     0.033402
                             10.684628    -0.000867
                              5.931463    -0.000935
                              3.230992    -0.000009
                              1.730655     0.000164
                              0.869483     0.000022
                              0.440589     0.000009
                              0.215859    -0.000000
                              0.091015     0.000001
                              0.040174    -0.000000
                              0.017215     0.000000
   15.1 A     1  2px   52575799.000000    -0.000015
                       15301659.000000    -0.000020
                        4822461.600000    -0.000063
                        1632045.600000    -0.000128
                         584338.640000    -0.000307
                         219508.320000    -0.000688
                          86085.039000    -0.001611
                          35172.956000    -0.003789
                          14975.745000    -0.009145
                           6652.821900    -0.022135
                           3084.270200    -0.052666
                           1489.211300    -0.116756
                            745.288670    -0.223673
                            384.521300    -0.322150
                            203.927220    -0.236330
                            110.523340     0.145050
                             61.345569     0.527334
                             34.404375     0.400957
                             19.094147     0.019469
                             10.684628    -0.122609
                              5.931463    -0.050931
                              3.230992    -0.002720
                              1.730655     0.002231
                              0.869483     0.000423
                              0.440589     0.000084
                              0.215859     0.000018
                              0.091015     0.000006
                              0.040174    -0.000002
                              0.017215     0.000001
   16.1 A     1  2py   52575799.000000    -0.000015
                       15301659.000000    -0.000020
                        4822461.600000    -0.000063
                        1632045.600000    -0.000128
                         584338.640000    -0.000307
                         219508.320000    -0.000688
                          86085.039000    -0.001611
                          35172.956000    -0.003789
                          14975.745000    -0.009145
                           6652.821900    -0.022135
                           3084.270200    -0.052666
                           1489.211300    -0.116756
                            745.288670    -0.223673
                            384.521300    -0.322150
                            203.927220    -0.236330
                            110.523340     0.145050
                             61.345569     0.527334
                             34.404375     0.400957
                             19.094147     0.019469
                             10.684628    -0.122609
                              5.931463    -0.050931
                              3.230992    -0.002720
                              1.730655     0.002231
                              0.869483     0.000423
                              0.440589     0.000084
                              0.215859     0.000018
                              0.091015     0.000006
                              0.040174    -0.000002
                              0.017215     0.000001
   17.1 A     1  2pz   52575799.000000    -0.000015
                       15301659.000000    -0.000020
                        4822461.600000    -0.000063
                        1632045.600000    -0.000128
                         584338.640000    -0.000307
                         219508.320000    -0.000688
                          86085.039000    -0.001611
                          35172.956000    -0.003789
                          14975.745000    -0.009145
                           6652.821900    -0.022135
                           3084.270200    -0.052666
                           1489.211300    -0.116756
                            745.288670    -0.223673
                            384.521300    -0.322150
                            203.927220    -0.236330
                            110.523340     0.145050
                             61.345569     0.527334
                             34.404375     0.400957
                             19.094147     0.019469
                             10.684628    -0.122609
                              5.931463    -0.050931
                              3.230992    -0.002720
                              1.730655     0.002231
                              0.869483     0.000423
                              0.440589     0.000084
                              0.215859     0.000018
                              0.091015     0.000006
                              0.040174    -0.000002
                              0.017215     0.000001
   18.1 A     1  2px   52575799.000000     0.000002
                       15301659.000000     0.000002
                        4822461.600000     0.000007
                        1632045.600000     0.000015
                         584338.640000     0.000036
                         219508.320000     0.000081
                          86085.039000     0.000191
                          35172.956000     0.000452
                          14975.745000     0.001103
                           6652.821900     0.002719
                           3084.270200     0.006655
                           1489.211300     0.015415
                            745.288670     0.031304
                            384.521300     0.047289
                            203.927220     0.017930
                            110.523340    -0.123036
                             61.345569    -0.327485
                             34.404375    -0.190153
                             19.094147     0.365341
                             10.684628     0.614487
                              5.931463     0.253665
                              3.230992     0.025247
                              1.730655     0.001457
                              0.869483    -0.000189
                              0.440589     0.000178
                              0.215859    -0.000001
                              0.091015     0.000034
                              0.040174    -0.000010
                              0.017215     0.000003
   19.1 A     1  2py   52575799.000000     0.000002
                       15301659.000000     0.000002
                        4822461.600000     0.000007
                        1632045.600000     0.000015
                         584338.640000     0.000036
                         219508.320000     0.000081
                          86085.039000     0.000191
                          35172.956000     0.000452
                          14975.745000     0.001103
                           6652.821900     0.002719
                           3084.270200     0.006655
                           1489.211300     0.015415
                            745.288670     0.031304
                            384.521300     0.047289
                            203.927220     0.017930
                            110.523340    -0.123036
                             61.345569    -0.327485
                             34.404375    -0.190153
                             19.094147     0.365341
                             10.684628     0.614487
                              5.931463     0.253665
                              3.230992     0.025247
                              1.730655     0.001457
                              0.869483    -0.000189
                              0.440589     0.000178
                              0.215859    -0.000001
                              0.091015     0.000034
                              0.040174    -0.000010
                              0.017215     0.000003
   20.1 A     1  2pz   52575799.000000     0.000002
                       15301659.000000     0.000002
                        4822461.600000     0.000007
                        1632045.600000     0.000015
                         584338.640000     0.000036
                         219508.320000     0.000081
                          86085.039000     0.000191
                          35172.956000     0.000452
                          14975.745000     0.001103
                           6652.821900     0.002719
                           3084.270200     0.006655
                           1489.211300     0.015415
                            745.288670     0.031304
                            384.521300     0.047289
                            203.927220     0.017930
                            110.523340    -0.123036
                             61.345569    -0.327485
                             34.404375    -0.190153
                             19.094147     0.365341
                             10.684628     0.614487
                              5.931463     0.253665
                              3.230992     0.025247
                              1.730655     0.001457
                              0.869483    -0.000189
                              0.440589     0.000178
                              0.215859    -0.000001
                              0.091015     0.000034
                              0.040174    -0.000010
                              0.017215     0.000003
   21.1 A     1  2px   52575799.000000    -0.000002
                       15301659.000000    -0.000003
                        4822461.600000    -0.000009
                        1632045.600000    -0.000018
                         584338.640000    -0.000043
                         219508.320000    -0.000097
                          86085.039000    -0.000228
                          35172.956000    -0.000537
                          14975.745000    -0.001302
                           6652.821900    -0.003177
                           3084.270200    -0.007652
                           1489.211300    -0.017311
                            745.288670    -0.034068
                            384.521300    -0.050256
                            203.927220    -0.027762
                            110.523340     0.078094
                             61.345569     0.225253
                             34.404375     0.124053
                             19.094147    -0.273486
                             10.684628    -0.553839
                              5.931463    -0.065277
                              3.230992     0.618524
                              1.730655     0.501044
                              0.869483     0.107343
                              0.440589     0.023201
                              0.215859     0.014691
                              0.091015     0.001511
                              0.040174     0.000132
                              0.017215    -0.000015
   22.1 A     1  2py   52575799.000000    -0.000002
                       15301659.000000    -0.000003
                        4822461.600000    -0.000009
                        1632045.600000    -0.000018
                         584338.640000    -0.000043
                         219508.320000    -0.000097
                          86085.039000    -0.000228
                          35172.956000    -0.000537
                          14975.745000    -0.001302
                           6652.821900    -0.003177
                           3084.270200    -0.007652
                           1489.211300    -0.017311
                            745.288670    -0.034068
                            384.521300    -0.050256
                            203.927220    -0.027762
                            110.523340     0.078094
                             61.345569     0.225253
                             34.404375     0.124053
                             19.094147    -0.273486
                             10.684628    -0.553839
                              5.931463    -0.065277
                              3.230992     0.618524
                              1.730655     0.501044
                              0.869483     0.107343
                              0.440589     0.023201
                              0.215859     0.014691
                              0.091015     0.001511
                              0.040174     0.000132
                              0.017215    -0.000015
   23.1 A     1  2pz   52575799.000000    -0.000002
                       15301659.000000    -0.000003
                        4822461.600000    -0.000009
                        1632045.600000    -0.000018
                         584338.640000    -0.000043
                         219508.320000    -0.000097
                          86085.039000    -0.000228
                          35172.956000    -0.000537
                          14975.745000    -0.001302
                           6652.821900    -0.003177
                           3084.270200    -0.007652
                           1489.211300    -0.017311
                            745.288670    -0.034068
                            384.521300    -0.050256
                            203.927220    -0.027762
                            110.523340     0.078094
                             61.345569     0.225253
                             34.404375     0.124053
                             19.094147    -0.273486
                             10.684628    -0.553839
                              5.931463    -0.065277
                              3.230992     0.618524
                              1.730655     0.501044
                              0.869483     0.107343
                              0.440589     0.023201
                              0.215859     0.014691
                              0.091015     0.001511
                              0.040174     0.000132
                              0.017215    -0.000015
   24.1 A     1  2px   52575799.000000     0.000001
                       15301659.000000     0.000001
                        4822461.600000     0.000004
                        1632045.600000     0.000008
                         584338.640000     0.000019
                         219508.320000     0.000043
                          86085.039000     0.000102
                          35172.956000     0.000240
                          14975.745000     0.000583
                           6652.821900     0.001422
                           3084.270200     0.003426
                           1489.211300     0.007745
                            745.288670     0.015249
                            384.521300     0.022470
                            203.927220     0.012451
                            110.523340    -0.035134
                             61.345569    -0.101385
                             34.404375    -0.055104
                             19.094147     0.131617
                             10.684628     0.274237
                              5.931463     0.008683
                              3.230992    -0.421618
                              1.730655    -0.381893
                              0.869483     0.226214
                              0.440589     0.602150
                              0.215859     0.367232
                              0.091015     0.055939
                              0.040174    -0.001129
                              0.017215     0.001121
   25.1 A     1  2py   52575799.000000     0.000001
                       15301659.000000     0.000001
                        4822461.600000     0.000004
                        1632045.600000     0.000008
                         584338.640000     0.000019
                         219508.320000     0.000043
                          86085.039000     0.000102
                          35172.956000     0.000240
                          14975.745000     0.000583
                           6652.821900     0.001422
                           3084.270200     0.003426
                           1489.211300     0.007745
                            745.288670     0.015249
                            384.521300     0.022470
                            203.927220     0.012451
                            110.523340    -0.035134
                             61.345569    -0.101385
                             34.404375    -0.055104
                             19.094147     0.131617
                             10.684628     0.274237
                              5.931463     0.008683
                              3.230992    -0.421618
                              1.730655    -0.381893
                              0.869483     0.226214
                              0.440589     0.602150
                              0.215859     0.367232
                              0.091015     0.055939
                              0.040174    -0.001129
                              0.017215     0.001121
   26.1 A     1  2pz   52575799.000000     0.000001
                       15301659.000000     0.000001
                        4822461.600000     0.000004
                        1632045.600000     0.000008
                         584338.640000     0.000019
                         219508.320000     0.000043
                          86085.039000     0.000102
                          35172.956000     0.000240
                          14975.745000     0.000583
                           6652.821900     0.001422
                           3084.270200     0.003426
                           1489.211300     0.007745
                            745.288670     0.015249
                            384.521300     0.022470
                            203.927220     0.012451
                            110.523340    -0.035134
                             61.345569    -0.101385
                             34.404375    -0.055104
                             19.094147     0.131617
                             10.684628     0.274237
                              5.931463     0.008683
                              3.230992    -0.421618
                              1.730655    -0.381893
                              0.869483     0.226214
                              0.440589     0.602150
                              0.215859     0.367232
                              0.091015     0.055939
                              0.040174    -0.001129
                              0.017215     0.001121
   27.1 A     1  2px   52575799.000000    -0.000000
                       15301659.000000    -0.000000
                        4822461.600000    -0.000001
                        1632045.600000    -0.000002
                         584338.640000    -0.000005
                         219508.320000    -0.000010
                          86085.039000    -0.000024
                          35172.956000    -0.000058
                          14975.745000    -0.000140
                           6652.821900    -0.000342
                           3084.270200    -0.000823
                           1489.211300    -0.001861
                            745.288670    -0.003664
                            384.521300    -0.005398
                            203.927220    -0.002991
                            110.523340     0.008482
                             61.345569     0.024454
                             34.404375     0.013272
                             19.094147    -0.032305
                             10.684628    -0.067432
                              5.931463    -0.001366
                              3.230992     0.110673
                              1.730655     0.103187
                              0.869483    -0.077840
                              0.440589    -0.217735
                              0.215859    -0.188345
                              0.091015     0.201020
                              0.040174     0.637069
                              0.017215     0.326669
   28.1 A     1  2py   52575799.000000    -0.000000
                       15301659.000000    -0.000000
                        4822461.600000    -0.000001
                        1632045.600000    -0.000002
                         584338.640000    -0.000005
                         219508.320000    -0.000010
                          86085.039000    -0.000024
                          35172.956000    -0.000058
                          14975.745000    -0.000140
                           6652.821900    -0.000342
                           3084.270200    -0.000823
                           1489.211300    -0.001861
                            745.288670    -0.003664
                            384.521300    -0.005398
                            203.927220    -0.002991
                            110.523340     0.008482
                             61.345569     0.024454
                             34.404375     0.013272
                             19.094147    -0.032305
                             10.684628    -0.067432
                              5.931463    -0.001366
                              3.230992     0.110673
                              1.730655     0.103187
                              0.869483    -0.077840
                              0.440589    -0.217735
                              0.215859    -0.188345
                              0.091015     0.201020
                              0.040174     0.637069
                              0.017215     0.326669
   29.1 A     1  2pz   52575799.000000    -0.000000
                       15301659.000000    -0.000000
                        4822461.600000    -0.000001
                        1632045.600000    -0.000002
                         584338.640000    -0.000005
                         219508.320000    -0.000010
                          86085.039000    -0.000024
                          35172.956000    -0.000058
                          14975.745000    -0.000140
                           6652.821900    -0.000342
                           3084.270200    -0.000823
                           1489.211300    -0.001861
                            745.288670    -0.003664
                            384.521300    -0.005398
                            203.927220    -0.002991
                            110.523340     0.008482
                             61.345569     0.024454
                             34.404375     0.013272
                             19.094147    -0.032305
                             10.684628    -0.067432
                              5.931463    -0.001366
                              3.230992     0.110673
                              1.730655     0.103187
                              0.869483    -0.077840
                              0.440589    -0.217735
                              0.215859    -0.188345
                              0.091015     0.201020
                              0.040174     0.637069
                              0.017215     0.326669
   30.1 A     1  2px   52575799.000000    -0.000001
                       15301659.000000    -0.000001
                        4822461.600000    -0.000003
                        1632045.600000    -0.000005
                         584338.640000    -0.000013
                         219508.320000    -0.000028
                          86085.039000    -0.000066
                          35172.956000    -0.000156
                          14975.745000    -0.000379
                           6652.821900    -0.000925
                           3084.270200    -0.002224
                           1489.211300    -0.005040
                            745.288670    -0.009895
                            384.521300    -0.014653
                            203.927220    -0.007970
                            110.523340     0.022757
                             61.345569     0.067049
                             34.404375     0.034635
                             19.094147    -0.086605
                             10.684628    -0.190567
                              5.931463     0.011210
                              3.230992     0.295370
                              1.730655     0.357708
                              0.869483    -0.483437
                              0.440589    -0.603385
                              0.215859     0.215887
                              0.091015     0.715465
                              0.040174     0.271767
                              0.017215     0.004114
   31.1 A     1  2py   52575799.000000    -0.000001
                       15301659.000000    -0.000001
                        4822461.600000    -0.000003
                        1632045.600000    -0.000005
                         584338.640000    -0.000013
                         219508.320000    -0.000028
                          86085.039000    -0.000066
                          35172.956000    -0.000156
                          14975.745000    -0.000379
                           6652.821900    -0.000925
                           3084.270200    -0.002224
                           1489.211300    -0.005040
                            745.288670    -0.009895
                            384.521300    -0.014653
                            203.927220    -0.007970
                            110.523340     0.022757
                             61.345569     0.067049
                             34.404375     0.034635
                             19.094147    -0.086605
                             10.684628    -0.190567
                              5.931463     0.011210
                              3.230992     0.295370
                              1.730655     0.357708
                              0.869483    -0.483437
                              0.440589    -0.603385
                              0.215859     0.215887
                              0.091015     0.715465
                              0.040174     0.271767
                              0.017215     0.004114
   32.1 A     1  2pz   52575799.000000    -0.000001
                       15301659.000000    -0.000001
                        4822461.600000    -0.000003
                        1632045.600000    -0.000005
                         584338.640000    -0.000013
                         219508.320000    -0.000028
                          86085.039000    -0.000066
                          35172.956000    -0.000156
                          14975.745000    -0.000379
                           6652.821900    -0.000925
                           3084.270200    -0.002224
                           1489.211300    -0.005040
                            745.288670    -0.009895
                            384.521300    -0.014653
                            203.927220    -0.007970
                            110.523340     0.022757
                             61.345569     0.067049
                             34.404375     0.034635
                             19.094147    -0.086605
                             10.684628    -0.190567
                              5.931463     0.011210
                              3.230992     0.295370
                              1.730655     0.357708
                              0.869483    -0.483437
                              0.440589    -0.603385
                              0.215859     0.215887
                              0.091015     0.715465
                              0.040174     0.271767
                              0.017215     0.004114
   33.1 A     1  2px   52575799.000000    -0.000001
                       15301659.000000    -0.000001
                        4822461.600000    -0.000004
                        1632045.600000    -0.000009
                         584338.640000    -0.000021
                         219508.320000    -0.000047
                          86085.039000    -0.000111
                          35172.956000    -0.000263
                          14975.745000    -0.000636
                           6652.821900    -0.001554
                           3084.270200    -0.003739
                           1489.211300    -0.008475
                            745.288670    -0.016642
                            384.521300    -0.024644
                            203.927220    -0.013367
                            110.523340     0.038637
                             61.345569     0.114090
                             34.404375     0.057493
                             19.094147    -0.152735
                             10.684628    -0.335275
                              5.931463     0.054116
                              3.230992     0.556566
                              1.730655     0.705542
                              0.869483    -1.835570
                              0.440589    -0.012121
                              0.215859     1.665730
                              0.091015    -0.585220
                              0.040174    -0.541179
                              0.017215     0.007323
   34.1 A     1  2py   52575799.000000    -0.000001
                       15301659.000000    -0.000001
                        4822461.600000    -0.000004
                        1632045.600000    -0.000009
                         584338.640000    -0.000021
                         219508.320000    -0.000047
                          86085.039000    -0.000111
                          35172.956000    -0.000263
                          14975.745000    -0.000636
                           6652.821900    -0.001554
                           3084.270200    -0.003739
                           1489.211300    -0.008475
                            745.288670    -0.016642
                            384.521300    -0.024644
                            203.927220    -0.013367
                            110.523340     0.038637
                             61.345569     0.114090
                             34.404375     0.057493
                             19.094147    -0.152735
                             10.684628    -0.335275
                              5.931463     0.054116
                              3.230992     0.556566
                              1.730655     0.705542
                              0.869483    -1.835570
                              0.440589    -0.012121
                              0.215859     1.665730
                              0.091015    -0.585220
                              0.040174    -0.541179
                              0.017215     0.007323
   35.1 A     1  2pz   52575799.000000    -0.000001
                       15301659.000000    -0.000001
                        4822461.600000    -0.000004
                        1632045.600000    -0.000009
                         584338.640000    -0.000021
                         219508.320000    -0.000047
                          86085.039000    -0.000111
                          35172.956000    -0.000263
                          14975.745000    -0.000636
                           6652.821900    -0.001554
                           3084.270200    -0.003739
                           1489.211300    -0.008475
                            745.288670    -0.016642
                            384.521300    -0.024644
                            203.927220    -0.013367
                            110.523340     0.038637
                             61.345569     0.114090
                             34.404375     0.057493
                             19.094147    -0.152735
                             10.684628    -0.335275
                              5.931463     0.054116
                              3.230992     0.556566
                              1.730655     0.705542
                              0.869483    -1.835570
                              0.440589    -0.012121
                              0.215859     1.665730
                              0.091015    -0.585220
                              0.040174    -0.541179
                              0.017215     0.007323
   36.1 A     1  2px   52575799.000000    -0.000001
                       15301659.000000    -0.000002
                        4822461.600000    -0.000006
                        1632045.600000    -0.000012
                         584338.640000    -0.000030
                         219508.320000    -0.000066
                          86085.039000    -0.000157
                          35172.956000    -0.000360
                          14975.745000    -0.000908
                           6652.821900    -0.002110
                           3084.270200    -0.005394
                           1489.211300    -0.011352
                            745.288670    -0.024563
                            384.521300    -0.031084
                            203.927220    -0.026677
                            110.523340     0.074398
                             61.345569     0.122621
                             34.404375     0.158055
                             19.094147    -0.396610
                             10.684628    -0.217370
                              5.931463    -0.310283
                              3.230992     1.975310
                              1.730655    -0.901781
                              0.869483    -2.796670
                              0.440589     4.376690
                              0.215859    -2.312120
                              0.091015    -0.328877
                              0.040174     0.867979
                              0.017215    -0.037454
   37.1 A     1  2py   52575799.000000    -0.000001
                       15301659.000000    -0.000002
                        4822461.600000    -0.000006
                        1632045.600000    -0.000012
                         584338.640000    -0.000030
                         219508.320000    -0.000066
                          86085.039000    -0.000157
                          35172.956000    -0.000360
                          14975.745000    -0.000908
                           6652.821900    -0.002110
                           3084.270200    -0.005394
                           1489.211300    -0.011352
                            745.288670    -0.024563
                            384.521300    -0.031084
                            203.927220    -0.026677
                            110.523340     0.074398
                             61.345569     0.122621
                             34.404375     0.158055
                             19.094147    -0.396610
                             10.684628    -0.217370
                              5.931463    -0.310283
                              3.230992     1.975310
                              1.730655    -0.901781
                              0.869483    -2.796670
                              0.440589     4.376690
                              0.215859    -2.312120
                              0.091015    -0.328877
                              0.040174     0.867979
                              0.017215    -0.037454
   38.1 A     1  2pz   52575799.000000    -0.000001
                       15301659.000000    -0.000002
                        4822461.600000    -0.000006
                        1632045.600000    -0.000012
                         584338.640000    -0.000030
                         219508.320000    -0.000066
                          86085.039000    -0.000157
                          35172.956000    -0.000360
                          14975.745000    -0.000908
                           6652.821900    -0.002110
                           3084.270200    -0.005394
                           1489.211300    -0.011352
                            745.288670    -0.024563
                            384.521300    -0.031084
                            203.927220    -0.026677
                            110.523340     0.074398
                             61.345569     0.122621
                             34.404375     0.158055
                             19.094147    -0.396610
                             10.684628    -0.217370
                              5.931463    -0.310283
                              3.230992     1.975310
                              1.730655    -0.901781
                              0.869483    -2.796670
                              0.440589     4.376690
                              0.215859    -2.312120
                              0.091015    -0.328877
                              0.040174     0.867979
                              0.017215    -0.037454
   39.1 A     1  2px   52575799.000000     0.000000
                       15301659.000000     0.000000
                        4822461.600000     0.000000
                        1632045.600000     0.000000
                         584338.640000     0.000000
                         219508.320000     0.000000
                          86085.039000     0.000000
                          35172.956000     0.000000
                          14975.745000     0.000000
                           6652.821900     0.000000
                           3084.270200     0.000000
                           1489.211300     0.000000
                            745.288670     0.000000
                            384.521300     0.000000
                            203.927220     0.000000
                            110.523340     0.000000
                             61.345569     0.000000
                             34.404375     0.000000
                             19.094147     0.000000
                             10.684628     0.000000
                              5.931463     0.000000
                              3.230992     0.000000
                              1.730655     0.000000
                              0.869483     0.000000
                              0.440589     0.000000
                              0.215859     0.000000
                              0.091015     0.000000
                              0.040174     0.000000
                              0.017215     1.000000
   40.1 A     1  2py   52575799.000000     0.000000
                       15301659.000000     0.000000
                        4822461.600000     0.000000
                        1632045.600000     0.000000
                         584338.640000     0.000000
                         219508.320000     0.000000
                          86085.039000     0.000000
                          35172.956000     0.000000
                          14975.745000     0.000000
                           6652.821900     0.000000
                           3084.270200     0.000000
                           1489.211300     0.000000
                            745.288670     0.000000
                            384.521300     0.000000
                            203.927220     0.000000
                            110.523340     0.000000
                             61.345569     0.000000
                             34.404375     0.000000
                             19.094147     0.000000
                             10.684628     0.000000
                              5.931463     0.000000
                              3.230992     0.000000
                              1.730655     0.000000
                              0.869483     0.000000
                              0.440589     0.000000
                              0.215859     0.000000
                              0.091015     0.000000
                              0.040174     0.000000
                              0.017215     1.000000
   41.1 A     1  2pz   52575799.000000     0.000000
                       15301659.000000     0.000000
                        4822461.600000     0.000000
                        1632045.600000     0.000000
                         584338.640000     0.000000
                         219508.320000     0.000000
                          86085.039000     0.000000
                          35172.956000     0.000000
                          14975.745000     0.000000
                           6652.821900     0.000000
                           3084.270200     0.000000
                           1489.211300     0.000000
                            745.288670     0.000000
                            384.521300     0.000000
                            203.927220     0.000000
                            110.523340     0.000000
                             61.345569     0.000000
                             34.404375     0.000000
                             19.094147     0.000000
                             10.684628     0.000000
                              5.931463     0.000000
                              3.230992     0.000000
                              1.730655     0.000000
                              0.869483     0.000000
                              0.440589     0.000000
                              0.215859     0.000000
                              0.091015     0.000000
                              0.040174     0.000000
                              0.017215     1.000000
   42.1 A     1  3d0     105911.200000     0.000020
                          24974.572000     0.000129
                           8108.852700     0.000677
                           3150.520500     0.003052
                           1380.647900     0.011950
                            658.188950     0.039706
                            332.909040     0.108875
                            176.023220     0.231727
                             95.780704     0.354949
                             53.337287     0.336096
                             29.864821     0.140603
                             16.526778    -0.033742
                              9.155323    -0.064042
                              4.984876    -0.024095
                              2.636633    -0.002233
                              1.354062     0.000305
                              0.656031     0.000103
                              0.269853     0.000008
                              0.103443     0.000000
                              0.036685     0.000000
   43.1 A     1  3d2-    105911.200000     0.000020
                          24974.572000     0.000129
                           8108.852700     0.000677
                           3150.520500     0.003052
                           1380.647900     0.011950
                            658.188950     0.039706
                            332.909040     0.108875
                            176.023220     0.231727
                             95.780704     0.354949
                             53.337287     0.336096
                             29.864821     0.140603
                             16.526778    -0.033742
                              9.155323    -0.064042
                              4.984876    -0.024095
                              2.636633    -0.002233
                              1.354062     0.000305
                              0.656031     0.000103
                              0.269853     0.000008
                              0.103443     0.000000
                              0.036685     0.000000
   44.1 A     1  3d1+    105911.200000     0.000020
                          24974.572000     0.000129
                           8108.852700     0.000677
                           3150.520500     0.003052
                           1380.647900     0.011950
                            658.188950     0.039706
                            332.909040     0.108875
                            176.023220     0.231727
                             95.780704     0.354949
                             53.337287     0.336096
                             29.864821     0.140603
                             16.526778    -0.033742
                              9.155323    -0.064042
                              4.984876    -0.024095
                              2.636633    -0.002233
                              1.354062     0.000305
                              0.656031     0.000103
                              0.269853     0.000008
                              0.103443     0.000000
                              0.036685     0.000000
   45.1 A     1  3d2+    105911.200000     0.000020
                          24974.572000     0.000129
                           8108.852700     0.000677
                           3150.520500     0.003052
                           1380.647900     0.011950
                            658.188950     0.039706
                            332.909040     0.108875
                            176.023220     0.231727
                             95.780704     0.354949
                             53.337287     0.336096
                             29.864821     0.140603
                             16.526778    -0.033742
                              9.155323    -0.064042
                              4.984876    -0.024095
                              2.636633    -0.002233
                              1.354062     0.000305
                              0.656031     0.000103
                              0.269853     0.000008
                              0.103443     0.000000
                              0.036685     0.000000
   46.1 A     1  3d1-    105911.200000     0.000020
                          24974.572000     0.000129
                           8108.852700     0.000677
                           3150.520500     0.003052
                           1380.647900     0.011950
                            658.188950     0.039706
                            332.909040     0.108875
                            176.023220     0.231727
                             95.780704     0.354949
                             53.337287     0.336096
                             29.864821     0.140603
                             16.526778    -0.033742
                              9.155323    -0.064042
                              4.984876    -0.024095
                              2.636633    -0.002233
                              1.354062     0.000305
                              0.656031     0.000103
                              0.269853     0.000008
                              0.103443     0.000000
                              0.036685     0.000000
   47.1 A     1  3d0     105911.200000    -0.000007
                          24974.572000    -0.000047
                           8108.852700    -0.000246
                           3150.520500    -0.001113
                           1380.647900    -0.004403
                            658.188950    -0.014782
                            332.909040    -0.041545
                            176.023220    -0.089264
                             95.780704    -0.132364
                             53.337287    -0.078125
                             29.864821     0.163137
                             16.526778     0.427766
                              9.155323     0.404323
                              4.984876     0.149842
                              2.636633     0.013528
                              1.354062    -0.001244
                              0.656031    -0.000625
                              0.269853    -0.000007
                              0.103443    -0.000015
                              0.036685     0.000003
   48.1 A     1  3d2-    105911.200000    -0.000007
                          24974.572000    -0.000047
                           8108.852700    -0.000246
                           3150.520500    -0.001113
                           1380.647900    -0.004403
                            658.188950    -0.014782
                            332.909040    -0.041545
                            176.023220    -0.089264
                             95.780704    -0.132364
                             53.337287    -0.078125
                             29.864821     0.163137
                             16.526778     0.427766
                              9.155323     0.404323
                              4.984876     0.149842
                              2.636633     0.013528
                              1.354062    -0.001244
                              0.656031    -0.000625
                              0.269853    -0.000007
                              0.103443    -0.000015
                              0.036685     0.000003
   49.1 A     1  3d1+    105911.200000    -0.000007
                          24974.572000    -0.000047
                           8108.852700    -0.000246
                           3150.520500    -0.001113
                           1380.647900    -0.004403
                            658.188950    -0.014782
                            332.909040    -0.041545
                            176.023220    -0.089264
                             95.780704    -0.132364
                             53.337287    -0.078125
                             29.864821     0.163137
                             16.526778     0.427766
                              9.155323     0.404323
                              4.984876     0.149842
                              2.636633     0.013528
                              1.354062    -0.001244
                              0.656031    -0.000625
                              0.269853    -0.000007
                              0.103443    -0.000015
                              0.036685     0.000003
   50.1 A     1  3d2+    105911.200000    -0.000007
                          24974.572000    -0.000047
                           8108.852700    -0.000246
                           3150.520500    -0.001113
                           1380.647900    -0.004403
                            658.188950    -0.014782
                            332.909040    -0.041545
                            176.023220    -0.089264
                             95.780704    -0.132364
                             53.337287    -0.078125
                             29.864821     0.163137
                             16.526778     0.427766
                              9.155323     0.404323
                              4.984876     0.149842
                              2.636633     0.013528
                              1.354062    -0.001244
                              0.656031    -0.000625
                              0.269853    -0.000007
                              0.103443    -0.000015
                              0.036685     0.000003
   51.1 A     1  3d1-    105911.200000    -0.000007
                          24974.572000    -0.000047
                           8108.852700    -0.000246
                           3150.520500    -0.001113
                           1380.647900    -0.004403
                            658.188950    -0.014782
                            332.909040    -0.041545
                            176.023220    -0.089264
                             95.780704    -0.132364
                             53.337287    -0.078125
                             29.864821     0.163137
                             16.526778     0.427766
                              9.155323     0.404323
                              4.984876     0.149842
                              2.636633     0.013528
                              1.354062    -0.001244
                              0.656031    -0.000625
                              0.269853    -0.000007
                              0.103443    -0.000015
                              0.036685     0.000003
   52.1 A     1  3d0     105911.200000     0.000004
                          24974.572000     0.000029
                           8108.852700     0.000151
                           3150.520500     0.000680
                           1380.647900     0.002694
                            658.188950     0.009015
                            332.909040     0.025311
                            176.023220     0.054175
                             95.780704     0.081018
                             53.337287     0.048855
                             29.864821    -0.090265
                             16.526778    -0.246113
                              9.155323    -0.206236
                              4.984876     0.172306
                              2.636633     0.505507
                              1.354062     0.395599
                              0.656031     0.111489
                              0.269853     0.006247
                              0.103443    -0.000029
                              0.036685    -0.000036
   53.1 A     1  3d2-    105911.200000     0.000004
                          24974.572000     0.000029
                           8108.852700     0.000151
                           3150.520500     0.000680
                           1380.647900     0.002694
                            658.188950     0.009015
                            332.909040     0.025311
                            176.023220     0.054175
                             95.780704     0.081018
                             53.337287     0.048855
                             29.864821    -0.090265
                             16.526778    -0.246113
                              9.155323    -0.206236
                              4.984876     0.172306
                              2.636633     0.505507
                              1.354062     0.395599
                              0.656031     0.111489
                              0.269853     0.006247
                              0.103443    -0.000029
                              0.036685    -0.000036
   54.1 A     1  3d1+    105911.200000     0.000004
                          24974.572000     0.000029
                           8108.852700     0.000151
                           3150.520500     0.000680
                           1380.647900     0.002694
                            658.188950     0.009015
                            332.909040     0.025311
                            176.023220     0.054175
                             95.780704     0.081018
                             53.337287     0.048855
                             29.864821    -0.090265
                             16.526778    -0.246113
                              9.155323    -0.206236
                              4.984876     0.172306
                              2.636633     0.505507
                              1.354062     0.395599
                              0.656031     0.111489
                              0.269853     0.006247
                              0.103443    -0.000029
                              0.036685    -0.000036
   55.1 A     1  3d2+    105911.200000     0.000004
                          24974.572000     0.000029
                           8108.852700     0.000151
                           3150.520500     0.000680
                           1380.647900     0.002694
                            658.188950     0.009015
                            332.909040     0.025311
                            176.023220     0.054175
                             95.780704     0.081018
                             53.337287     0.048855
                             29.864821    -0.090265
                             16.526778    -0.246113
                              9.155323    -0.206236
                              4.984876     0.172306
                              2.636633     0.505507
                              1.354062     0.395599
                              0.656031     0.111489
                              0.269853     0.006247
                              0.103443    -0.000029
                              0.036685    -0.000036
   56.1 A     1  3d1-    105911.200000     0.000004
                          24974.572000     0.000029
                           8108.852700     0.000151
                           3150.520500     0.000680
                           1380.647900     0.002694
                            658.188950     0.009015
                            332.909040     0.025311
                            176.023220     0.054175
                             95.780704     0.081018
                             53.337287     0.048855
                             29.864821    -0.090265
                             16.526778    -0.246113
                              9.155323    -0.206236
                              4.984876     0.172306
                              2.636633     0.505507
                              1.354062     0.395599
                              0.656031     0.111489
                              0.269853     0.006247
                              0.103443    -0.000029
                              0.036685    -0.000036
   57.1 A     1  3d0     105911.200000    -0.000001
                          24974.572000    -0.000008
                           8108.852700    -0.000042
                           3150.520500    -0.000189
                           1380.647900    -0.000746
                            658.188950    -0.002504
                            332.909040    -0.007016
                            176.023220    -0.015063
                             95.780704    -0.022420
                             53.337287    -0.013378
                             29.864821     0.026555
                             16.526778     0.070496
                              9.155323     0.058301
                              4.984876    -0.065834
                              2.636633    -0.177473
                              1.354062    -0.127085
                              0.656031     0.181760
                              0.269853     0.495490
                              0.103443     0.447072
                              0.036685     0.116353
   58.1 A     1  3d2-    105911.200000    -0.000001
                          24974.572000    -0.000008
                           8108.852700    -0.000042
                           3150.520500    -0.000189
                           1380.647900    -0.000746
                            658.188950    -0.002504
                            332.909040    -0.007016
                            176.023220    -0.015063
                             95.780704    -0.022420
                             53.337287    -0.013378
                             29.864821     0.026555
                             16.526778     0.070496
                              9.155323     0.058301
                              4.984876    -0.065834
                              2.636633    -0.177473
                              1.354062    -0.127085
                              0.656031     0.181760
                              0.269853     0.495490
                              0.103443     0.447072
                              0.036685     0.116353
   59.1 A     1  3d1+    105911.200000    -0.000001
                          24974.572000    -0.000008
                           8108.852700    -0.000042
[...]
                                    1  6  px  -2.73479    1  6  py  -1.48281    1  6  pz   3.63017    1  7  pz   0.50645
                                    1 10  px   1.81619    1 10  py   4.38118    1 10  pz  -3.22914    1  4  d0   0.34070
                                    1  4  d2- -0.30073    1  8  d0   0.86267    1  8  d2- -1.21534    1  8  d2+  0.33240
                                    1  8  d1-  0.53083    2  5  s    2.36423    2  4  px  -0.66680    2  4  pz   0.31189
                                    3  3  s   -0.59406    3  4  s   -1.41738    4  5  s   -2.81958    4  4  py  -0.81556
                                    4  4  pz   0.59553    5  5  s    1.26057    5  4  px  -0.27732    6  5  s   -0.39697
                                    6  4  py   0.26389    7  3  s   -0.33096    7  4  s   -0.94670    8  3  s    0.68061
                                    8  4  s    4.35315    9  3  s   -0.60746    9  4  s    0.42240   10  5  s    0.56441
                                   10  4  px   0.99818   10  4  pz  -0.64853   11  4  s    0.39799   11  5  s   -6.03832
                                   11  4  px  -0.91080   11  4  py  -1.72489   11  3  d2-  0.36426   12  5  s    3.57824
                                   12  4  px  -2.05241   12  4  py  -0.54406   12  4  pz   0.45972   13  5  s   -1.61881
                                   13  4  py  -0.34544   14  5  s    1.89387   14  4  px   0.45509   15  4  px   0.32840
   93.1     0.00000     0.14189     1  6  s   -0.89255    1  7  s   -1.63734    1  8  s    0.31339    1 11  s    4.96602
                                    1  5  px  -0.63770    1  5  py   0.52854    1  6  px  -1.54129    1  6  py   2.03771
                                    1  6  pz   0.79459    1  7  py  -0.32028    1  7  pz  -0.26748    1 10  px  -5.14293
                                    1 10  py  -1.70170    1 10  pz  -3.33376    1  4  d0   0.48111    1  4  d1+  0.40966
                                    1  4  d2+ -0.51327    1  5  d2+  0.29463    1  8  d0   0.30786    1  8  d1+  0.78878
                                    1  8  d2+ -0.56789    1  8  d1-  0.25214    1  6  f3- -0.25658    2  5  s    0.58947
                                    2  3  px  -0.37871    2  4  px  -1.69475    2  4  py   0.31052    2  4  pz  -0.45372
                                    3  3  s   -0.72370    3  4  s   -5.15303    4  5  s   -0.50518    5  5  s   -0.38806
                                    5  4  px  -0.58562    5  4  py   0.47541    5  4  pz  -0.78486    6  5  s    1.49970
                                    7  3  s   -0.43580    7  4  s   -2.52587    8  3  s   -0.37594    8  4  s   -0.60642
                                    9  3  s    1.32600    9  4  s    5.48325    9  3  pz  -0.27212   10  5  s   -1.26310
                                   10  4  px  -0.51239   10  4  py   0.59585   11  5  s    1.84348   11  3  px   0.48840
                                   11  3  py   0.57705   11  4  px   0.91697   11  4  py   1.92846   12  4  s   -0.76110
                                   12  5  s   -5.83053   12  3  px   0.44723   12  4  px   1.51247   12  4  pz   0.34001
                                   13  5  s    1.93020   13  4  py   0.70601   13  4  pz   0.44316   15  5  s    1.25786
   94.1     0.00000     0.15579     1  5  s   -0.59383    1  6  s   -2.14513    1  7  s   -2.94194    1 11  s   15.64654
                                    1  4  px  -0.33763    1  5  px  -2.02773    1  5  py   0.92471    1  5  pz  -0.88418
                                    1  6  px  -9.02511    1  6  py   4.78282    1  6  pz  -0.71962    1  7  px   1.99227
                                    1  7  py  -1.36525    1  7  pz  -0.85165    1  8  px  -0.56646    1  8  py   0.39721
                                    1 10  px   2.12792    1 10  py  -0.44851    1 10  pz  -0.69003    1  8  d0  -0.66545
                                    1  8  d2- -1.24659    1  8  d2+  0.43670    1  8  d1-  0.49035    1  6  f3+ -0.27655
                                    2  4  s    0.35107    2  5  s    2.99371    2  3  px   0.28721    2  4  pz   0.55758
                                    3  3  s   -0.60228    3  4  s   -4.90705    4  5  s    2.07335    4  4  pz  -0.70798
                                    5  4  s    0.28950    5  4  pz  -0.35759    6  4  s    0.34745    6  5  s    0.79481
                                    6  4  py  -0.49689    6  4  pz   0.45199    7  4  s   -0.50295    8  3  s   -0.72759
                                    8  4  s   -1.98114    9  2  s   -0.28209    9  3  s   -1.31240    9  4  s   -3.20484
                                    9  3  px   0.25147   10  5  s    1.59955   10  4  pz   0.33907   11  4  s   -0.92588
                                   11  5  s  -10.97134   11  3  px   0.58471   11  3  py   0.74410   11  4  px  -1.08765
                                   11  4  py   0.79766   12  4  s   -1.47207   12  5  s   -3.16842   12  4  px  -2.20010
                                   12  4  pz   0.46332   12  3  d2- -0.27793   13  5  s    1.38972   13  4  px  -0.29903
                                   13  4  py   1.83022   13  4  pz   1.02311   14  4  s    0.33869   14  5  s    2.61178
                                   14  4  px   0.71283   14  4  py  -0.35944   15  4  s    0.25377   15  5  s    1.44686
                                   15  4  px   0.54135   15  4  py  -0.43784
   95.1     0.00000     0.17408     1  4  s   -0.44955    1  5  s   -1.43065    1  6  s   -5.21535    1  7  s   -7.10594
                                    1 11  s    3.96822    1  4  py   0.76907    1  4  pz   0.30789    1  5  py   4.35978
                                    1  5  pz   1.77465    1  6  px  -1.26099    1  6  py  13.36430    1  6  pz   5.93869
                                    1  7  px   0.95326    1  7  py  -0.83660    1  7  pz  -0.60782    1  8  px  -0.26101
                                    1  8  py   0.32639    1 10  px   0.37068    1 10  py  -4.14985    1 10  pz  -2.03605
                                    1  4  d0   0.30944    1  4  d2- -0.51049    1  4  d2+  0.27947    1  5  d2-  0.30231
                                    1  8  d2- -1.35030    1  8  d1+ -1.21933    1  8  d2+  1.41585    1  6  f3- -0.43122
                                    1  6  f2+ -0.34196    2  5  s    0.52880    2  4  px  -0.58415    3  3  s   -0.74091
                                    3  4  s   -0.44942    4  5  s    0.84062    4  4  py  -0.35603    4  4  pz  -0.54332
                                    5  5  s    2.46513    5  4  py  -0.42979    5  4  pz   0.38859    6  5  s    9.88717
                                    6  3  py   0.48890    6  4  px   2.07895    6  4  py   4.70575    6  4  pz   1.35580
                                    7  3  s   -1.03342    7  4  s    2.14159    7  3  px  -0.27839    7  3  py  -0.80243
                                    8  3  s   -1.35173    8  4  s    1.54898    8  3  px  -0.29328    8  3  py  -0.79712
                                    9  4  s   -0.37736   10  5  s   -1.27882   10  4  px  -0.55770   10  4  py   0.95056
                                   10  4  pz   0.38354   11  4  s   -0.54578   11  5  s   -1.90815   11  3  py  -0.46515
                                   11  4  py   2.16573   11  4  pz   0.66519   11  3  d2- -0.68554   12  4  s    0.82770
                                   12  5  s   -5.75479   12  3  px  -0.50314   12  3  py  -0.32302   12  4  px   0.35911
                                   12  4  py   0.59786   12  3  d2+  0.30383   13  5  s    0.39800   13  4  px  -1.43171
                                   13  4  py   1.03899   13  4  pz   0.36132   14  5  s   -0.35522   14  4  py  -0.41874
                                   15  5  s    1.34927   15  4  py  -0.34412
   96.1     0.00000     0.18901     1  5  s    0.58795    1  6  s    2.25799    1  7  s    3.36010    1  8  s   -0.28209
                                    1  4  py   0.31165    1  5  px   0.96194    1  5  py   1.88369    1  5  pz   0.69208
                                    1  6  px   5.23109    1  6  py   8.81271    1  6  pz   2.31981    1  7  px  -1.45556
                                    1  7  py  -2.13639    1  7  pz  -0.26145    1  8  px   0.40705    1  8  py   0.62186
                                    1 10  px  -5.92012    1 10  py  -4.10908    1 10  pz  -1.47315    1  4  d2- -0.28125
                                    1  8  d0  -0.33374    1  8  d2- -0.53811    1  8  d1+  0.58225    1  8  d2+ -2.89455
                                    1  8  d1-  0.89058    1  6  f1- -0.28002    1  6  f3+  0.28532    1  6  f2+ -0.25577
                                    2  5  s   -0.40843    2  4  pz  -0.52582    3  4  s   -1.24597    4  5  s   -0.68795
                                    5  5  s    0.26142    5  4  pz  -0.28772    6  5  s    1.04610    6  4  py   0.42967
                                    7  4  s   -1.12814    8  4  s   -1.05069    9  4  s    3.14325   10  4  s    0.59940
                                   10  5  s    6.48894   10  3  py   0.33323   10  4  px  -2.88567   10  4  py   1.00855
                                   10  4  pz   1.10289   11  4  s    1.28059   11  5  s   37.25957   11  3  px  -1.59880
                                   11  3  py  -1.39290   11  4  px   9.53255   11  4  py   3.79874   11  4  pz  -0.61640
                                   11  3  d2- -0.87074   11  3  d2+ -0.87658   11  3  d1-  0.59169   12  4  s   -0.85924
                                   12  5  s  -42.95134   12  3  px  -1.78736   12  3  py  -1.24470   12  4  px   3.75920
                                   12  4  py   8.88795   12  4  pz   1.84363   12  3  d0   0.35399   12  3  d2-  0.98618
                                   12  3  d1+  0.52104   12  3  d2+ -0.31133   12  3  d1- -0.37763   13  4  s   -0.62810
                                   13  5  s   -7.03715   13  4  py  -3.33414   13  4  pz  -0.81989   14  4  s   -0.52871
                                   14  5  s   -4.15245   14  3  px  -0.38791   14  4  px  -2.21073   14  4  py  -0.83081
                                   15  4  s    0.47335   15  5  s    5.37565   15  3  py  -0.28119   15  4  px  -0.69224
                                   15  4  py  -2.34356   15  4  pz  -0.51787


 HOMO     86.1    -0.250769 =      -6.8238eV
 LUMO     87.1     0.079768 =       2.1706eV
 LUMO-HOMO         0.330537 =       8.9944eV

 Orbitals saved in record  2100.2


 **********************************************************************************************************************************
 DATASETS  * FILE   NREC   LENGTH (MB)   RECORD NAMES
              1      22       68.64       500      610      700      900      950      970     1000      129      960     1700   
                                          VAR    BASINP    GEOM    SYMINP    ZMAT    AOBASIS   BASIS     P2S    ABASIS    OPER   
                                         1101     1401     1411     1412     1650     1100     1400     1410     1200     1210   
                                          SR      EKINR    POTR     PVPR    MOLCAS      S      EKIN      POT      H0       H01  
                                         1080     1600   
                                         AOSYM     SMH  

              2       6       19.98       500      610      700     1000      520     2100   
                                          VAR    BASINP    GEOM     BASIS   MCVARS     RHF  

 PROGRAMS   *        TOTAL    HF-SCF       INT      FILE
 CPU TIMES  *      2883.07   1661.45   1221.39      0.02
 REAL TIME  *      3132.81 SEC
 DISK USED  *       123.75 MB (local),      345.80 GB (total)
 GA USED    *         0.01 MB       (max)       0.00 MB       (current)
 **********************************************************************************************************************************


 PROGRAM * CCSD (Closed-shell coupled cluster)     Authors: C. Hampel, H.-J. Werner, 1991, M. Deegan, P.J. Knowles, 1992


 Convergence thresholds:  THRVAR = 1.00D-08  THRDEN = 1.00D-06

 CCSD(T)     terms to be evaluated (factor= 1.000)


 Number of core orbitals:          49 (  49 )
 Number of closed-shell orbitals:  37 (  37 )
 Number of external orbitals:     627 ( 627 )

 Molecular orbitals read from record     2100.2  Type=RHF/CANONICAL  

 Number of N-1 electron functions:              37
 Number of N-2 electron functions:             703
 Number of singly external CSFs:             23199
 Number of doubly external CSFs:         269108400
 Total number of CSFs:                   269131600

 Length of J-op  integral file:               0.00 MB
 Length of K-op  integral file:              34.91 MB
 Length of 3-ext integral record:             0.00 MB

 For full I/O caching in triples, increase memory by 5341.96 Mwords to 10342.01 Mwords.

 Multipassing necessary in transformation. To avoid, increase memory by 2466.96 Mwords.

 Integral transformation finished. Total CPU:6228.02 sec, npass=  2  Memory used:4802.44 MW

 Reference energy:                 -27899.11831361

 MP2 singlet pair energy:              -1.62590948
 MP2 triplet pair energy:              -1.11343402
 MP2 correlation energy:               -2.73934350
 MP2 total energy:                 -27901.85765711

 SCS-MP2 correlation energy:           -2.64389476   (PS=  1.200000  PT=  0.333333)
 SCS-MP2 total energy:             -27901.76220838

 ITER.      SQ.NORM     CORR.ENERGY   TOTAL ENERGY   ENERGY CHANGE        DEN1      VAR(S)    VAR(P)  DIIS     TIME  TIME/IT
   1      1.68001087    -2.71938974-27901.83770335     0.01995375     0.12955904  0.44D-01  0.22D-01  1  1  9577.33  3441.86
   2      1.73113553    -2.70166010-27901.81997372     0.01772964    -0.07467171  0.92D-03  0.31D-02  2  2 14139.48  4137.09
   3      1.76094124    -2.70488336-27901.82319698    -0.00322326    -0.00836088  0.16D-02  0.29D-03  3  3 17600.10  3981.81
   4      1.77745095    -2.70269805-27901.82101167     0.00218531    -0.00569453  0.24D-03  0.51D-04  4  4 21692.76  4064.25
   5      1.78891925    -2.70193334-27901.82024695     0.00076471    -0.00258929  0.51D-04  0.80D-05  5  5 25223.34  4003.60
   6      1.79254698    -2.70173623-27901.82004984     0.00019712    -0.00035308  0.87D-05  0.24D-05  6  6 29132.31  4015.41
   7      1.79438325    -2.70152213-27901.81983574     0.00021410    -0.00018315  0.26D-05  0.55D-06  6  3 32560.61  3960.48
   8      1.79457793    -2.70157699-27901.81989060    -0.00005486     0.00012348  0.53D-06  0.13D-06  6  1 35974.54  3918.92
   9      1.79475968    -2.70156630-27901.81987991     0.00001069    -0.00004029  0.12D-06  0.37D-07  6  2 39451.01  3893.06
  10      1.79482417    -2.70155353-27901.81986715     0.00001276    -0.00000193  0.41D-07  0.10D-07  6  4 43041.73  3881.70
  11      1.79480059    -2.70156385-27901.81987746    -0.00001031     0.00000686  0.12D-07  0.31D-08  6  5 47269.47  3930.37
  12      1.79482760    -2.70155893-27901.81987255     0.00000491    -0.00000899  0.37D-08  0.82D-09  6  6 50674.96  3903.46
  13      1.79482645    -2.70155950-27901.81987312    -0.00000057     0.00000083  0.13D-08  0.29D-09  6  3 54302.43  3896.59
  14      1.79483397    -2.70155878-27901.81987239     0.00000073    -0.00000098  0.43D-09  0.91D-10  6  1 57893.00  3890.21

 Norm of t1 vector:      0.27741534      S-energy:    -0.00000064      T1 diagnostic:  0.02280340
                                                                       D1 diagnostic:  0.08632906
                                                                       D2 diagnostic:  0.17379958 (external, symmetry=1)

   CPU time for triples:   2378.45 sec for i =  1 - 11 / 37 (~   3.0 % done)
   CPU time for triples:   9651.56 sec for i = 12 - 12 / 37 (~   3.9 % done)
   CPU time for triples:   5208.83 sec for i = 13 - 13 / 37 (~   4.9 % done)
   CPU time for triples:  19541.15 sec for i = 14 - 21 / 37 (~  19.2 % done)
   CPU time for triples:  16373.52 sec for i = 22 - 25 / 37 (~  31.9 % done)
   CPU time for triples:  16516.45 sec for i = 26 - 27 / 37 (~  39.8 % done)
   CPU time for triples:   8200.42 sec for i = 28 - 29 / 37 (~  49.1 % done)
   CPU time for triples:   8126.00 sec for i = 30 - 30 / 37 (~  54.2 % done)
   CPU time for triples:  11022.85 sec for i = 31 - 31 / 37 (~  59.6 % done)
   CPU time for triples:  10821.94 sec for i = 32 - 32 / 37 (~  65.4 % done)
   CPU time for triples:  10282.91 sec for i = 33 - 33 / 37 (~  71.5 % done)
   CPU time for triples:   4045.78 sec for i = 34 - 34 / 37 (~  78.1 % done)
   CPU time for triples:  16479.30 sec for i = 35 - 35 / 37 (~  85.0 % done)
   CPU time for triples:  10653.24 sec for i = 36 - 36 / 37 (~  92.3 % done)
   CPU time for triples:  12196.66 sec for i = 37 - 37 / 37 (  100.0 % done)

 Total CPU time for triples: 161590.03 sec


 RESULTS
 =======

  Reference energy                   -27899.1183136128    
  CCSD singlet pair energy             -1.731210910140
  CCSD triplet pair energy             -0.970347224296
  CCSD correlation energy              -2.701558775719

  Triples (T) contribution             -0.137036017579
  Total correlation energy             -2.838594793298

  CCSD total energy                  -27901.8198723885    
  CCSD[T] energy                     -27901.9731645481    
  CCSD-T energy                      -27901.9518470061    
 !CCSD(T) total energy               -27901.9569084061    

 Timing summary (sec):

 STEP                 CPU(USER)    SYS     CPU(TOT)    WALL
 Transformation       6241.33    275.89   6517.22   6619.77
 CCSD iterations     51745.81    749.52  52495.33  54568.96
 Triples            161590.03   1680.43 163270.46 163504.59

 Program statistics:

 Available memory in ccsd:              4999994438
 Min. memory needed in ccsd:             594431812
 Max. memory used in ccsd:               852015045
 Max. memory used in cckext:             721334381 (14 integral passes)



 **********************************************************************************************************************************
 DATASETS  * FILE   NREC   LENGTH (MB)   RECORD NAMES
              1      23    39014.54       500      610      700      900      950      970     1000      129      960     1700   
                                          VAR    BASINP    GEOM    SYMINP    ZMAT    AOBASIS   BASIS     P2S    ABASIS    OPER   
                                         1101     1401     1411     1412     1650     1100     1400     1410     1200     1210   
                                          SR      EKINR    POTR     PVPR    MOLCAS      S      EKIN      POT      H0       H01  
                                         1080     1600     1380   
                                         AOSYM     SMH     JKOP   

              2       6       19.98       500      610      700     1000      520     2100   
                                          VAR    BASINP    GEOM     BASIS   MCVARS     RHF  

 PROGRAMS   *        TOTAL   CCSD(T)    HF-SCF       INT      FILE
 CPU TIMES  *    222483.68 219600.56   1661.45   1221.39      0.02
 REAL TIME  *    227863.68 SEC
 DISK USED  *        62.83 GB (local),      674.50 GB (total)
 SF USED    *        64.06 GB
 GA USED    *         0.01 MB       (max)       0.00 MB       (current)
 **********************************************************************************************************************************
 SETTING ENERGY_HF(1)   =    -27899.11831361  AU                              
 SETTING CORR_MP2(1)    =        -2.73934350  AU                              
 SETTING CORR_CCSDT(1)  =        -2.83859479  AU                              

 CCSD(T)/PA=CC-PVTZ-X2C,O=AUG-CC-PVTZ-X2C,H=AUG-CC-PVTZ-X2C,C=AUG-CC-PVTZ-X2C energy= -27901.956908406093

         CCSD(T)          HF-SCF
 -27901.95690841 -27899.11831361
 **********************************************************************************************************************************
 Molpro calculation terminated
