

 Parallel Execution: Process Information
 ==============================================================================
 Rank   Node Name                              NodeID   MyNodeRank  NodeMaster
    0   u-0-8.local                               0          0          0
    1   u-0-8.local                               0          1         -1
    2   u-0-8.local                               1          0          1
    3   u-0-8.local                               1          1         -1
    4   u-0-8.local                               2          0          2
    5   u-0-8.local                               2          1         -1
    6   u-0-8.local                               3          0          3
    7   u-0-8.local                               3          1         -1
 ==============================================================================


May use up to 31228MB of RAM as shared memory on node 0
May use up to 31250MB of RAM as shared memory on node 1
May use up to 31250MB of RAM as shared memory on node 2
May use up to 31250MB of RAM as shared memory on node 3

 *******************************************************************************
 *                                                                             *
 *  --------------------------------                                           *
 *   Amsterdam Modeling Suite (AMS)              2022.103                      *
 *  --------------------------------                                           *
 *                                               r104886 2022-06-17            *
 *                                                                             *
 *                                                                             *
 *                              =================                              *
 *                              |               |                              *
 *                              |     A M S     |                              *
 *                              |               |                              *
 *                              =================                              *
 *                                                                             *
 *                                                                             *
 *   Online information and documentation:  https://www.scm.com/support/       *
 *   E-mail:  support@scm.com   info@scm.com                                   *
 *                                                                             *
 *   Scientific publications using AMS results must be properly referenced     *
 *   See the User Manuals (or the web site) for recommended citations          *
 *   The terms and conditions of the End User License Agreement apply to       *
 *   the use of AMS, https://www.scm.com/license-terms/                        *
 *                                                                             *
 **********************  x86_64_linux_intel / intelmpi  ************************
 
 Licensed to: Dr. Val?rie Vallet / Laboratoire PhLAM UMR 8523 / Villeneuve d'Ascq Cedex / FRANCE 2023-02-21 11:49:39
 SCM User ID: u10325
  
 AMS 2022.103  RunTime: Feb22-2023 09:37:14  ShM Nodes: 4  Procs: 8

 AMS jobname: ams
 AMS jobid  : 1098105126

 Start   directory: /home/shaaban/ams/PhD/chloride/pa_oh4_cl/gp/B22/
 Results directory: /home/shaaban/ams/PhD/chloride/pa_oh4_cl/gp/B22/pa_oh4_cl.SR.b3lyp.tz2p.opt-freq-B22.results/
 Scratch directory: /state/partition2/shaaban/928768.phlam-s-sakura/amstmp_ams_kid0.1098105126/


 Communication costs MPI_COMM_WORLD:      2.768 usec per message,   0.0089 usec per 8-byte item
 Communication costs for intra-node:      0.525 usec per message,   0.0024 usec per 8-byte item

 RNG seed: -454302987 834026707 561688902 1781569251 572123863 667239174 701850183 487510397



                      ************************************************************************
                      *  ADF 2022.103  RunTime: Feb22-2023 09:37:14  ShM Nodes: 4  Procs: 8  *
                      ************************************************************************
  
       ***************************
       *  GEOMETRY OPTIMIZATION  *
       ***************************

Optimization Method                    Quasi Newton
Optimization Coordinates               Delocalized Coordinates
Optimize lattice                       F
 
 ------------------------------------------------------
 Convergence criteria (Hartree,Angstrom)
 ------------------------------------------------------
 Maximum gradient               0.000100000000
 Maximum rms gradient           0.000066666667
 Maximum step allowed           0.001000000000
 Maximum rms step allowed       0.000666666667
 Maximum energy change allowe   0.000010000000
 Maximum stress energy allowe   0.000500000000
 
Initial model Hessian                  Automatic Hessian
 
------------------------------------
Quasi-Newton Optimizer Parameters
------------------------------------
Hessian Update Method                  BFGS
Maximum number of steps                  250
First GDIIS cycle                          0
Maximum GDIIS vectors                      0
Trust radius (bohr)                        0.200000
Trust radius varies                        T
Constraints converged at all steps         T
Use projector                              T
 
 Rigid motions settings for: old optimizer
 Atomic rotations (x,y,z):     T T T
 Atomic translations (x,y,z):  T T T
 Tolerance:                   1.000000000000000E-006
 
--------
Geometry
--------
Formula: H4ClO4Pa
Atoms
  Index Symbol   x (angstrom)   y (angstrom)   z (angstrom)
      1     Pa     0.34601472    -0.07416228     0.03577287
      2     Cl     1.31321790     1.79130740    -1.52913635
      3      H    -1.96464694     1.85289063     0.46970094
      4      O    -1.31883582     1.14631278     0.42477540
      5      H     2.58473464    -0.23251484     1.96808979
      6      O     0.18639990    -1.35865954    -1.61665480
      7      H     0.15735988    -1.87462938    -2.42324305
      8      O    -0.37137603    -1.54781318     1.33768875
      9      H    -0.97669755    -2.15542285     1.76754294
     10      O     2.10237134     0.07657093     1.19788308
 
Total System Charge             0.00000
Bonding info available!
 
 
----------------
ADF Engine Input
----------------
 
 Basis
 Type TZ2P
 Core None
 End
 XC
 Hybrid B3LYP
 End
 NumericalQuality Good
 

 Title: *** (NO TITLE) ***

Bad geometry: could not add a dihedral for atom    7
 Using automatic Hessian for delocalized coordinates.
 *** GO1_GOStep1 ***



 ======================
 RI Hartree-Fock Scheme
 ======================
  
 Fit Set Quality     : GOOD
 Threshold Quality   : GOOD
 Integration Quality : GOOD
 Response Quality    : DEFAULT
 Is Range Separated  :  F
 
 RIHartreeFock Dependency: number of modified vectors:           5
  
 Hartree-Fock exchange energy:   -528.221342675087     

 Energy gradients wrt nuclear displacements
 ==========================================

     Atom      Cartesian (a.u./angstrom)
                 X         Y         Z
 ----------------------------------------
     1 Pa   -0.000034 -0.001214  0.001478
     2 Cl    0.003454  0.004755 -0.003563
     3 H     0.000476 -0.000872  0.000152
     4 O    -0.010362  0.008488  0.002030
     5 H    -0.001245 -0.000288 -0.000697
     6 O    -0.000567 -0.007561 -0.011440
     7 H    -0.000056  0.000244  0.001028
     8 O    -0.003279 -0.006417  0.005573
     9 H    -0.000045  0.000076 -0.000161
    10 O     0.011658  0.002789  0.005600
 ----------------------------------------
 Mulliken charges used for AMS results%charges...
 
----------------------------------------------------------------------
Geometry Convergence after Step   1       (Hartree/Angstrom,Angstrom)
----------------------------------------------------------------------
current energy                               -2.65484406 Hartree
energy change                      -2.65484406     0.00001000    F
constrained gradient max            0.01166555     0.00010000    F
constrained gradient rms            0.00477881     0.00006667    F
gradient max                        0.01166581
gradient rms                        0.00477881
cart. step max                      0.01212417     0.00100000    F
cart. step rms                      0.00503741     0.00066667    F
 
 
--------
Geometry
--------
Formula: H4ClO4Pa
Atoms
  Index Symbol   x (angstrom)   y (angstrom)   z (angstrom)
      1     Pa     0.34918671    -0.07131054     0.03371718
      2     Cl     1.30109373     1.79315249    -1.53540403
      3      H    -1.95918431     1.84849677     0.46964475
      4      O    -1.31247979     1.14210650     0.42414830
      5      H     2.57760693    -0.23972508     1.97124748
      6      O     0.18738283    -1.35590022    -1.61031107
      7      H     0.15802582    -1.87301601    -2.41676055
      8      O    -0.36719731    -1.54145367     1.33294385
      9      H    -0.97239938    -2.14898755     1.76318403
     10      O     2.09650680     0.07051699     1.20000963
 
Total System Charge             0.00000
Bonding info available!
 
 *** GO1_GOStep2 ***



 ======================
 RI Hartree-Fock Scheme
 ======================
  
 Fit Set Quality     : GOOD
 Threshold Quality   : GOOD
 Integration Quality : GOOD
 Response Quality    : DEFAULT
 Is Range Separated  :  F
 
 RIHartreeFock Dependency: number of modified vectors:           5
  
 Hartree-Fock exchange energy:   -528.231055058077     

 Energy gradients wrt nuclear displacements
 ==========================================

     Atom      Cartesian (a.u./angstrom)
                 X         Y         Z
 ----------------------------------------
     1 Pa   -0.000561 -0.001718  0.001424
     2 Cl    0.002114  0.003174 -0.002438
     3 H    -0.000011 -0.000172  0.000149
     4 O    -0.005341  0.004267  0.001036
     5 H    -0.000806 -0.000735  0.000234
     6 O    -0.000317 -0.003697 -0.005821
     7 H    -0.000020 -0.000168  0.000268
     8 O    -0.001400 -0.003186  0.002902
     9 H    -0.000171  0.000049 -0.000166
    10 O     0.006512  0.002184  0.002411
 ----------------------------------------
 Mulliken charges used for AMS results%charges...

 dE(predicted):    -0.17228E-03, dE(actual):    -0.25595E-03, Trust radius:    0.200000, all in a.u.
 
----------------------------------------------------------------------
Geometry Convergence after Step   2       (Hartree/Angstrom,Angstrom)
----------------------------------------------------------------------
current energy                               -2.65510001 Hartree
energy change                      -0.00025595     0.00001000    F
constrained gradient max            0.00651996     0.00010000    F
constrained gradient rms            0.00255739     0.00006667    F
gradient max                        0.00652014
gradient rms                        0.00255739
cart. step max                      0.01358925     0.00100000    F
cart. step rms                      0.00541525     0.00066667    F
 
 
--------
Geometry
--------
Formula: H4ClO4Pa
Atoms
  Index Symbol   x (angstrom)   y (angstrom)   z (angstrom)
      1     Pa     0.35244272    -0.06843959     0.03194735
      2     Cl     1.28750448     1.79348997    -1.54095884
      3      H    -1.95215309     1.84338478     0.46872449
      4      O    -1.30502274     1.13719780     0.42314555
      5      H     2.57215593    -0.24487893     1.97347957
      6      O     0.18840084    -1.35250849    -1.60257401
      7      H     0.15854537    -1.86970390    -2.40915266
      8      O    -0.36395153    -1.53499631     1.32718499
      9      H    -0.96845678    -2.14278681     1.75804969
     10      O     2.08907684     0.06312116     1.20257345
 
Total System Charge             0.00000
Bonding info available!
 
 *** GO1_GOStep3 ***



 ======================
 RI Hartree-Fock Scheme
 ======================
  
 Fit Set Quality     : GOOD
 Threshold Quality   : GOOD
 Integration Quality : GOOD
 Response Quality    : DEFAULT
 Is Range Separated  :  F
 
 RIHartreeFock Dependency: number of modified vectors:           5
  
 Hartree-Fock exchange energy:   -528.243762434663     

 Energy gradients wrt nuclear displacements
 ==========================================

     Atom      Cartesian (a.u./angstrom)
                 X         Y         Z
 ----------------------------------------
     1 Pa   -0.001263 -0.001962  0.001165
     2 Cl    0.000442  0.000949 -0.000781
     3 H     0.000002  0.000028  0.000099
     4 O     0.000328 -0.000297 -0.000197
     5 H    -0.000887 -0.000852  0.000348
     6 O     0.000002  0.000621  0.000330
     7 H     0.000047 -0.000192  0.000079
     8 O     0.000734  0.000505 -0.000205
     9 H    -0.000262  0.000071 -0.000202
    10 O     0.000856  0.001129 -0.000635
 ----------------------------------------
 Mulliken charges used for AMS results%charges...

 dE(predicted):    -0.11573E-03, dE(actual):    -0.10389E-03, Trust radius:    0.200000, all in a.u.
 
----------------------------------------------------------------------
Geometry Convergence after Step   3       (Hartree/Angstrom,Angstrom)
----------------------------------------------------------------------
current energy                               -2.65520390 Hartree
energy change                      -0.00010389     0.00001000    F
constrained gradient max            0.00196244     0.00010000    F
constrained gradient rms            0.00069003     0.00006667    F
gradient max                        0.00196239
gradient rms                        0.00069003
cart. step max                      0.00319131     0.00100000    F
cart. step rms                      0.00097920     0.00066667    F
 
 
--------
Geometry
--------
Formula: H4ClO4Pa
Atoms
  Index Symbol   x (angstrom)   y (angstrom)   z (angstrom)
      1     Pa     0.35222992    -0.06882665     0.03241436
      2     Cl     1.28740656     1.79218390    -1.53988388
      3      H    -1.95183147     1.84363574     0.46806249
      4      O    -1.30495503     1.13718121     0.42294822
      5      H     2.57534724    -0.24216951     1.97290886
      6      O     0.18838248    -1.35249352    -1.60237002
      7      H     0.15834322    -1.86870565    -2.40956986
      8      O    -0.36548426    -1.53566349     1.32688760
      9      H    -0.96950015    -2.14374758     1.75799855
     10      O     2.08860353     0.06248523     1.20302325
 
Total System Charge             0.00000
Bonding info available!
 
 *** GO1_GOStep4 ***



 ======================
 RI Hartree-Fock Scheme
 ======================
  
 Fit Set Quality     : GOOD
 Threshold Quality   : GOOD
 Integration Quality : GOOD
 Response Quality    : DEFAULT
 Is Range Separated  :  F
 
 RIHartreeFock Dependency: number of modified vectors:           5
  
 Hartree-Fock exchange energy:   -528.244026932916     

 Energy gradients wrt nuclear displacements
 ==========================================

     Atom      Cartesian (a.u./angstrom)
                 X         Y         Z
 ----------------------------------------
     1 Pa   -0.001133 -0.001545  0.000899
     2 Cl    0.000308  0.000679 -0.000560
     3 H    -0.000000  0.000038  0.000098
     4 O     0.000435 -0.000391 -0.000232
     5 H    -0.000868 -0.000833  0.000343
     6 O     0.000005  0.000663  0.000396
     7 H     0.000045 -0.000191  0.000075
     8 O     0.000677  0.000417 -0.000156
     9 H    -0.000255  0.000069 -0.000195
    10 O     0.000787  0.001095 -0.000668
 ----------------------------------------
 Mulliken charges used for AMS results%charges...

 dE(predicted):    -0.43170E-05, dE(actual):    -0.81247E-05, Trust radius:    0.200000, all in a.u.
 
----------------------------------------------------------------------
Geometry Convergence after Step   4       (Hartree/Angstrom,Angstrom)
----------------------------------------------------------------------
current energy                               -2.65521203 Hartree
energy change                      -0.00000812     0.00001000    T
constrained gradient max            0.00154525     0.00010000    F
constrained gradient rms            0.00060506     0.00006667    F
gradient max                        0.00154521
gradient rms                        0.00060506
cart. step max                      0.05089163     0.00100000    F
cart. step rms                      0.01591346     0.00066667    F
 
 
--------
Geometry
--------
Formula: H4ClO4Pa
Atoms
  Index Symbol   x (angstrom)   y (angstrom)   z (angstrom)
      1     Pa     0.34809536    -0.07657632     0.04013687
      2     Cl     1.28930743     1.77273786    -1.52155008
      3      H    -1.94789154     1.84848514     0.45830121
      4      O    -1.30543868     1.13761514     0.42048779
      5      H     2.62623887    -0.19715310     1.96091116
      6      O     0.18833683    -1.35385545    -1.60104783
      7      H     0.15572684    -1.85358949    -2.41836325
      8      O    -0.39068138    -1.54683480     1.32353372
      9      H    -0.98672851    -2.15928443     1.75909638
     10      O     2.08157681     0.05233512     1.21091359
 
Total System Charge             0.00000
Bonding info available!
 
 *** GO1_GOStep5 ***



 ======================
 RI Hartree-Fock Scheme
 ======================
  
 Fit Set Quality     : GOOD
 Threshold Quality   : GOOD
 Integration Quality : GOOD
 Response Quality    : DEFAULT
 Is Range Separated  :  F
 
 RIHartreeFock Dependency: number of modified vectors:           5
  
 Hartree-Fock exchange energy:   -528.245424808362     

 Energy gradients wrt nuclear displacements
 ==========================================

     Atom      Cartesian (a.u./angstrom)
                 X         Y         Z
 ----------------------------------------
     1 Pa    0.001122  0.003982 -0.002710
     2 Cl   -0.001342 -0.002745  0.002296
     3 H     0.000020  0.000056  0.000103
     4 O     0.000568 -0.000584 -0.000428
     5 H    -0.000551 -0.000540  0.000275
     6 O    -0.000017  0.000385  0.000030
     7 H     0.000001 -0.000138  0.000092
     8 O    -0.000454 -0.001278  0.001012
     9 H    -0.000118  0.000059 -0.000118
    10 O     0.000772  0.000804 -0.000552
 ----------------------------------------
 Mulliken charges used for AMS results%charges...

 dE(predicted):    -0.64832E-04, dE(actual):    -0.64419E-04, Trust radius:    0.200000, all in a.u.
 
----------------------------------------------------------------------
Geometry Convergence after Step   5       (Hartree/Angstrom,Angstrom)
----------------------------------------------------------------------
current energy                               -2.65527645 Hartree
energy change                      -0.00006442     0.00001000    F
constrained gradient max            0.00398124     0.00010000    F
constrained gradient rms            0.00122767     0.00006667    F
gradient max                        0.00398125
gradient rms                        0.00122767
cart. step max                      0.01355362     0.00100000    F
cart. step rms                      0.00429248     0.00066667    F
 
 
--------
Geometry
--------
Formula: H4ClO4Pa
Atoms
  Index Symbol   x (angstrom)   y (angstrom)   z (angstrom)
      1     Pa     0.34668432    -0.07936153     0.04203136
      2     Cl     1.29064567     1.76912468    -1.51725260
      3      H    -1.94689552     1.84979368     0.45635292
      4      O    -1.30583099     1.13760545     0.42033135
      5      H     2.63979249    -0.18461455     1.95682032
      6      O     0.18848394    -1.35510669    -1.60094968
      7      H     0.15558847    -1.84990588    -2.42123312
      8      O    -0.39756743    -1.54927780     1.32259125
      9      H    -0.99116464    -2.16278837     1.75992173
     10      O     2.07880572     0.04841069     1.21380604
 
Total System Charge             0.00000
Bonding info available!
 
 *** GO1_GOStep6 ***



 ======================
 RI Hartree-Fock Scheme
 ======================
  
 Fit Set Quality     : GOOD
 Threshold Quality   : GOOD
 Integration Quality : GOOD
 Response Quality    : DEFAULT
 Is Range Separated  :  F
 
 RIHartreeFock Dependency: number of modified vectors:           5
  
 Hartree-Fock exchange energy:   -528.245299129949     

 Energy gradients wrt nuclear displacements
 ==========================================

     Atom      Cartesian (a.u./angstrom)
                 X         Y         Z
 ----------------------------------------
     1 Pa    0.001484  0.004339 -0.003093
     2 Cl   -0.001500 -0.003051  0.002577
     3 H     0.000026  0.000040  0.000112
     4 O     0.000284 -0.000371 -0.000381
     5 H    -0.000473 -0.000468  0.000243
     6 O    -0.000030  0.000221 -0.000190
     7 H    -0.000011 -0.000124  0.000101
     8 O    -0.000533 -0.001356  0.001126
     9 H    -0.000100  0.000049 -0.000107
    10 O     0.000852  0.000721 -0.000388
 ----------------------------------------
 Mulliken charges used for AMS results%charges...

 dE(predicted):    -0.90409E-05, dE(actual):    -0.12360E-04, Trust radius:    0.200000, all in a.u.
 
----------------------------------------------------------------------
Geometry Convergence after Step   6       (Hartree/Angstrom,Angstrom)
----------------------------------------------------------------------
current energy                               -2.65528881 Hartree
energy change                      -0.00001236     0.00001000    F
constrained gradient max            0.00433852     0.00010000    F
constrained gradient rms            0.00134901     0.00006667    F
gradient max                        0.00433853
gradient rms                        0.00134901
cart. step max                      0.06527418     0.00100000    F
cart. step rms                      0.02179874     0.00066667    F
 
 
--------
Geometry
--------
Formula: H4ClO4Pa
Atoms
  Index Symbol   x (angstrom)   y (angstrom)   z (angstrom)
      1     Pa     0.33929069    -0.09467836     0.05249991
      2     Cl     1.29891714     1.75377084    -1.49818003
      3      H    -1.94029638     1.85643047     0.44873551
      4      O    -1.30694107     1.13710637     0.42168966
      5      H     2.70389123    -0.11934037     1.92900738
      6      O     0.19033376    -1.36304979    -1.59867538
      7      H     0.15747720    -1.83149529    -2.43425971
      8      O    -0.43298206    -1.56082475     1.31676961
      9      H    -1.01348743    -2.17981008     1.76350616
     10      O     2.06233896     0.02577061     1.23132646
 
Total System Charge             0.00000
Bonding info available!
 
 *** GO1_GOStep7 ***



 ======================
 RI Hartree-Fock Scheme
 ======================
  
 Fit Set Quality     : GOOD
 Threshold Quality   : GOOD
 Integration Quality : GOOD
 Response Quality    : DEFAULT
 Is Range Separated  :  F
 
 RIHartreeFock Dependency: number of modified vectors:           5
  
 Hartree-Fock exchange energy:   -528.244751405955     

 Energy gradients wrt nuclear displacements
 ==========================================

     Atom      Cartesian (a.u./angstrom)
                 X         Y         Z
 ----------------------------------------
     1 Pa    0.002779  0.003441 -0.002806
     2 Cl   -0.001677 -0.003134  0.002710
     3 H     0.000050 -0.000038  0.000139
     4 O    -0.001069  0.000672 -0.000138
     5 H    -0.000502 -0.000175 -0.000187
     6 O    -0.000066 -0.000325 -0.000895
     7 H    -0.000081 -0.000053  0.000092
     8 O    -0.000313 -0.000663  0.000825
     9 H    -0.000051  0.000023 -0.000105
    10 O     0.000930  0.000252  0.000366
 ----------------------------------------
 Mulliken charges used for AMS results%charges...

 dE(predicted):    -0.54488E-04, dE(actual):    -0.35288E-04, Trust radius:    0.200000, all in a.u.
 
----------------------------------------------------------------------
Geometry Convergence after Step   7       (Hartree/Angstrom,Angstrom)
----------------------------------------------------------------------
current energy                               -2.65532410 Hartree
energy change                      -0.00003529     0.00001000    F
constrained gradient max            0.00344095     0.00010000    F
constrained gradient rms            0.00132405     0.00006667    F
gradient max                        0.00344090
gradient rms                        0.00132405
cart. step max                      0.06862229     0.00100000    F
cart. step rms                      0.02252224     0.00066667    F
 
 
--------
Geometry
--------
Formula: H4ClO4Pa
Atoms
  Index Symbol   x (angstrom)   y (angstrom)   z (angstrom)
      1     Pa     0.33100832    -0.11078045     0.06504178
      2     Cl     1.31093988     1.73911584    -1.48006554
      3      H    -1.93118322     1.86400872     0.44377965
      4      O    -1.30664162     1.13679646     0.42590970
      5      H     2.75921320    -0.05071808     1.88724931
      6      O     0.19359749    -1.37209752    -1.59324969
      7      H     0.16370589    -1.81276084    -2.44393770
      8      O    -0.46976746    -1.57321805     1.31003856
      9      H    -1.03613122    -2.19838114     1.76596238
     10      O     2.04380078     0.00191474     1.25169112
 
Total System Charge             0.00000
Bonding info available!
 
 *** GO1_GOStep8 ***



 ======================
 RI Hartree-Fock Scheme
 ======================
  
 Fit Set Quality     : GOOD
 Threshold Quality   : GOOD
 Integration Quality : GOOD
 Response Quality    : DEFAULT
 Is Range Separated  :  F
 
 RIHartreeFock Dependency: number of modified vectors:           5
  
 Hartree-Fock exchange energy:   -528.244690657254     

 Energy gradients wrt nuclear displacements
 ==========================================

     Atom      Cartesian (a.u./angstrom)
                 X         Y         Z
 ----------------------------------------
     1 Pa    0.003644  0.000796 -0.000247
     2 Cl   -0.001272 -0.002052  0.001773
     3 H     0.000029 -0.000045  0.000131
     4 O    -0.001749  0.001195  0.000004
     5 H    -0.000463 -0.000130 -0.000250
     6 O    -0.000008 -0.000557 -0.001165
     7 H    -0.000162  0.000050  0.000171
     8 O    -0.000084  0.000334  0.000029
     9 H     0.000238  0.000274 -0.000309
    10 O    -0.000174  0.000133 -0.000138
 ----------------------------------------
 Mulliken charges used for AMS results%charges...

 dE(predicted):    -0.41130E-04, dE(actual):    -0.29865E-04, Trust radius:    0.200000, all in a.u.
 
----------------------------------------------------------------------
Geometry Convergence after Step   8       (Hartree/Angstrom,Angstrom)
----------------------------------------------------------------------
current energy                               -2.65535396 Hartree
energy change                      -0.00002986     0.00001000    F
constrained gradient max            0.00364403     0.00010000    F
constrained gradient rms            0.00099812     0.00006667    F
gradient max                        0.00364416
gradient rms                        0.00099812
cart. step max                      0.06257198     0.00100000    F
cart. step rms                      0.02093463     0.00066667    F
 
 
--------
Geometry
--------
Formula: H4ClO4Pa
Atoms
  Index Symbol   x (angstrom)   y (angstrom)   z (angstrom)
      1     Pa     0.32173918    -0.12482679     0.07736562
      2     Cl     1.32662573     1.72547593    -1.46292343
      3      H    -1.92160576     1.87243440     0.44100905
      4      O    -1.30591840     1.13759047     0.43144594
      5      H     2.79906758     0.01185390     1.83698756
      6      O     0.19684732    -1.38036597    -1.58634665
      7      H     0.17396041    -1.79564031    -2.45009538
      8      O    -0.50296986    -1.58569848     1.30449862
      9      H    -1.05529690    -2.21756928     1.76900058
     10      O     2.02609274    -0.01937420     1.27147767
 
Total System Charge             0.00000
Bonding info available!
 
 *** GO1_GOStep9 ***



 ======================
 RI Hartree-Fock Scheme
 ======================
  
 Fit Set Quality     : GOOD
 Threshold Quality   : GOOD
 Integration Quality : GOOD
 Response Quality    : DEFAULT
 Is Range Separated  :  F
 
 RIHartreeFock Dependency: number of modified vectors:           5
  
 Hartree-Fock exchange energy:   -528.245074352779     

 Energy gradients wrt nuclear displacements
 ==========================================

     Atom      Cartesian (a.u./angstrom)
                 X         Y         Z
 ----------------------------------------
     1 Pa    0.003626 -0.001327  0.002368
     2 Cl   -0.000549 -0.000586  0.000463
     3 H     0.000116 -0.000119  0.000060
     4 O    -0.001746  0.001158  0.000101
     5 H    -0.000486 -0.000114 -0.000385
     6 O     0.000092 -0.000527 -0.000761
     7 H    -0.000224  0.000085  0.000008
     8 O     0.000713  0.001616 -0.001135
     9 H    -0.000235 -0.000250  0.000066
    10 O    -0.001306  0.000064 -0.000786
 ----------------------------------------
 Mulliken charges used for AMS results%charges...
 Rebuilding optimization coordinates
Bad geometry: could not add a dihedral for atom    5

 dE(predicted):    -0.24501E-04, dE(actual):    -0.81381E-04, Trust radius:    0.400000, all in a.u.
 
----------------------------------------------------------------------
Geometry Convergence after Step   9       (Hartree/Angstrom,Angstrom)
----------------------------------------------------------------------
current energy                               -2.65543534 Hartree
energy change                      -0.00008138     0.00001000    F
constrained gradient max            0.00362592     0.00010000    F
constrained gradient rms            0.00106425     0.00006667    F
gradient max                        0.00362612
gradient rms                        0.00106425
cart. step max                      0.00778501     0.00100000    F
cart. step rms                      0.00303594     0.00066667    F
 
 
--------
Geometry
--------
Formula: H4ClO4Pa
Atoms
  Index Symbol   x (angstrom)   y (angstrom)   z (angstrom)
      1     Pa     0.31781931    -0.12608475     0.07793204
      2     Cl     1.33204951     1.72410396    -1.46114320
      3      H    -1.92070926     1.87518107     0.44182063
      4      O    -1.30663699     1.13886825     0.43260907
      5      H     2.80259815     0.01963891     1.82935458
      6      O     0.19556911    -1.38132493    -1.58581235
      7      H     0.17780302    -1.79455355    -2.45071341
      8      O    -0.50662959    -1.58844129     1.30443920
      9      H    -1.05600027    -2.22157581     1.77047403
     10      O     2.02267903    -0.02193217     1.27345899
 
Total System Charge             0.00000
Bonding info available!
 
 *** GO1_GOStep10 ***



 ======================
 RI Hartree-Fock Scheme
 ======================
  
 Fit Set Quality     : GOOD
 Threshold Quality   : GOOD
 Integration Quality : GOOD
 Response Quality    : DEFAULT
 Is Range Separated  :  F
 
 RIHartreeFock Dependency: number of modified vectors:           5
  
 Hartree-Fock exchange energy:   -528.243820694857     

 Energy gradients wrt nuclear displacements
 ==========================================

     Atom      Cartesian (a.u./angstrom)
                 X         Y         Z
 ----------------------------------------
     1 Pa    0.001558 -0.001254  0.001690
     2 Cl    0.000006  0.000094 -0.000062
     3 H     0.000076 -0.000022  0.000030
     4 O    -0.001249  0.000747  0.000135
     5 H     0.000205 -0.000079  0.000091
     6 O     0.000157 -0.000521 -0.000564
     7 H    -0.000204  0.000076 -0.000034
     8 O     0.000583  0.001002 -0.000641
     9 H    -0.000131 -0.000115 -0.000027
    10 O    -0.001002  0.000071 -0.000618
 ----------------------------------------
 Mulliken charges used for AMS results%charges...

 dE(predicted):    -0.66852E-05, dE(actual):    -0.10959E-04, Trust radius:    0.400000, all in a.u.
 
----------------------------------------------------------------------
Geometry Convergence after Step  10       (Hartree/Angstrom,Angstrom)
----------------------------------------------------------------------
current energy                               -2.65544630 Hartree
energy change                      -0.00001096     0.00001000    F
constrained gradient max            0.00169006     0.00010000    F
constrained gradient rms            0.00065594     0.00006667    F
gradient max                        0.00169006
gradient rms                        0.00065594
cart. step max                      0.00530642     0.00100000    F
cart. step rms                      0.00194233     0.00066667    F
 
 
--------
Geometry
--------
Formula: H4ClO4Pa
Atoms
  Index Symbol   x (angstrom)   y (angstrom)   z (angstrom)
      1     Pa     0.31623549    -0.12698754     0.07869058
      2     Cl     1.33308364     1.72257064    -1.45988019
      3      H    -1.91935393     1.87645086     0.44216574
      4      O    -1.30618217     1.13933914     0.43328464
      5      H     2.80511965     0.02483538     1.82404817
      6      O     0.19516982    -1.38153683    -1.58512858
      7      H     0.18079905    -1.79337305    -2.45076651
      8      O    -0.50969346    -1.58999643     1.30419640
      9      H    -1.05764697    -2.22372275     1.77096785
     10      O     2.02101091    -0.02369974     1.27484147
 
Total System Charge             0.00000
Bonding info available!
 
 *** GO1_GOStep11 ***



 ======================
 RI Hartree-Fock Scheme
 ======================
  
 Fit Set Quality     : GOOD
 Threshold Quality   : GOOD
 Integration Quality : GOOD
 Response Quality    : DEFAULT
 Is Range Separated  :  F
 
 RIHartreeFock Dependency: number of modified vectors:           5
  
 Hartree-Fock exchange energy:   -528.244034313157     

 Energy gradients wrt nuclear displacements
 ==========================================

     Atom      Cartesian (a.u./angstrom)
                 X         Y         Z
 ----------------------------------------
     1 Pa    0.000957 -0.000877  0.001225
     2 Cl    0.000046  0.000127 -0.000097
     3 H     0.000073  0.000013  0.000016
     4 O    -0.000783  0.000370  0.000071
     5 H     0.000051 -0.000080 -0.000038
     6 O     0.000166 -0.000346 -0.000285
     7 H    -0.000180  0.000085 -0.000024
     8 O     0.000444  0.000695 -0.000418
     9 H    -0.000081 -0.000059 -0.000066
    10 O    -0.000694  0.000072 -0.000383
 ----------------------------------------
 Mulliken charges used for AMS results%charges...

 dE(predicted):    -0.17823E-05, dE(actual):    -0.78277E-05, Trust radius:    0.400000, all in a.u.
 
----------------------------------------------------------------------
Geometry Convergence after Step  11       (Hartree/Angstrom,Angstrom)
----------------------------------------------------------------------
current energy                               -2.65545413 Hartree
energy change                      -0.00000783     0.00001000    T
constrained gradient max            0.00122449     0.00010000    F
constrained gradient rms            0.00043800     0.00006667    F
gradient max                        0.00122449
gradient rms                        0.00043800
cart. step max                      0.00777849     0.00100000    F
cart. step rms                      0.00303682     0.00066667    F
 
 
--------
Geometry
--------
Formula: H4ClO4Pa
Atoms
  Index Symbol   x (angstrom)   y (angstrom)   z (angstrom)
      1     Pa     0.31312034    -0.12810775     0.07928310
      2     Cl     1.33328322     1.72011477    -1.45881237
      3      H    -1.91702991     1.87900031     0.44382262
      4      O    -1.30514553     1.14073541     0.43471781
      5      H     2.80835008     0.03138996     1.81645953
      6      O     0.19367072    -1.38140261    -1.58460969
      7      H     0.18857754    -1.79239547    -2.45078988
      8      O    -0.51480654    -1.59255545     1.30413527
      9      H    -1.06042864    -2.22709038     1.77237544
     10      O     2.01895076    -0.02580911     1.27583775
 
Total System Charge             0.00000
Bonding info available!
 
 *** GO1_GOStep12 ***



 ======================
 RI Hartree-Fock Scheme
 ======================
  
 Fit Set Quality     : GOOD
 Threshold Quality   : GOOD
 Integration Quality : GOOD
 Response Quality    : DEFAULT
 Is Range Separated  :  F
 
 RIHartreeFock Dependency: number of modified vectors:           5
  
 Hartree-Fock exchange energy:   -528.243963730751     

 Energy gradients wrt nuclear displacements
 ==========================================

     Atom      Cartesian (a.u./angstrom)
                 X         Y         Z
 ----------------------------------------
     1 Pa   -0.000391  0.000139 -0.000152
     2 Cl    0.000085  0.000118 -0.000088
     3 H     0.000071  0.000080 -0.000004
     4 O     0.000118 -0.000335 -0.000068
     5 H     0.000008 -0.000084 -0.000085
     6 O     0.000138  0.000005  0.000195
     7 H    -0.000094  0.000067 -0.000034
     8 O     0.000051 -0.000108  0.000213
     9 H    -0.000022 -0.000009 -0.000099
    10 O     0.000037  0.000127  0.000124
 ----------------------------------------
 Mulliken charges used for AMS results%charges...

 dE(predicted):    -0.31155E-05, dE(actual):    -0.12073E-04, Trust radius:    0.400000, all in a.u.
 
----------------------------------------------------------------------
Geometry Convergence after Step  12       (Hartree/Angstrom,Angstrom)
----------------------------------------------------------------------
current energy                               -2.65546620 Hartree
energy change                      -0.00001207     0.00001000    F
constrained gradient max            0.00039002     0.00010000    F
constrained gradient rms            0.00013588     0.00006667    F
gradient max                        0.00039002
gradient rms                        0.00013588
cart. step max                      0.00612870     0.00100000    F
cart. step rms                      0.00219827     0.00066667    F
 
 
--------
Geometry
--------
Formula: H4ClO4Pa
Atoms
  Index Symbol   x (angstrom)   y (angstrom)   z (angstrom)
      1     Pa     0.31216247    -0.12946069     0.08036166
      2     Cl     1.33404247     1.71849574    -1.45697321
      3      H    -1.91594079     1.87995066     0.44445258
      4      O    -1.30472134     1.14113076     0.43561166
      5      H     2.81154679     0.03748347     1.81033083
      6      O     0.19366666    -1.38195251    -1.58421341
      7      H     0.19171735    -1.79131709    -2.45118297
      8      O    -0.51849844    -1.59370784     1.30369098
      9      H    -1.06291815    -2.22864125     1.77277392
     10      O     2.01748501    -0.02810156     1.27756753
 
Total System Charge             0.00000
Bonding info available!
 
 *** GO1_GOStep13 ***



 ======================
 RI Hartree-Fock Scheme
 ======================
  
 Fit Set Quality     : GOOD
 Threshold Quality   : GOOD
 Integration Quality : GOOD
 Response Quality    : DEFAULT
 Is Range Separated  :  F
 
 RIHartreeFock Dependency: number of modified vectors:           5
  
 Hartree-Fock exchange energy:   -528.243966447406     

 Energy gradients wrt nuclear displacements
 ==========================================

     Atom      Cartesian (a.u./angstrom)
                 X         Y         Z
 ----------------------------------------
     1 Pa   -0.000220  0.000163 -0.000139
     2 Cl    0.000047  0.000116 -0.000101
     3 H     0.000072  0.000085 -0.000010
     4 O     0.000136 -0.000350 -0.000070
     5 H    -0.000010 -0.000082 -0.000113
     6 O     0.000101  0.000031  0.000210
     7 H    -0.000071  0.000067 -0.000037
     8 O    -0.000018 -0.000140  0.000235
     9 H    -0.000020 -0.000014 -0.000099
    10 O    -0.000016  0.000124  0.000124
 ----------------------------------------
 Mulliken charges used for AMS results%charges...
 
----------------------------------------------------------------------
Geometry Convergence after Step  13       (Hartree/Angstrom,Angstrom)
----------------------------------------------------------------------
current energy                               -2.65546662 Hartree
energy change                      -0.00000042     0.00001000    T
constrained gradient max            0.00034390     0.00010000    F
constrained gradient rms            0.00012659     0.00006667    F
gradient max                        0.00034395
gradient rms                        0.00012659
cart. step max                      0.00554267     0.00100000    F
cart. step rms                      0.00204195     0.00066667    F
 
 
--------
Geometry
--------
Formula: H4ClO4Pa
Atoms
  Index Symbol   x (angstrom)   y (angstrom)   z (angstrom)
      1     Pa     0.31095228    -0.13056227     0.08086979
      2     Cl     1.33439385     1.71696900    -1.45549892
      3      H    -1.91541570     1.88102925     0.44623343
      4      O    -1.30439033     1.14207370     0.43683858
      5      H     2.81397290     0.04207717     1.80478816
      6      O     0.19313042    -1.38237711    -1.58445698
      7      H     0.19682015    -1.79129804    -2.45162791
      8      O    -0.52205314    -1.59435197     1.30324315
      9      H    -1.06507085    -2.22953331     1.77362544
     10      O     2.01620244    -0.03014675     1.27840483
 
Total System Charge             0.00000
Bonding info available!
 
 *** GO1_GOStep14 ***



 ======================
 RI Hartree-Fock Scheme
 ======================
  
 Fit Set Quality     : GOOD
 Threshold Quality   : GOOD
 Integration Quality : GOOD
 Response Quality    : DEFAULT
 Is Range Separated  :  F
 
 RIHartreeFock Dependency: number of modified vectors:           5
  
 Hartree-Fock exchange energy:   -528.243776788893     

 Energy gradients wrt nuclear displacements
 ==========================================

     Atom      Cartesian (a.u./angstrom)
                 X         Y         Z
 ----------------------------------------
     1 Pa   -0.000011  0.000150 -0.000231
     2 Cl   -0.000011  0.000067 -0.000055
     3 H     0.000084  0.000075 -0.000008
     4 O     0.000007 -0.000230 -0.000039
     5 H     0.000057 -0.000077 -0.000084
     6 O     0.000023  0.000008  0.000104
     7 H    -0.000018  0.000056 -0.000026
     8 O    -0.000082 -0.000155  0.000283
     9 H    -0.000028 -0.000035 -0.000087
    10 O    -0.000021  0.000141  0.000143
 ----------------------------------------
 Mulliken charges used for AMS results%charges...
 
----------------------------------------------------------------------
Geometry Convergence after Step  14       (Hartree/Angstrom,Angstrom)
----------------------------------------------------------------------
current energy                               -2.65546702 Hartree
energy change                      -0.00000039     0.00001000    T
constrained gradient max            0.00028343     0.00010000    F
constrained gradient rms            0.00010693     0.00006667    F
gradient max                        0.00028324
gradient rms                        0.00010693
cart. step max                      0.00335213     0.00100000    F
cart. step rms                      0.00088776     0.00066667    F
 
 
--------
Geometry
--------
Formula: H4ClO4Pa
Atoms
  Index Symbol   x (angstrom)   y (angstrom)   z (angstrom)
      1     Pa     0.31035565    -0.13054383     0.08047029
      2     Cl     1.33442639     1.71646185    -1.45548099
      3      H    -1.91600642     1.88140664     0.44810176
      4      O    -1.30437070     1.14299017     0.43759468
      5      H     2.81397769     0.04218794     1.80350513
      6      O     0.19246338    -1.38239762    -1.58503534
      7      H     0.20017229    -1.79243192    -2.45165005
      8      O    -0.52300859    -1.59392532     1.30278605
      9      H    -1.06515393    -2.22914180     1.77414463
     10      O     2.01568629    -0.03072644     1.27798341
 
Total System Charge             0.00000
Bonding info available!
 
 *** GO1_GOStep15 ***



 ======================
 RI Hartree-Fock Scheme
 ======================
  
 Fit Set Quality     : GOOD
 Threshold Quality   : GOOD
 Integration Quality : GOOD
 Response Quality    : DEFAULT
 Is Range Separated  :  F
 
 RIHartreeFock Dependency: number of modified vectors:           5
  
 Hartree-Fock exchange energy:   -528.243723261078     

 Energy gradients wrt nuclear displacements
 ==========================================

     Atom      Cartesian (a.u./angstrom)
                 X         Y         Z
 ----------------------------------------
     1 Pa    0.000146  0.000056 -0.000241
     2 Cl   -0.000056 -0.000010  0.000018
     3 H     0.000091  0.000065 -0.000004
     4 O    -0.000158 -0.000091  0.000004
     5 H     0.000091 -0.000077 -0.000068
     6 O    -0.000043 -0.000030 -0.000000
     7 H     0.000026  0.000039 -0.000019
     8 O    -0.000037 -0.000056  0.000236
     9 H    -0.000034 -0.000047 -0.000080
    10 O    -0.000025  0.000149  0.000154
 ----------------------------------------
 Mulliken charges used for AMS results%charges...

 dE(predicted):    -0.30597E-06, dE(actual):    -0.17582E-05, Trust radius:    0.400000, all in a.u.
 
----------------------------------------------------------------------
Geometry Convergence after Step  15       (Hartree/Angstrom,Angstrom)
----------------------------------------------------------------------
current energy                               -2.65546878 Hartree
energy change                      -0.00000176     0.00001000    T
constrained gradient max            0.00024075     0.00010000    F
constrained gradient rms            0.00009523     0.00006667    F
gradient max                        0.00024073
gradient rms                        0.00009523
cart. step max                      0.00172793     0.00100000    F
cart. step rms                      0.00080352     0.00066667    F
 
 
--------
Geometry
--------
Formula: H4ClO4Pa
Atoms
  Index Symbol   x (angstrom)   y (angstrom)   z (angstrom)
      1     Pa     0.31007001    -0.12995734     0.07976772
      2     Cl     1.33473815     1.71641242    -1.45617893
      3      H    -1.91708447     1.88137835     0.44977288
      4      O    -1.30443554     1.14383080     0.43800471
      5      H     2.81291774     0.04059171     1.80416635
      6      O     0.19190204    -1.38223863    -1.58552023
      7      H     0.20190021    -1.79388294    -2.45134367
      8      O    -0.52272744    -1.59317790     1.30219688
      9      H    -1.06414362    -2.22845560     1.77432005
     10      O     2.01540495    -0.03062119     1.27723380
 
Total System Charge             0.00000
Bonding info available!
 
 *** GO1_GOStep16 ***



 ======================
 RI Hartree-Fock Scheme
 ======================
  
 Fit Set Quality     : GOOD
 Threshold Quality   : GOOD
 Integration Quality : GOOD
 Response Quality    : DEFAULT
 Is Range Separated  :  F
 
 RIHartreeFock Dependency: number of modified vectors:           5
  
 Hartree-Fock exchange energy:   -528.243797558629     

 Energy gradients wrt nuclear displacements
 ==========================================

     Atom      Cartesian (a.u./angstrom)
                 X         Y         Z
 ----------------------------------------
     1 Pa    0.000185 -0.000041 -0.000178
     2 Cl   -0.000066 -0.000062  0.000063
     3 H     0.000091  0.000065 -0.000002
     4 O    -0.000254 -0.000022  0.000038
     5 H     0.000092 -0.000079 -0.000065
     6 O    -0.000083 -0.000059 -0.000051
     7 H     0.000054  0.000027 -0.000015
     8 O     0.000061  0.000074  0.000138
     9 H    -0.000037 -0.000048 -0.000079
    10 O    -0.000044  0.000145  0.000148
 ----------------------------------------
 Mulliken charges used for AMS results%charges...

 dE(predicted):    -0.20970E-06, dE(actual):    -0.38300E-05, Trust radius:    0.400000, all in a.u.
 
----------------------------------------------------------------------
Geometry Convergence after Step  16       (Hartree/Angstrom,Angstrom)
----------------------------------------------------------------------
current energy                               -2.65547261 Hartree
energy change                      -0.00000383     0.00001000    T
constrained gradient max            0.00024946     0.00010000    F
constrained gradient rms            0.00009609     0.00006667    F
gradient max                        0.00024951
gradient rms                        0.00009609
cart. step max                      0.00180504     0.00100000    F
cart. step rms                      0.00085764     0.00066667    F
 
 
--------
Geometry
--------
Formula: H4ClO4Pa
Atoms
  Index Symbol   x (angstrom)   y (angstrom)   z (angstrom)
      1     Pa     0.30988147    -0.12917349     0.07902513
      2     Cl     1.33541735     1.71646110    -1.45712378
      3      H    -1.91837484     1.88112837     0.45142453
      4      O    -1.30438301     1.14472662     0.43823875
      5      H     2.81159500     0.03878667     1.80528777
      6      O     0.19151181    -1.38200226    -1.58587297
      7      H     0.20279814    -1.79539257    -2.45084354
      8      O    -0.52225958    -1.59244729     1.30141258
      9      H    -1.06276976    -2.22788644     1.77435222
     10      O     2.01512546    -0.03032103     1.27651889
 
Total System Charge             0.00000
Bonding info available!
 
 *** GO1_GOStep17 ***



 ======================
 RI Hartree-Fock Scheme
 ======================
  
 Fit Set Quality     : GOOD
 Threshold Quality   : GOOD
 Integration Quality : GOOD
 Response Quality    : DEFAULT
 Is Range Separated  :  F
 
 RIHartreeFock Dependency: number of modified vectors:           5
  
 Hartree-Fock exchange energy:   -528.243926141474     

 Energy gradients wrt nuclear displacements
 ==========================================

     Atom      Cartesian (a.u./angstrom)
                 X         Y         Z
 ----------------------------------------
     1 Pa    0.000144 -0.000101 -0.000083
     2 Cl   -0.000050 -0.000083  0.000078
     3 H     0.000088  0.000068 -0.000003
     4 O    -0.000275 -0.000015  0.000060
     5 H     0.000074 -0.000082 -0.000073
     6 O    -0.000106 -0.000075 -0.000058
     7 H     0.000070  0.000019 -0.000011
     8 O     0.000156  0.000176  0.000038
     9 H    -0.000037 -0.000042 -0.000081
    10 O    -0.000065  0.000136  0.000133
 ----------------------------------------
 Mulliken charges used for AMS results%charges...

 dE(predicted):    -0.18693E-06, dE(actual):    -0.41548E-05, Trust radius:    0.400000, all in a.u.
 
----------------------------------------------------------------------
Geometry Convergence after Step  17       (Hartree/Angstrom,Angstrom)
----------------------------------------------------------------------
current energy                               -2.65547676 Hartree
energy change                      -0.00000415     0.00001000    T
constrained gradient max            0.00027147     0.00010000    F
constrained gradient rms            0.00009912     0.00006667    F
gradient max                        0.00027152
gradient rms                        0.00009912
cart. step max                      0.00261847     0.00100000    F
cart. step rms                      0.00129438     0.00066667    F
 
 
--------
Geometry
--------
Formula: H4ClO4Pa
Atoms
  Index Symbol   x (angstrom)   y (angstrom)   z (angstrom)
      1     Pa     0.30970186    -0.12795376     0.07791675
      2     Cl     1.33674152     1.71657686    -1.45862435
      3      H    -1.92051998     1.88044918     0.45404300
      4      O    -1.30400234     1.14621407     0.43840111
      5      H     2.80964396     0.03633002     1.80699045
      6      O     0.19125444    -1.38158019    -1.58635566
      7      H     0.20354489    -1.79768500    -2.45000239
      8      O    -0.52187643    -1.59142426     1.30000288
      9      H    -1.06064333    -2.22720201     1.77445760
     10      O     2.01469743    -0.02984523     1.27559018
 
Total System Charge             0.00000
Bonding info available!
 
 *** GO1_GOStep18 ***



 ======================
 RI Hartree-Fock Scheme
 ======================
  
 Fit Set Quality     : GOOD
 Threshold Quality   : GOOD
 Integration Quality : GOOD
 Response Quality    : DEFAULT
 Is Range Separated  :  F
 
 RIHartreeFock Dependency: number of modified vectors:           5
  
 Hartree-Fock exchange energy:   -528.244115481580     

 Energy gradients wrt nuclear displacements
 ==========================================

     Atom      Cartesian (a.u./angstrom)
                 X         Y         Z
 ----------------------------------------
     1 Pa    0.000059 -0.000139  0.000058
     2 Cl   -0.000013 -0.000086  0.000072
     3 H     0.000080  0.000071 -0.000006
     4 O    -0.000248 -0.000045  0.000078
     5 H     0.000044 -0.000085 -0.000086
     6 O    -0.000125 -0.000087 -0.000043
     7 H     0.000083  0.000010 -0.000003
     8 O     0.000256  0.000266 -0.000079
     9 H    -0.000034 -0.000032 -0.000083
    10 O    -0.000102  0.000126  0.000093
 ----------------------------------------
 Mulliken charges used for AMS results%charges...

 dE(predicted):    -0.30479E-06, dE(actual):    -0.66116E-05, Trust radius:    0.400000, all in a.u.
 
----------------------------------------------------------------------
Geometry Convergence after Step  18       (Hartree/Angstrom,Angstrom)
----------------------------------------------------------------------
current energy                               -2.65548337 Hartree
energy change                      -0.00000661     0.00001000    T
constrained gradient max            0.00026927     0.00010000    F
constrained gradient rms            0.00010869     0.00006667    F
gradient max                        0.00026913
gradient rms                        0.00010869
cart. step max                      0.00436963     0.00100000    F
cart. step rms                      0.00208690     0.00066667    F
 
 
--------
Geometry
--------
Formula: H4ClO4Pa
Atoms
  Index Symbol   x (angstrom)   y (angstrom)   z (angstrom)
      1     Pa     0.30964509    -0.12606856     0.07611801
      2     Cl     1.33899291     1.71689455    -1.46102517
      3      H    -1.92421629     1.87882232     0.45841263
      4      O    -1.30290364     1.14876201     0.43829478
      5      H     2.80666032     0.03271482     1.80974704
      6      O     0.19141535    -1.38080430    -1.58723974
      7      H     0.20398791    -1.80132579    -2.44872975
      8      O    -0.52185859    -1.58979929     1.29755573
      9      H    -1.05727191    -2.22617264     1.77495928
     10      O     2.01409088    -0.02914344     1.27432677
 
Total System Charge             0.00000
Bonding info available!
 
 *** GO1_GOStep19 ***



 ======================
 RI Hartree-Fock Scheme
 ======================
  
 Fit Set Quality     : GOOD
 Threshold Quality   : GOOD
 Integration Quality : GOOD
 Response Quality    : DEFAULT
 Is Range Separated  :  F
 
 RIHartreeFock Dependency: number of modified vectors:           5
  
 Hartree-Fock exchange energy:   -528.244351494131     

 Energy gradients wrt nuclear displacements
 ==========================================

     Atom      Cartesian (a.u./angstrom)
                 X         Y         Z
 ----------------------------------------
     1 Pa   -0.000036 -0.000149  0.000241
     2 Cl    0.000042 -0.000061  0.000038
     3 H     0.000064  0.000069 -0.000010
     4 O    -0.000168 -0.000098  0.000087
     5 H     0.000002 -0.000089 -0.000104
     6 O    -0.000136 -0.000086 -0.000007
     7 H     0.000090  0.000000  0.000005
     8 O     0.000330  0.000316 -0.000189
     9 H    -0.000028 -0.000018 -0.000083
    10 O    -0.000160  0.000116  0.000022
 ----------------------------------------
 Mulliken charges used for AMS results%charges...

 dE(predicted):    -0.53629E-06, dE(actual):    -0.10803E-04, Trust radius:    0.400000, all in a.u.
 
----------------------------------------------------------------------
Geometry Convergence after Step  19       (Hartree/Angstrom,Angstrom)
----------------------------------------------------------------------
current energy                               -2.65549418 Hartree
energy change                      -0.00001080     0.00001000    F
constrained gradient max            0.00032320     0.00010000    F
constrained gradient rms            0.00012741     0.00006667    F
gradient max                        0.00032320
gradient rms                        0.00012741
cart. step max                      0.00706099     0.00100000    F
cart. step rms                      0.00312366     0.00066667    F
 
 
--------
Geometry
--------
Formula: H4ClO4Pa
Atoms
  Index Symbol   x (angstrom)   y (angstrom)   z (angstrom)
      1     Pa     0.30975940    -0.12353942     0.07338860
      2     Cl     1.34261397     1.71740693    -1.46429508
      3      H    -1.93004920     1.87562597     0.46547363
      4      O    -1.30054206     1.15290195     0.43764404
      5      H     2.80271032     0.02836197     1.81321295
      6      O     0.19248286    -1.37957987    -1.58887144
      7      H     0.20411545    -1.80671357    -2.44709973
      8      O    -0.52317775    -1.58733518     1.29362392
      9      H    -1.05246192    -2.22471421     1.77641640
     10      O     2.01309098    -0.02853489     1.27292629
 
Total System Charge             0.00000
Bonding info available!
 
 *** GO1_GOStep20 ***



 ======================
 RI Hartree-Fock Scheme
 ======================
  
 Fit Set Quality     : GOOD
 Threshold Quality   : GOOD
 Integration Quality : GOOD
 Response Quality    : DEFAULT
 Is Range Separated  :  F
 
 RIHartreeFock Dependency: number of modified vectors:           5
  
 Hartree-Fock exchange energy:   -528.244542774042     

 Energy gradients wrt nuclear displacements
 ==========================================

     Atom      Cartesian (a.u./angstrom)
                 X         Y         Z
 ----------------------------------------
     1 Pa   -0.000084 -0.000127  0.000424
     2 Cl    0.000098  0.000006 -0.000031
     3 H     0.000029  0.000058 -0.000015
     4 O    -0.000030 -0.000160  0.000083
     5 H    -0.000042 -0.000089 -0.000118
     6 O    -0.000133 -0.000075  0.000020
     7 H     0.000084 -0.000005  0.000018
     8 O     0.000320  0.000280 -0.000237
     9 H    -0.000017 -0.000005 -0.000078
    10 O    -0.000224  0.000117 -0.000066
 ----------------------------------------
 Mulliken charges used for AMS results%charges...

 dE(predicted):    -0.88967E-06, dE(actual):    -0.12692E-04, Trust radius:    0.400000, all in a.u.
 
----------------------------------------------------------------------
Geometry Convergence after Step  20       (Hartree/Angstrom,Angstrom)
----------------------------------------------------------------------
current energy                               -2.65550687 Hartree
energy change                      -0.00001269     0.00001000    F
constrained gradient max            0.00042386     0.00010000    F
constrained gradient rms            0.00014334     0.00006667    F
gradient max                        0.00042387
gradient rms                        0.00014334
cart. step max                      0.00869669     0.00100000    F
cart. step rms                      0.00343607     0.00066667    F
 
 
--------
Geometry
--------
Formula: H4ClO4Pa
Atoms
  Index Symbol   x (angstrom)   y (angstrom)   z (angstrom)
      1     Pa     0.30968414    -0.12147123     0.07053301
      2     Cl     1.34737437     1.71749927    -1.46675436
      3      H    -1.93660560     1.87150366     0.47417032
      4      O    -1.29713400     1.15808989     0.43645534
      5      H     2.79986395     0.02654462     1.81440058
      6      O     0.19460119    -1.37832716    -1.59104686
      7      H     0.20455962    -1.81237339    -2.44581377
      8      O    -0.52726736    -1.58476120     1.28889030
      9      H    -1.04778480    -2.22362998     1.77909529
     10      O     2.01125053    -0.02919481     1.27248974
 
Total System Charge             0.00000
Bonding info available!
 
 *** GO1_GOStep21 ***



 ======================
 RI Hartree-Fock Scheme
 ======================
  
 Fit Set Quality     : GOOD
 Threshold Quality   : GOOD
 Integration Quality : GOOD
 Response Quality    : DEFAULT
 Is Range Separated  :  F
 
 RIHartreeFock Dependency: number of modified vectors:           5
  
 Hartree-Fock exchange energy:   -528.244555619912     

 Energy gradients wrt nuclear displacements
 ==========================================

     Atom      Cartesian (a.u./angstrom)
                 X         Y         Z
 ----------------------------------------
     1 Pa   -0.000019 -0.000098  0.000482
     2 Cl    0.000116  0.000095 -0.000113
     3 H    -0.000003  0.000023 -0.000020
     4 O     0.000093 -0.000164  0.000066
     5 H    -0.000037 -0.000085 -0.000100
     6 O    -0.000113 -0.000033  0.000034
     7 H     0.000065 -0.000013  0.000014
     8 O     0.000198  0.000150 -0.000161
     9 H    -0.000003 -0.000005 -0.000062
    10 O    -0.000297  0.000131 -0.000142
 ----------------------------------------
 Mulliken charges used for AMS results%charges...

 dE(predicted):    -0.10533E-05, dE(actual):    -0.98392E-05, Trust radius:    0.400000, all in a.u.
 
----------------------------------------------------------------------
Geometry Convergence after Step  21       (Hartree/Angstrom,Angstrom)
----------------------------------------------------------------------
current energy                               -2.65551671 Hartree
energy change                      -0.00000984     0.00001000    T
constrained gradient max            0.00048275     0.00010000    F
constrained gradient rms            0.00013814     0.00006667    F
gradient max                        0.00048276
gradient rms                        0.00013814
cart. step max                      0.00812844     0.00100000    F
cart. step rms                      0.00348706     0.00066667    F
 
 
--------
Geometry
--------
Formula: H4ClO4Pa
Atoms
  Index Symbol   x (angstrom)   y (angstrom)   z (angstrom)
      1     Pa     0.30882020    -0.12105954     0.06883821
      2     Cl     1.35301113     1.71624715    -1.46631262
      3      H    -1.94177790     1.86811254     0.48229876
      4      O    -1.29371797     1.16310841     0.43531301
      5      H     2.80052991     0.03093510     1.80975138
      6      O     0.19718406    -1.37773774    -1.59297188
      7      H     0.20627717    -1.81624787    -2.44546365
      8      O    -0.53466062    -1.58323030     1.28447939
      9      H    -1.04529472    -2.22404049     1.78239219
     10      O     2.00817076    -0.03220757     1.27409478
 
Total System Charge             0.00000
Bonding info available!
 
 *** GO1_GOStep22 ***



 ======================
 RI Hartree-Fock Scheme
 ======================
  
 Fit Set Quality     : GOOD
 Threshold Quality   : GOOD
 Integration Quality : GOOD
 Response Quality    : DEFAULT
 Is Range Separated  :  F
 
 RIHartreeFock Dependency: number of modified vectors:           5
  
 Hartree-Fock exchange energy:   -528.244427901194     

 Energy gradients wrt nuclear displacements
 ==========================================

     Atom      Cartesian (a.u./angstrom)
                 X         Y         Z
 ----------------------------------------
     1 Pa    0.000157 -0.000112  0.000403
     2 Cl    0.000086  0.000165 -0.000168
     3 H    -0.000021 -0.000018 -0.000027
     4 O     0.000131 -0.000090  0.000064
     5 H    -0.000001 -0.000075 -0.000078
     6 O    -0.000081  0.000010  0.000012
     7 H     0.000047 -0.000010  0.000007
     8 O     0.000000 -0.000017 -0.000001
     9 H     0.000016 -0.000006 -0.000057
    10 O    -0.000334  0.000154 -0.000154
 ----------------------------------------
 Mulliken charges used for AMS results%charges...

 dE(predicted):    -0.88339E-06, dE(actual):    -0.77294E-05, Trust radius:    0.400000, all in a.u.
 
----------------------------------------------------------------------
Geometry Convergence after Step  22       (Hartree/Angstrom,Angstrom)
----------------------------------------------------------------------
current energy                               -2.65552444 Hartree
energy change                      -0.00000773     0.00001000    T
constrained gradient max            0.00040309     0.00010000    F
constrained gradient rms            0.00012590     0.00006667    F
gradient max                        0.00040310
gradient rms                        0.00012590
cart. step max                      0.00522763     0.00100000    F
cart. step rms                      0.00248645     0.00066667    F
 
 
--------
Geometry
--------
Formula: H4ClO4Pa
Atoms
  Index Symbol   x (angstrom)   y (angstrom)   z (angstrom)
      1     Pa     0.30811203    -0.12086232     0.06763257
      2     Cl     1.35732644     1.71530718    -1.46510640
      3      H    -1.94548114     1.86566901     0.48752640
      4      O    -1.29165246     1.16651553     0.43405823
      5      H     2.80122902     0.03427535     1.80604410
      6      O     0.19907807    -1.37735917    -1.59442274
      7      H     0.20699882    -1.81865077    -2.44548462
      8      O    -0.53981508    -1.58200162     1.28168896
      9      H    -1.04318431    -2.22429197     1.78503492
     10      O     2.00593064    -0.03472157     1.27544817
 
Total System Charge             0.00000
Bonding info available!
 
 *** GO1_GOStep23 ***



 ======================
 RI Hartree-Fock Scheme
 ======================
  
 Fit Set Quality     : GOOD
 Threshold Quality   : GOOD
 Integration Quality : GOOD
 Response Quality    : DEFAULT
 Is Range Separated  :  F
 
 RIHartreeFock Dependency: number of modified vectors:           5
  
 Hartree-Fock exchange energy:   -528.244306234072     

 Energy gradients wrt nuclear displacements
 ==========================================

     Atom      Cartesian (a.u./angstrom)
                 X         Y         Z
 ----------------------------------------
     1 Pa    0.000234 -0.000112  0.000194
     2 Cl    0.000030  0.000148 -0.000137
     3 H    -0.000037 -0.000039 -0.000032
     4 O     0.000121 -0.000009  0.000071
     5 H     0.000028 -0.000064 -0.000061
     6 O    -0.000041  0.000031 -0.000017
     7 H     0.000028  0.000001  0.000002
     8 O    -0.000106 -0.000099  0.000113
     9 H     0.000015 -0.000022 -0.000044
    10 O    -0.000272  0.000166 -0.000090
 ----------------------------------------
 Mulliken charges used for AMS results%charges...

 dE(predicted):    -0.39804E-06, dE(actual):    -0.34310E-05, Trust radius:    0.400000, all in a.u.
 
----------------------------------------------------------------------
Geometry Convergence after Step  23       (Hartree/Angstrom,Angstrom)
----------------------------------------------------------------------
current energy                               -2.65552787 Hartree
energy change                      -0.00000343     0.00001000    T
constrained gradient max            0.00027438     0.00010000    F
constrained gradient rms            0.00010429     0.00006667    F
gradient max                        0.00027442
gradient rms                        0.00010429
cart. step max                      0.00383355     0.00100000    F
cart. step rms                      0.00184399     0.00066667    F
 
 
--------
Geometry
--------
Formula: H4ClO4Pa
Atoms
  Index Symbol   x (angstrom)   y (angstrom)   z (angstrom)
      1     Pa     0.30762188    -0.12021518     0.06638513
      2     Cl     1.36096281     1.71486459    -1.46423224
      3      H    -1.94889059     1.86355849     0.49135995
      4      O    -1.29049886     1.16914855     0.43271451
      5      H     2.80105957     0.03536065     1.80431308
      6      O     0.20038085    -1.37692986    -1.59559157
      7      H     0.20682523    -1.82079911    -2.44532016
      8      O    -0.54280001    -1.58058886     1.27958710
      9      H    -1.04047759    -2.22407954     1.78703689
     10      O     2.00435875    -0.03644005     1.27616689
 
Total System Charge             0.00000
Bonding info available!
 
 *** GO1_GOStep24 ***



 ======================
 RI Hartree-Fock Scheme
 ======================
  
 Fit Set Quality     : GOOD
 Threshold Quality   : GOOD
 Integration Quality : GOOD
 Response Quality    : DEFAULT
 Is Range Separated  :  F
 
 RIHartreeFock Dependency: number of modified vectors:           5
  
 Hartree-Fock exchange energy:   -528.244246332391     

 Energy gradients wrt nuclear displacements
 ==========================================

     Atom      Cartesian (a.u./angstrom)
                 X         Y         Z
 ----------------------------------------
     1 Pa    0.000201 -0.000102 -0.000013
     2 Cl   -0.000015  0.000087 -0.000069
     3 H    -0.000046 -0.000055 -0.000035
     4 O     0.000087  0.000058  0.000091
     5 H     0.000060 -0.000053 -0.000041
     6 O    -0.000003  0.000030 -0.000023
     7 H     0.000011  0.000008 -0.000008
     8 O    -0.000109 -0.000098  0.000149
     9 H     0.000011 -0.000035 -0.000031
    10 O    -0.000197  0.000160 -0.000019
 ----------------------------------------
 Mulliken charges used for AMS results%charges...
 
----------------------------------------------------------------------
Geometry Convergence after Step  24       (Hartree/Angstrom,Angstrom)
----------------------------------------------------------------------
current energy                               -2.65552877 Hartree
energy change                      -0.00000090     0.00001000    T
constrained gradient max            0.00020256     0.00010000    F
constrained gradient rms            0.00008307     0.00006667    F
gradient max                        0.00020256
gradient rms                        0.00008307
cart. step max                      0.00230325     0.00100000    F
cart. step rms                      0.00103251     0.00066667    F
 
 
--------
Geometry
--------
Formula: H4ClO4Pa
Atoms
  Index Symbol   x (angstrom)   y (angstrom)   z (angstrom)
      1     Pa     0.30739759    -0.11952481     0.06564870
      2     Cl     1.36326606     1.71484486    -1.46351933
      3      H    -1.95118094     1.86231048     0.49281692
      4      O    -1.29037737     1.17042560     0.43163677
      5      H     2.80076926     0.03503346     1.80390393
      6      O     0.20093037    -1.37659473    -1.59610959
      7      H     0.20599340    -1.82190553    -2.44508657
      8      O    -0.54363568    -1.57956687     1.27856129
      9      H    -1.03828315    -2.22374327     1.78810315
     10      O     2.00366250    -0.03739951     1.27646430
 
Total System Charge             0.00000
Bonding info available!
 
 *** GO1_GOStep25 ***



 ======================
 RI Hartree-Fock Scheme
 ======================
  
 Fit Set Quality     : GOOD
 Threshold Quality   : GOOD
 Integration Quality : GOOD
 Response Quality    : DEFAULT
 Is Range Separated  :  F
 
 RIHartreeFock Dependency: number of modified vectors:           5
  
 Hartree-Fock exchange energy:   -528.244257943938     

 Energy gradients wrt nuclear displacements
 ==========================================

     Atom      Cartesian (a.u./angstrom)
                 X         Y         Z
 ----------------------------------------
     1 Pa    0.000105 -0.000081 -0.000145
     2 Cl   -0.000042  0.000018 -0.000001
     3 H    -0.000054 -0.000056 -0.000038
     4 O     0.000055  0.000091  0.000108
     5 H     0.000058 -0.000049 -0.000041
     6 O     0.000021  0.000003 -0.000022
     7 H    -0.000004  0.000017 -0.000013
     8 O    -0.000041 -0.000043  0.000115
     9 H     0.000007 -0.000039 -0.000023
    10 O    -0.000106  0.000140  0.000060
 ----------------------------------------
 Mulliken charges used for AMS results%charges...
 
----------------------------------------------------------------------
Geometry Convergence after Step  25       (Hartree/Angstrom,Angstrom)
----------------------------------------------------------------------
current energy                               -2.65552877 Hartree
energy change                      -0.00000001     0.00001000    T
constrained gradient max            0.00014482     0.00010000    F
constrained gradient rms            0.00006601     0.00006667    T
gradient max                        0.00014480
gradient rms                        0.00006601
cart. step max                      0.00124107     0.00100000    F
cart. step rms                      0.00047779     0.00066667    T
 
 
--------
Geometry
--------
Formula: H4ClO4Pa
Atoms
  Index Symbol   x (angstrom)   y (angstrom)   z (angstrom)
      1     Pa     0.30722396    -0.11908608     0.06550402
      2     Cl     1.36450713     1.71487225    -1.46294362
      3      H    -1.95232486     1.86186915     0.49296275
      4      O    -1.29073077     1.17080043     0.43111892
      5      H     2.80089541     0.03477214     1.80344113
      6      O     0.20096197    -1.37641073    -1.59607366
      7      H     0.20558270    -1.82221001    -2.44479278
      8      O    -0.54376309    -1.57910880     1.27818094
      9      H    -1.03724573    -2.22362083     1.78842316
     10      O     2.00343532    -0.03799784     1.27659871
 
Total System Charge             0.00000
Bonding info available!
 
 *** GO1_GOStep26 ***



 ======================
 RI Hartree-Fock Scheme
 ======================
  
 Fit Set Quality     : GOOD
 Threshold Quality   : GOOD
 Integration Quality : GOOD
 Response Quality    : DEFAULT
 Is Range Separated  :  F
 
 RIHartreeFock Dependency: number of modified vectors:           5
  
 Hartree-Fock exchange energy:   -528.244309550518     

 Energy gradients wrt nuclear displacements
 ==========================================

     Atom      Cartesian (a.u./angstrom)
                 X         Y         Z
 ----------------------------------------
     1 Pa    0.000009 -0.000061 -0.000163
     2 Cl   -0.000042 -0.000019  0.000030
     3 H    -0.000055 -0.000052 -0.000042
     4 O     0.000044  0.000081  0.000117
     5 H     0.000047 -0.000047 -0.000049
     6 O     0.000026 -0.000022 -0.000009
     7 H    -0.000010  0.000022 -0.000015
     8 O     0.000025  0.000011  0.000053
     9 H     0.000010 -0.000033 -0.000024
    10 O    -0.000054  0.000120  0.000100
 ----------------------------------------
 Mulliken charges used for AMS results%charges...
 
----------------------------------------------------------------------
Geometry Convergence after Step  26       (Hartree/Angstrom,Angstrom)
----------------------------------------------------------------------
current energy                               -2.65552903 Hartree
energy change                      -0.00000025     0.00001000    T
constrained gradient max            0.00016328     0.00010000    F
constrained gradient rms            0.00005835     0.00006667    T
gradient max                        0.00016326
gradient rms                        0.00005835
cart. step max                      0.00053305     0.00100000    T
cart. step rms                      0.00023697     0.00066667    T
 
 
--------
Geometry
--------
Formula: H4ClO4Pa
Atoms
  Index Symbol   x (angstrom)   y (angstrom)   z (angstrom)
      1     Pa     0.30711632    -0.11882605     0.06558233
      2     Cl     1.36496101     1.71499941    -1.46261472
      3      H    -1.95285792     1.86173182     0.49274655
      4      O    -1.29109810     1.17082081     0.43088980
      5      H     2.80115147     0.03444644     1.80307395
      6      O     0.20084439    -1.37625819    -1.59589516
      7      H     0.20562516    -1.82226178    -2.44450318
      8      O    -0.54376782    -1.57890830     1.27810858
      9      H    -1.03693165    -2.22354426     1.78849732
     10      O     2.00349918    -0.03832022     1.27653411
 
Total System Charge             0.00000
Bonding info available!
 
 *** GO1_GOStep27 ***



 ======================
 RI Hartree-Fock Scheme
 ======================
  
 Fit Set Quality     : GOOD
 Threshold Quality   : GOOD
 Integration Quality : GOOD
 Response Quality    : DEFAULT
 Is Range Separated  :  F
 
 RIHartreeFock Dependency: number of modified vectors:           5
  
 Hartree-Fock exchange energy:   -528.244345771633     

 Energy gradients wrt nuclear displacements
 ==========================================

     Atom      Cartesian (a.u./angstrom)
                 X         Y         Z
 ----------------------------------------
     1 Pa   -0.000055 -0.000041 -0.000141
     2 Cl   -0.000033 -0.000028  0.000035
     3 H    -0.000054 -0.000049 -0.000043
     4 O     0.000050  0.000054  0.000116
     5 H     0.000037 -0.000047 -0.000055
     6 O     0.000021 -0.000033  0.000003
     7 H    -0.000008  0.000023 -0.000014
     8 O     0.000054  0.000035  0.000012
     9 H     0.000014 -0.000027 -0.000025
    10 O    -0.000026  0.000112  0.000112
 ----------------------------------------
 Mulliken charges used for AMS results%charges...
 
----------------------------------------------------------------------
Geometry Convergence after Step  27       (Hartree/Angstrom,Angstrom)
----------------------------------------------------------------------
current energy                               -2.65552902 Hartree
energy change                       0.00000001     0.00001000    T
constrained gradient max            0.00014125     0.00010000    F
constrained gradient rms            0.00005525     0.00006667    T
gradient max                        0.00014124
gradient rms                        0.00005525
cart. step max                      0.00071571     0.00100000    T
cart. step rms                      0.00032379     0.00066667    T
 
 
--------
Geometry
--------
Formula: H4ClO4Pa
Atoms
  Index Symbol   x (angstrom)   y (angstrom)   z (angstrom)
      1     Pa     0.30703488    -0.11852054     0.06575397
      2     Cl     1.36517433     1.71536932    -1.46222674
      3      H    -1.95346774     1.86154088     0.49230858
      4      O    -1.29159567     1.17072333     0.43056884
      5      H     2.80156497     0.03373073     1.80265574
      6      O     0.20069683    -1.37598894    -1.59565389
      7      H     0.20590597    -1.82229211    -2.44409820
      8      O    -0.54379244    -1.57863750     1.27817150
      9      H    -1.03676053    -2.22334041     1.78866082
     10      O     2.00378143    -0.03870507     1.27627896
 
Total System Charge             0.00000
Bonding info available!
 
 *** GO1_GOStep28 ***



 ======================
 RI Hartree-Fock Scheme
 ======================
  
 Fit Set Quality     : GOOD
 Threshold Quality   : GOOD
 Integration Quality : GOOD
 Response Quality    : DEFAULT
 Is Range Separated  :  F
 
 RIHartreeFock Dependency: number of modified vectors:           5
  
 Hartree-Fock exchange energy:   -528.244375999232     

 Energy gradients wrt nuclear displacements
 ==========================================

     Atom      Cartesian (a.u./angstrom)
                 X         Y         Z
 ----------------------------------------
     1 Pa   -0.000103 -0.000024 -0.000096
     2 Cl   -0.000019 -0.000025  0.000028
     3 H    -0.000053 -0.000045 -0.000043
     4 O     0.000061  0.000020  0.000106
     5 H     0.000029 -0.000048 -0.000060
     6 O     0.000008 -0.000036  0.000016
     7 H    -0.000001  0.000023 -0.000011
     8 O     0.000066  0.000050 -0.000026
     9 H     0.000018 -0.000022 -0.000025
    10 O    -0.000005  0.000107  0.000110
 ----------------------------------------
 Mulliken charges used for AMS results%charges...
 
----------------------------------------------------------------------
Geometry Convergence after Step  28       (Hartree/Angstrom,Angstrom)
----------------------------------------------------------------------
current energy                               -2.65552916 Hartree
energy change                      -0.00000013     0.00001000    T
[...]
    30          3913.8525              11.4656

 Zero-point energy (Hartree):     0.0476

 ------------
 Normal Modes
 ------------

 Number of removed rigid normal modes: 6
 
 Mode:     7      Frequency (cm-1):       41.9568     Intensity (km/mol):       24.7049
 Index  Atom      ---- Displacements (x/y/z) ----
     1    Pa       0.014102  -0.012945   0.003182
     2    Cl      -0.060825   0.038107   0.009778
     3     H       0.413217   0.442074  -0.535767
     4     O       0.006426   0.006656  -0.057178
     5     H      -0.092748  -0.133730   0.184646
     6     O      -0.046134   0.021225  -0.019813
     7     H      -0.097069   0.048618  -0.034683
     8     O      -0.024702   0.020534   0.022723
     9     H      -0.426919   0.273945  -0.043865
    10     O       0.006516   0.015507   0.014008
 
 Mode:     8      Frequency (cm-1):       51.9025     Intensity (km/mol):        0.8476
 Index  Atom      ---- Displacements (x/y/z) ----
     1    Pa       0.005952   0.008329   0.012755
     2    Cl      -0.011078  -0.050975  -0.069238
     3     H      -0.113052  -0.116017   0.051274
     4     O      -0.017522  -0.019002  -0.002942
     5     H      -0.194636  -0.370077   0.365367
     6     O      -0.034714   0.048757  -0.023606
     7     H       0.194743   0.572275  -0.299535
     8     O       0.018925  -0.039089  -0.031529
     9     H      -0.113910  -0.204938  -0.367767
    10     O      -0.014152   0.007959   0.041000
 
 Mode:     9      Frequency (cm-1):       62.0404     Intensity (km/mol):        4.6309
 Index  Atom      ---- Displacements (x/y/z) ----
     1    Pa       0.003985   0.000638   0.007027
     2    Cl       0.118008  -0.012470   0.069844
     3     H      -0.290370  -0.270771  -0.232044
     4     O      -0.163111  -0.149384  -0.219443
     5     H       0.205033   0.386920  -0.328326
     6     O      -0.308375   0.099270  -0.043920
     7     H      -0.425607   0.100482  -0.045519
     8     O       0.150188  -0.017721   0.094808
     9     H      -0.034746  -0.077000  -0.157268
    10     O       0.040123   0.077087  -0.037552
 
 Mode:    10      Frequency (cm-1):       63.7620     Intensity (km/mol):        3.5439
 Index  Atom      ---- Displacements (x/y/z) ----
     1    Pa       0.001590  -0.018127  -0.012742
     2    Cl       0.039590  -0.047462  -0.024430
     3     H       0.298392   0.242012   0.128151
     4     O       0.110779   0.056132   0.188549
     5     H      -0.101570   0.664833   0.055208
     6     O      -0.114634   0.074055  -0.080151
     7     H      -0.253844  -0.072430  -0.003633
     8     O       0.049786  -0.105274  -0.084884
     9     H       0.059663   0.132232   0.223897
    10     O      -0.155622   0.279776   0.188519
 
 Mode:    11      Frequency (cm-1):       89.4944     Intensity (km/mol):      130.6603
 Index  Atom      ---- Displacements (x/y/z) ----
     1    Pa      -0.008026  -0.006286   0.013157
     2    Cl      -0.000835  -0.022313  -0.006893
     3     H       0.110654   0.137260  -0.117316
     4     O       0.012909   0.033664  -0.016357
     5     H       0.305712   0.472524  -0.514589
     6     O       0.064941   0.033243  -0.028111
     7     H       0.288233   0.438462  -0.241436
     8     O      -0.038664  -0.013374  -0.015366
     9     H      -0.116839  -0.022145  -0.101837
    10     O       0.041542   0.021394  -0.053696
 
 Mode:    12      Frequency (cm-1):      134.6794     Intensity (km/mol):       19.0626
 Index  Atom      ---- Displacements (x/y/z) ----
     1    Pa       0.016564   0.008621   0.011738
     2    Cl      -0.035365  -0.002342  -0.037461
     3     H      -0.085549  -0.104533   0.085205
     4     O      -0.007234  -0.020231  -0.013272
     5     H       0.141948   0.239586  -0.197497
     6     O      -0.035949  -0.008482   0.041926
     7     H      -0.261553  -0.444743   0.271251
     8     O      -0.097729  -0.039175  -0.121869
     9     H      -0.342435  -0.207087  -0.568892
    10     O       0.013476  -0.018950   0.031391
 
 Mode:    13      Frequency (cm-1):      146.0233     Intensity (km/mol):       24.3566
 Index  Atom      ---- Displacements (x/y/z) ----
     1    Pa      -0.014957   0.007516   0.006755
     2    Cl       0.016552  -0.014585   0.001927
     3     H       0.321512   0.397988  -0.355574
     4     O       0.007901   0.066948  -0.036316
     5     H      -0.035790  -0.087781   0.046422
     6     O       0.020929  -0.016261   0.029486
     7     H      -0.082464  -0.179757   0.115360
     8     O       0.100961  -0.091675  -0.035126
     9     H       0.440191  -0.515719  -0.243229
    10     O       0.009520  -0.011408  -0.032298
 
 Mode:    14      Frequency (cm-1):      165.7015     Intensity (km/mol):       19.2856
 Index  Atom      ---- Displacements (x/y/z) ----
     1    Pa       0.007685  -0.019216  -0.014237
     2    Cl      -0.036492   0.071134   0.065334
     3     H      -0.078075  -0.122805   0.305225
     4     O       0.122197   0.105032  -0.066525
     5     H      -0.077620   0.177751   0.088194
     6     O      -0.090748  -0.135042   0.051196
     7     H       0.068348   0.329048  -0.194767
     8     O      -0.046895   0.090196   0.077649
     9     H       0.198727  -0.554562  -0.499046
    10     O      -0.022800   0.072612   0.019418
 
 Mode:    15      Frequency (cm-1):      167.1532     Intensity (km/mol):       37.2367
 Index  Atom      ---- Displacements (x/y/z) ----
     1    Pa      -0.015163   0.004012  -0.012127
     2    Cl       0.073074  -0.004951   0.039437
     3     H       0.141488   0.129225   0.119703
     4     O      -0.038661  -0.046152   0.131447
     5     H      -0.083471  -0.146860   0.098663
     6     O       0.032160  -0.094916   0.050201
     7     H       0.182579  -0.079583   0.042381
     8     O       0.059487  -0.010778   0.039251
     9     H      -0.700090   0.104009  -0.545142
    10     O       0.035220   0.104290  -0.114038
 
 Mode:    16      Frequency (cm-1):      232.3009     Intensity (km/mol):      173.2110
 Index  Atom      ---- Displacements (x/y/z) ----
     1    Pa       0.005821   0.018945  -0.016530
     2    Cl       0.026108   0.063621  -0.049785
     3     H       0.266999   0.268412  -0.236913
     4     O      -0.081520  -0.098913   0.105492
     5     H       0.213144   0.339487  -0.399693
     6     O      -0.080665  -0.184822   0.120667
     7     H       0.192465   0.443747  -0.210899
     8     O       0.100665   0.011381  -0.006084
     9     H      -0.008535   0.086009  -0.018643
    10     O      -0.121486  -0.212061   0.182113
 
 Mode:    17      Frequency (cm-1):      247.3416     Intensity (km/mol):       39.4167
 Index  Atom      ---- Displacements (x/y/z) ----
     1    Pa       0.007077   0.006235   0.008337
     2    Cl       0.021514   0.019143   0.026568
     3     H      -0.079865  -0.054736  -0.259183
     4     O      -0.021988  -0.022029  -0.003597
     5     H       0.009950  -0.280890   0.071830
     6     O      -0.104767  -0.159470   0.133002
     7     H       0.007005   0.386090  -0.153846
     8     O      -0.122244  -0.091876  -0.226454
     9     H       0.299035   0.240525   0.596590
    10     O       0.084861   0.123128  -0.097542
 
 Mode:    18      Frequency (cm-1):      256.3371     Intensity (km/mol):       46.2710
 Index  Atom      ---- Displacements (x/y/z) ----
     1    Pa      -0.008283   0.003873   0.002901
     2    Cl      -0.030467   0.005774   0.016702
     3     H      -0.251720  -0.213531   0.296003
     4     O       0.096505   0.159113  -0.132571
     5     H       0.134033  -0.185003  -0.198904
     6     O      -0.016611  -0.042504   0.038817
     7     H       0.188596  -0.040204   0.039356
     8     O       0.168028  -0.155126  -0.034584
     9     H      -0.536300   0.506187   0.122972
    10     O      -0.032356  -0.034304   0.033577
 
 Mode:    19      Frequency (cm-1):      267.5716     Intensity (km/mol):        1.4965
 Index  Atom      ---- Displacements (x/y/z) ----
     1    Pa      -0.000140   0.000440  -0.000266
     2    Cl      -0.000977   0.001369   0.001560
     3     H      -0.286326  -0.227574  -0.486549
     4     O       0.028130   0.026630   0.041757
     5     H      -0.225781   0.400931   0.285701
     6     O      -0.050233   0.009769  -0.005113
     7     H       0.531611  -0.184794   0.101813
     8     O       0.006765  -0.006293  -0.003240
     9     H      -0.017335   0.006715  -0.009916
    10     O       0.019356  -0.039156  -0.026115
 
 Mode:    20      Frequency (cm-1):      290.7040     Intensity (km/mol):      126.6653
 Index  Atom      ---- Displacements (x/y/z) ----
     1    Pa       0.052591   0.090576  -0.075993
     2    Cl      -0.331401  -0.575556   0.476953
     3     H       0.114192   0.200960  -0.179140
     4     O      -0.097003  -0.021525   0.073534
     5     H       0.138999   0.199274  -0.135927
     6     O      -0.029114  -0.106865  -0.010104
     7     H       0.009777   0.195043  -0.166702
     8     O       0.056466   0.107434  -0.073225
     9     H       0.116136   0.060117  -0.076445
    10     O       0.010644  -0.070349   0.099899
 
 Mode:    21      Frequency (cm-1):      334.2078     Intensity (km/mol):      259.6255
 Index  Atom      ---- Displacements (x/y/z) ----
     1    Pa      -0.000796   0.003120   0.003068
     2    Cl       0.000066  -0.002772  -0.002893
     3     H       0.228775   0.186891   0.467876
     4     O      -0.026058  -0.010490  -0.051550
     5     H      -0.338596   0.563409   0.441848
     6     O       0.010370  -0.008934   0.017417
     7     H      -0.140624   0.111178  -0.047629
     8     O       0.008931  -0.024239  -0.021338
     9     H      -0.039933   0.103076   0.092220
    10     O       0.036413  -0.056125  -0.042657
 
 Mode:    22      Frequency (cm-1):      338.2824     Intensity (km/mol):      234.4097
 Index  Atom      ---- Displacements (x/y/z) ----
     1    Pa      -0.003574   0.000302  -0.001405
     2    Cl       0.004385   0.000101   0.001198
     3     H      -0.301224  -0.241880  -0.393930
     4     O       0.026003   0.033773   0.038582
     5     H      -0.084367   0.164319   0.087804
     6     O       0.073861  -0.024713   0.011522
     7     H      -0.735110   0.254780  -0.141910
     8     O       0.022209  -0.009123   0.012388
     9     H      -0.113071   0.038903  -0.056924
    10     O      -0.002297  -0.018134  -0.013002
 
 Mode:    23      Frequency (cm-1):      568.7884     Intensity (km/mol):      173.1003
 Index  Atom      ---- Displacements (x/y/z) ----
     1    Pa      -0.020752  -0.034907   0.028839
     2    Cl       0.006619   0.011830  -0.010078
     3     H      -0.216510   0.096445   0.090658
     4     O      -0.159386   0.158252   0.021997
     5     H       0.168229  -0.017194   0.167865
     6     O       0.000241  -0.117239  -0.195668
     7     H      -0.046447  -0.194780  -0.154256
     8     O       0.242542   0.396148  -0.326444
     9     H       0.185272   0.414456  -0.356432
    10     O       0.196171   0.022354   0.121474
 
 Mode:    24      Frequency (cm-1):      591.8065     Intensity (km/mol):      281.1341
 Index  Atom      ---- Displacements (x/y/z) ----
     1    Pa      -0.033431   0.047524   0.033339
     2    Cl       0.004993  -0.006952  -0.004938
     3     H       0.423255  -0.293532  -0.133238
     4     O       0.386984  -0.331751  -0.087493
     5     H       0.037366   0.011430   0.049074
     6     O      -0.005999  -0.273503  -0.370090
     7     H      -0.061115  -0.309179  -0.351935
     8     O       0.009298  -0.017386  -0.008238
     9     H      -0.019345   0.027393   0.020544
    10     O       0.057742  -0.013082   0.021246
 
 Mode:    25      Frequency (cm-1):      594.0318     Intensity (km/mol):      299.0086
 Index  Atom      ---- Displacements (x/y/z) ----
     1    Pa       0.052038   0.005627   0.044724
     2    Cl      -0.007065  -0.000533  -0.006430
     3     H      -0.181432   0.141196   0.079003
     4     O      -0.186986   0.140849   0.019064
     5     H      -0.455848  -0.012744  -0.340413
     6     O      -0.030289  -0.188487  -0.275851
     7     H      -0.018778  -0.237261  -0.250275
     8     O      -0.017674   0.000485  -0.018182
     9     H       0.040509   0.000207   0.037473
    10     O      -0.462471  -0.026120  -0.327101
 
 Mode:    26      Frequency (cm-1):      659.0643     Intensity (km/mol):       63.6783
 Index  Atom      ---- Displacements (x/y/z) ----
     1    Pa       0.010107   0.015130  -0.012743
     2    Cl       0.012763   0.022577  -0.018900
     3     H      -0.262770   0.212636   0.073882
     4     O      -0.260730   0.207913   0.058604
     5     H       0.279681   0.011670   0.199312
     6     O      -0.018045  -0.202573  -0.267518
     7     H      -0.020131  -0.218299  -0.265295
     8     O      -0.160389  -0.266357   0.220524
     9     H      -0.130395  -0.283371   0.240387
    10     O       0.273694   0.010591   0.198124
 
 Mode:    27      Frequency (cm-1):     3880.8215     Intensity (km/mol):      227.2480
 Index  Atom      ---- Displacements (x/y/z) ----
     1    Pa       0.000001   0.000003  -0.000003
     2    Cl       0.000016   0.000023  -0.000022
     3     H       0.031704  -0.033044  -0.003028
     4     O      -0.002247   0.002341   0.000208
     5     H      -0.095213  -0.008700  -0.062500
     6     O      -0.000008  -0.000073  -0.000147
     7     H      -0.000095  -0.001445  -0.002374
     8     O      -0.032065  -0.042218   0.033504
     9     H       0.507601   0.666130  -0.528631
    10     O       0.006294   0.000598   0.004110
 
 Mode:    28      Frequency (cm-1):     3891.1330     Intensity (km/mol):      346.9506
 Index  Atom      ---- Displacements (x/y/z) ----
     1    Pa      -0.000002   0.000004   0.000006
     2    Cl      -0.000005  -0.000017   0.000003
     3     H       0.325546  -0.338572  -0.031309
     4     O      -0.020538   0.021323   0.001946
     5     H      -0.210993  -0.019208  -0.139694
     6     O      -0.000299   0.024866   0.046885
     7     H       0.004961  -0.393721  -0.743071
     8     O       0.001750   0.002193  -0.001925
     9     H      -0.027383  -0.035420   0.029040
    10     O       0.013317   0.001182   0.008766
 
 Mode:    29      Frequency (cm-1):     3894.0437     Intensity (km/mol):      361.5813
 Index  Atom      ---- Displacements (x/y/z) ----
     1    Pa      -0.000006   0.000003  -0.000003
     2    Cl       0.000013   0.000013  -0.000009
     3     H       0.475706  -0.493981  -0.044954
     4     O      -0.030046   0.031228   0.002878
     5     H       0.584143   0.051825   0.385370
     6     O       0.000089  -0.005056  -0.009503
     7     H      -0.000332   0.079231   0.150180
     8     O      -0.001482  -0.002172   0.001749
     9     H       0.024852   0.033457  -0.026615
    10     O      -0.036823  -0.003318  -0.024296
 
 Mode:    30      Frequency (cm-1):     3913.8525     Intensity (km/mol):       11.4656
 Index  Atom      ---- Displacements (x/y/z) ----
     1    Pa       0.000005   0.000005  -0.000005
     2    Cl       0.000069   0.000120  -0.000102
     3     H       0.378830  -0.393776  -0.035993
     4     O      -0.024134   0.025027   0.002325
     5     H      -0.543239  -0.048150  -0.358783
     6     O       0.000173  -0.015239  -0.028644
     7     H      -0.003191   0.238602   0.450500
     8     O       0.003031   0.003864  -0.003068
     9     H      -0.051679  -0.067481   0.053319
    10     O       0.034523   0.003072   0.022806

PES point character: Geometry corresponds to a local minimum on the PES.




 ============================
 Statistical Thermal Analysis  ***  ideal gas assumed  ***
 ============================
  
 Pressure:                  1.000000 atm.
 Temperature:             298.150000 K



 Moments of Inertia [amu*bohr^2] and principal axis
 ==================================================

         844.6015       1510.0716       1528.3070
 ------------------------------------------------
          -0.4064         -0.6861         -0.6034
          -0.7015         -0.1889          0.6872
           0.5855         -0.7026          0.4045


 The rotational contribution to the molecular entropy includes
 a term, dependent on the symmetry number sigma. The results 
 reported below were computed using sigma = 1, determined from
 the point group symmetry of the input geometry (NOSYM). 
 If this is not the correct symmetry, try symmetrizing the molecule before
 running the calculation (note: linear molecules should be aligned along one
 of the Cartesian axes).
 Contributions from frequencies below 20 1/cm are not included in vibrational sums.
 Their contributions, if any, are reported separately.


     Temp                                                        Transl      Rotat     Vibrat     Total
     ----                                                        ------      -----     ------     -----

     298.15   Entropy (cal/mol-K):                               43.313     29.057     45.488    117.858
              Nuclear Internal Energy (kcal/mol):                 0.889      0.889     36.360     38.138
              Constant Volume Heat Capacity (cal/mol-K):          2.981      2.981     33.494     39.456
          (c) Constant Volume Heat Capacity (cal/mol-K):          2.981      2.981     28.659     34.620

       Summary of energy terms
                                                   hartree              eV         kcal/mol           kJ/mol
                                      --------------------     -----------       ----------      -----------
      Energy from Engine:               -2.655527966541575        -72.2606         -1666.37         -6972.09
      Nuclear Internal Energy:           0.060776003910759          1.6538            38.14           159.57
  (c) Nuclear Internal Energy:           0.058333453730339          1.5873            36.60           153.15
      Internal Energy U:                -2.594751962630816        -70.6068         -1628.23         -6812.52
      pV/n = RT:                         0.000944186013486          0.0257             0.59             2.48
      Enthalpy H:                       -2.593807776617330        -70.5811         -1627.64         -6810.04
      -T*S:                             -0.055997975132655         -1.5238           -35.14          -147.02
  (c) -T*S:                             -0.053662433382609         -1.4602           -33.67          -140.89
      Gibbs free energy:                -2.649805751749985        -72.1049         -1662.78         -6957.06
 
 
 
  (c) The properties marked with this symbol have been corrected using 'low vibrational frequency free rotor
      interpolation corrections'. For those terms all positive frequencies are used (also ones below 20 1/cm),
      but the contribution to the partition function of small vibrational frequencies is modified as described
      in the following paper:
      S. Grimme, 'Supramolecular Binding Thermodynamics by Dispersion-Corrected Density Functional Theory'
      (Chem. Eur. J. 2012, 18, 9955-9964)
      Configuration: Dampener Frequency          :   100.000 1/cm
                     Dampener Alpha              :     4.000
                     Averaging Moment of Inertia : 1.000E-44 kg m2

--------------
Atomic charges
--------------
  Index   Atom    Charge
      1     Pa    2.6552
      2     Cl   -0.3873
      3      H    0.0221
      4      O   -0.5859
      5      H    0.0145
      6      O   -0.5852
      7      H    0.0224
      8      O   -0.5840
      9      H    0.0080
     10      O   -0.5798


Dipole moment vector    (Debye):    -1.48102247   -2.32287582    1.89967543
              magnitude (Debye):     3.34633327


Final PES point is a local minimum. Geometry optimization successful!


AMS application finished. Exiting.
NORMAL TERMINATION
     Total cpu time:   48537.20
  Total system time:     973.17
 Total elapsed time:   49510.21
