

 Parallel Execution: Process Information
 ==============================================================================
 Rank   Node Name                              NodeID   MyNodeRank  NodeMaster
    0   u-0-8.local                               0          0          0
    1   u-0-8.local                               0          1         -1
    2   u-0-8.local                               1          0          1
    3   u-0-8.local                               1          1         -1
    4   u-0-8.local                               2          0          2
    5   u-0-8.local                               2          1         -1
    6   u-0-8.local                               3          0          3
    7   u-0-8.local                               3          1         -1
 ==============================================================================


May use up to 31228MB of RAM as shared memory on node 0
May use up to 31250MB of RAM as shared memory on node 1
May use up to 31250MB of RAM as shared memory on node 2
May use up to 31250MB of RAM as shared memory on node 3

 *******************************************************************************
 *                                                                             *
 *  --------------------------------                                           *
 *   Amsterdam Modeling Suite (AMS)              2022.103                      *
 *  --------------------------------                                           *
 *                                               r104886 2022-06-17            *
 *                                                                             *
 *                                                                             *
 *                              =================                              *
 *                              |               |                              *
 *                              |     A M S     |                              *
 *                              |               |                              *
 *                              =================                              *
 *                                                                             *
 *                                                                             *
 *   Online information and documentation:  https://www.scm.com/support/       *
 *   E-mail:  support@scm.com   info@scm.com                                   *
 *                                                                             *
 *   Scientific publications using AMS results must be properly referenced     *
 *   See the User Manuals (or the web site) for recommended citations          *
 *   The terms and conditions of the End User License Agreement apply to       *
 *   the use of AMS, https://www.scm.com/license-terms/                        *
 *                                                                             *
 **********************  x86_64_linux_intel / intelmpi  ************************
 
 Licensed to: Dr. Val?rie Vallet / Laboratoire PhLAM UMR 8523 / Villeneuve d'Ascq Cedex / FRANCE 2023-02-21 11:49:39
 SCM User ID: u10325
  
 AMS 2022.103  RunTime: Feb24-2023 00:10:10  ShM Nodes: 4  Procs: 8

 AMS jobname: ams
 AMS jobid  : 1896000139

 Start   directory: /home/shaaban/ams/PhD/thiocyanate/bnN/pao_oh2_N_h2o/gp/
 Results directory: /home/shaaban/ams/PhD/thiocyanate/bnN/pao_oh2_N_h2o/gp/pao_oh2_N_h2o.SR.b3lyp.tz2p.opt-freq.results/
 Scratch directory: /state/partition2/shaaban/929454.phlam-s-sakura/amstmp_ams_kid0.1896000139/


 Communication costs MPI_COMM_WORLD:      2.749 usec per message,   0.0092 usec per 8-byte item
 Communication costs for intra-node:      0.510 usec per message,   0.0025 usec per 8-byte item

 RNG seed: 316714488 49753050 -2088827772 -1735071165 -1427504874 -1733107624 1940197153 1827511050



                      ************************************************************************
                      *  ADF 2022.103  RunTime: Feb24-2023 00:10:11  ShM Nodes: 4  Procs: 8  *
                      ************************************************************************
  
       ***************************
       *  GEOMETRY OPTIMIZATION  *
       ***************************

Optimization Method                    Quasi Newton
Optimization Coordinates               Delocalized Coordinates
Optimize lattice                       F
 
 ------------------------------------------------------
 Convergence criteria (Hartree,Angstrom)
 ------------------------------------------------------
 Maximum gradient               0.000100000000
 Maximum rms gradient           0.000066666667
 Maximum step allowed           0.001000000000
 Maximum rms step allowed       0.000666666667
 Maximum energy change allowe   0.000012000000
 Maximum stress energy allowe   0.000500000000
 
Initial model Hessian                  Automatic Hessian
 
------------------------------------
Quasi-Newton Optimizer Parameters
------------------------------------
Hessian Update Method                  BFGS
Maximum number of steps                  250
First GDIIS cycle                          0
Maximum GDIIS vectors                      0
Trust radius (bohr)                        0.200000
Trust radius varies                        T
Constraints converged at all steps         T
Use projector                              T
 
 Rigid motions settings for: old optimizer
 Atomic rotations (x,y,z):     T T T
 Atomic translations (x,y,z):  T T T
 Tolerance:                   1.000000000000000E-006
 
--------
Geometry
--------
Formula: CH4NO4PaS
Atoms
  Index Symbol   x (angstrom)   y (angstrom)   z (angstrom)
      1     Pa     0.41625635     0.11062101     0.00453388
      2      O     1.10953981     1.38674047    -1.55214785
      3      H     1.04259017     2.25028412    -1.97581368
      4      O    -0.89543235     1.12286003     0.84749514
      5      H    -0.91296272    -2.38177016     0.68613582
      6      O    -0.14911669    -1.59415248    -1.23782329
      7      H    -0.05769586    -1.90715355    -2.14576573
      8      O    -0.71453397    -1.79860163     1.44273294
      9      H    -1.56727131    -1.49636857     1.79395880
     10      N     2.35079293    -1.18800588    -0.00149796
     11      C     3.54993260    -2.03827689     0.00030535
     12      S     5.04798112    -3.05389568     0.02196444
 
Total System Charge             0.00000
Bonding info available!
 
 
----------------
ADF Engine Input
----------------
 
 Basis
 Type TZ2P
 Core None
 End
 XC
 Hybrid B3LYP
 End
 NumericalQuality Good
 

 Title: *** (NO TITLE) ***

Bad geometry: could not add a dihedral for atom   12
 Using automatic Hessian for delocalized coordinates.
 *** GO1_GOStep1 ***



 ======================
 RI Hartree-Fock Scheme
 ======================
  
 Fit Set Quality     : GOOD
 Threshold Quality   : GOOD
 Integration Quality : GOOD
 Response Quality    : DEFAULT
 Is Range Separated  :  F
 
 RIHartreeFock Dependency: number of modified vectors:           6
  
 Hartree-Fock exchange energy:   -537.062877934217     

 Energy gradients wrt nuclear displacements
 ==========================================

     Atom      Cartesian (a.u./angstrom)
                 X         Y         Z
 ----------------------------------------
     1 Pa   -0.008807  0.037078  0.031385
     2 O     0.008416 -0.001612 -0.011610
     3 H    -0.000321  0.007397 -0.001350
     4 O    -0.016148  0.010232  0.007782
     5 H    -0.004704 -0.002753 -0.005584
     6 O     0.018765 -0.027314 -0.003783
     7 H    -0.002030 -0.002992 -0.007894
     8 O     0.010757 -0.003775  0.005244
     9 H    -0.007829  0.004106  0.001873
    10 N    -0.345064  0.227742 -0.017087
    11 C     0.168646 -0.129037 -0.002756
    12 S     0.178320 -0.119073  0.003779
 ----------------------------------------
 Mulliken charges used for AMS results%charges...
 
----------------------------------------------------------------------
Geometry Convergence after Step   1       (Hartree/Angstrom,Angstrom)
----------------------------------------------------------------------
current energy                               -3.28064284 Hartree
energy change                      -3.28064284     0.00001200    F
constrained gradient max            0.34506373     0.00010000    F
constrained gradient rms            0.08610935     0.00006667    F
gradient max                        0.34506373
gradient rms                        0.08610935
cart. step max                      0.08890811     0.00100000    F
cart. step rms                      0.02650628     0.00066667    F
 
 
--------
Geometry
--------
Formula: CH4NO4PaS
Atoms
  Index Symbol   x (angstrom)   y (angstrom)   z (angstrom)
      1     Pa     0.43809074     0.09113662     0.00095060
      2      O     1.13161781     1.36556806    -1.55256113
      3      H     1.06974874     2.22919243    -1.97332008
      4      O    -0.85598687     1.11208639     0.85151892
      5      H    -0.90428541    -2.39247036     0.68269630
      6      O    -0.16259404    -1.59253578    -1.24395457
      7      H    -0.08360711    -1.89913280    -2.15340046
      8      O    -0.69864930    -1.81369719     1.43881739
      9      H    -1.54582213    -1.50843367     1.79569793
     10      N     2.37286329    -1.20204401    -0.00335269
     11      C     3.49963136    -1.99461335     0.00597923
     12      S     4.95907301    -2.98277555     0.03500642
 
Total System Charge             0.00000
Bonding info available!
 
 *** GO1_GOStep2 ***



 ======================
 RI Hartree-Fock Scheme
 ======================
  
 Fit Set Quality     : GOOD
 Threshold Quality   : GOOD
 Integration Quality : GOOD
 Response Quality    : DEFAULT
 Is Range Separated  :  F
 
 RIHartreeFock Dependency: number of modified vectors:           6
  
 Hartree-Fock exchange energy:   -537.165068517124     

 Energy gradients wrt nuclear displacements
 ==========================================

     Atom      Cartesian (a.u./angstrom)
                 X         Y         Z
 ----------------------------------------
     1 Pa   -0.004796  0.032476  0.029948
     2 O     0.006800 -0.000044 -0.011092
     3 H    -0.000178  0.004810  0.000048
     4 O    -0.011909  0.007079  0.004616
     5 H    -0.003916 -0.001269 -0.003796
     6 O     0.015895 -0.025194 -0.005472
     7 H    -0.001971 -0.001556 -0.004621
     8 O     0.007163 -0.003899  0.004371
     9 H    -0.004975  0.003159  0.000611
    10 N    -0.313316  0.205217 -0.017883
    11 C     0.153650 -0.115982 -0.001172
    12 S     0.157553 -0.104798  0.004442
 ----------------------------------------
 Mulliken charges used for AMS results%charges...

 dE(predicted):    -0.41051E-01, dE(actual):    -0.48865E-01, Trust radius:    0.400000, all in a.u.
 
----------------------------------------------------------------------
Geometry Convergence after Step   2       (Hartree/Angstrom,Angstrom)
----------------------------------------------------------------------
current energy                               -3.32950818 Hartree
energy change                      -0.04886534     0.00001200    F
constrained gradient max            0.31331447     0.00010000    F
constrained gradient rms            0.07763246     0.00006667    F
gradient max                        0.31331445
gradient rms                        0.07763246
cart. step max                      0.18839245     0.00100000    F
cart. step rms                      0.05112195     0.00066667    F
 
 
--------
Geometry
--------
Formula: CH4NO4PaS
Atoms
  Index Symbol   x (angstrom)   y (angstrom)   z (angstrom)
      1     Pa     0.47738446     0.05771877    -0.00312084
      2      O     1.17524135     1.32691201    -1.55085606
      3      H     1.12290367     2.19029972    -1.97043046
      4      O    -0.79336461     1.09100466     0.85584831
      5      H    -0.88491631    -2.41258717     0.68072069
      6      O    -0.16740167    -1.59381268    -1.25032956
      7      H    -0.10327670    -1.89230799    -2.16226997
      8      O    -0.67059446    -1.83784262     1.43541742
      9      H    -1.51143128    -1.52871914     1.79904260
     10      N     2.41483057    -1.22857575     0.00298326
     11      C     3.39002451    -1.91044237     0.01179518
     12      S     4.77068056    -2.84936665     0.03527727
 
Total System Charge             0.00000
Bonding info available!
 
 *** GO1_GOStep3 ***



 ======================
 RI Hartree-Fock Scheme
 ======================
  
 Fit Set Quality     : GOOD
 Threshold Quality   : GOOD
 Integration Quality : GOOD
 Response Quality    : DEFAULT
 Is Range Separated  :  F
 
 RIHartreeFock Dependency: number of modified vectors:           6
  
 Hartree-Fock exchange energy:   -537.407787208186     

 Energy gradients wrt nuclear displacements
 ==========================================

     Atom      Cartesian (a.u./angstrom)
                 X         Y         Z
 ----------------------------------------
     1 Pa    0.004985  0.022494  0.026152
     2 O     0.004364  0.000789 -0.009471
     3 H    -0.000198  0.002506  0.001400
     4 O    -0.006841  0.002933  0.000450
     5 H    -0.002732  0.000416 -0.002186
     6 O     0.011526 -0.020466 -0.005118
     7 H    -0.001432 -0.000130 -0.001805
     8 O     0.003219 -0.003889  0.003725
     9 H    -0.002251  0.002200 -0.000726
    10 N    -0.020389  0.001439 -0.013925
    11 C    -0.072515  0.045605 -0.001215
    12 S     0.082264 -0.053898  0.002720
 ----------------------------------------
 Mulliken charges used for AMS results%charges...

 dE(predicted):    -0.79994E-01, dE(actual):    -0.60730E-01, Trust radius:    0.800000, all in a.u.
 
----------------------------------------------------------------------
Geometry Convergence after Step   3       (Hartree/Angstrom,Angstrom)
----------------------------------------------------------------------
current energy                               -3.39023788 Hartree
energy change                      -0.06072970     0.00001200    F
constrained gradient max            0.08225776     0.00010000    F
constrained gradient rms            0.02337155     0.00006667    F
gradient max                        0.08225798
gradient rms                        0.02337155
cart. step max                      0.16486795     0.00100000    F
cart. step rms                      0.05211583     0.00066667    F
 
 
--------
Geometry
--------
Formula: CH4NO4PaS
Atoms
  Index Symbol   x (angstrom)   y (angstrom)   z (angstrom)
      1     Pa     0.49174557     0.01455077    -0.02468139
      2      O     1.19494213     1.28091999    -1.56471108
      3      H     1.15357599     2.14250123    -1.98740543
      4      O    -0.71767524     1.09503869     0.85717417
      5      H    -0.86783601    -2.45550999     0.68103340
      6      O    -0.29412785    -1.54053299    -1.29663728
      7      H    -0.26814465    -1.81618216    -2.21686580
      8      O    -0.65374802    -1.87058903     1.42643188
      9      H    -1.49059421    -1.56707830     1.80073736
     10      N     2.46716632    -1.21812681     0.04115489
     11      C     3.44491313    -1.86883750     0.06672973
     12      S     4.75986295    -2.78387311     0.10111741
 
Total System Charge             0.00000
Bonding info available!
 
 *** GO1_GOStep4 ***



 ======================
 RI Hartree-Fock Scheme
 ======================
  
 Fit Set Quality     : GOOD
 Threshold Quality   : GOOD
 Integration Quality : GOOD
 Response Quality    : DEFAULT
 Is Range Separated  :  F
 
 RIHartreeFock Dependency: number of modified vectors:           7
  
 Hartree-Fock exchange energy:   -537.470510653983     

 Energy gradients wrt nuclear displacements
 ==========================================

     Atom      Cartesian (a.u./angstrom)
                 X         Y         Z
 ----------------------------------------
     1 Pa    0.001257  0.014331  0.021112
     2 O     0.002578 -0.000153 -0.006148
     3 H    -0.000410  0.001425  0.001624
     4 O    -0.002203  0.000060 -0.004537
     5 H     0.000444  0.000220 -0.001917
     6 O     0.004041 -0.010772 -0.003517
     7 H    -0.000564  0.000411 -0.000393
     8 O    -0.001176 -0.003198  0.003066
     9 H    -0.000285  0.002171 -0.000397
    10 N     0.045111 -0.040256 -0.010041
    11 C    -0.063947  0.047882 -0.000006
    12 S     0.015153 -0.012121  0.001154
 ----------------------------------------
 Mulliken charges used for AMS results%charges...

 dE(predicted):    -0.59202E-02, dE(actual):    -0.77550E-02, Trust radius:    0.800000, all in a.u.
 
----------------------------------------------------------------------
Geometry Convergence after Step   4       (Hartree/Angstrom,Angstrom)
----------------------------------------------------------------------
current energy                               -3.39799287 Hartree
energy change                      -0.00775499     0.00001200    F
constrained gradient max            0.06394072     0.00010000    F
constrained gradient rms            0.01780946     0.00006667    F
gradient max                        0.06394106
gradient rms                        0.01780946
cart. step max                      0.16335617     0.00100000    F
cart. step rms                      0.05220205     0.00066667    F
 
 
--------
Geometry
--------
Formula: CH4NO4PaS
Atoms
  Index Symbol   x (angstrom)   y (angstrom)   z (angstrom)
      1     Pa     0.49831006    -0.02081299    -0.05644402
      2      O     1.19659757     1.24923509    -1.58906026
      3      H     1.16131729     2.10713554    -2.01817897
      4      O    -0.64487726     1.09656628     0.86548086
      5      H    -0.85681572    -2.49463337     0.67635735
      6      O    -0.41947233    -1.47640433    -1.34249682
      7      H    -0.43150083    -1.73028526    -2.26882368
      8      O    -0.63136981    -1.90115760     1.40984471
      9      H    -1.46100591    -1.60825853     1.80581099
     10      N     2.51190467    -1.18617489     0.08840410
     11      C     3.49713545    -1.87850745     0.13207971
     12      S     4.79985692    -2.74442169     0.18110389
 
Total System Charge             0.00000
Bonding info available!
 
 *** GO1_GOStep5 ***



 ======================
 RI Hartree-Fock Scheme
 ======================
  
 Fit Set Quality     : GOOD
 Threshold Quality   : GOOD
 Integration Quality : GOOD
 Response Quality    : DEFAULT
 Is Range Separated  :  F
 
 RIHartreeFock Dependency: number of modified vectors:           7
  
 Hartree-Fock exchange energy:   -537.466089160675     

 Energy gradients wrt nuclear displacements
 ==========================================

     Atom      Cartesian (a.u./angstrom)
                 X         Y         Z
 ----------------------------------------
     1 Pa   -0.003123  0.006757  0.013830
     2 O     0.001159 -0.000692 -0.002697
     3 H    -0.000715  0.000318  0.001665
     4 O    -0.000314 -0.001084 -0.007636
     5 H     0.002334  0.000668 -0.001511
     6 O     0.000777 -0.001856  0.000042
     7 H     0.000250  0.000760  0.000390
     8 O    -0.003502 -0.002257  0.002665
     9 H     0.000928  0.001531 -0.000622
    10 N    -0.023827  0.018031 -0.010241
    11 C     0.050042 -0.040976  0.004849
    12 S    -0.024008  0.018801 -0.000734
 ----------------------------------------
 Mulliken charges used for AMS results%charges...

 dE(predicted):    -0.27914E-02, dE(actual):    -0.25965E-02, Trust radius:    0.800000, all in a.u.
 
----------------------------------------------------------------------
Geometry Convergence after Step   5       (Hartree/Angstrom,Angstrom)
----------------------------------------------------------------------
current energy                               -3.40058939 Hartree
energy change                      -0.00259652     0.00001200    F
constrained gradient max            0.05008048     0.00010000    F
constrained gradient rms            0.01343114     0.00006667    F
gradient max                        0.05007972
gradient rms                        0.01343114
cart. step max                      0.04451242     0.00100000    F
cart. step rms                      0.01687539     0.00066667    F
 
 
--------
Geometry
--------
Formula: CH4NO4PaS
Atoms
  Index Symbol   x (angstrom)   y (angstrom)   z (angstrom)
      1     Pa     0.50039123    -0.03270596    -0.07145783
      2      O     1.19599057     1.24185166    -1.60032135
      3      H     1.16554587     2.09850017    -2.03253680
      4      O    -0.61248651     1.08756157     0.88669924
      5      H    -0.87455527    -2.50208546     0.67026058
      6      O    -0.45095260    -1.46356828    -1.35874979
      7      H    -0.47601325    -1.71318941    -2.28622544
      8      O    -0.62623070    -1.91140154     1.39818704
      9      H    -1.44589400    -1.61842558     1.81489729
     10      N     2.52032412    -1.17978036     0.10612231
     11      C     3.51512428    -1.84802120     0.15298255
     12      S     4.80883634    -2.74645481     0.20422005
 
Total System Charge             0.00000
Bonding info available!
 
 *** GO1_GOStep6 ***



 ======================
 RI Hartree-Fock Scheme
 ======================
  
 Fit Set Quality     : GOOD
 Threshold Quality   : GOOD
 Integration Quality : GOOD
 Response Quality    : DEFAULT
 Is Range Separated  :  F
 
 RIHartreeFock Dependency: number of modified vectors:           7
  
 Hartree-Fock exchange energy:   -537.464592483519     

 Energy gradients wrt nuclear displacements
 ==========================================

     Atom      Cartesian (a.u./angstrom)
                 X         Y         Z
 ----------------------------------------
     1 Pa    0.001019  0.002315  0.010815
     2 O     0.001299 -0.000761 -0.002107
     3 H    -0.001041  0.000455  0.001420
     4 O    -0.002095  0.000230 -0.006419
     5 H     0.001585  0.001001 -0.001269
     6 O    -0.000106 -0.000481  0.001259
     7 H     0.000382  0.000691  0.000009
     8 O    -0.002201 -0.001878  0.002886
     9 H     0.000148  0.000925 -0.001057
    10 N    -0.015048  0.006168 -0.009182
    11 C     0.027789 -0.015325  0.004080
    12 S    -0.011732  0.006661 -0.000437
 ----------------------------------------
 Mulliken charges used for AMS results%charges...

 dE(predicted):    -0.68167E-03, dE(actual):    -0.11811E-02, Trust radius:    0.800000, all in a.u.
 
----------------------------------------------------------------------
Geometry Convergence after Step   6       (Hartree/Angstrom,Angstrom)
----------------------------------------------------------------------
current energy                               -3.40177047 Hartree
energy change                      -0.00118108     0.00001200    F
constrained gradient max            0.02781867     0.00010000    F
constrained gradient rms            0.00699134     0.00006667    F
gradient max                        0.02781780
gradient rms                        0.00699135
cart. step max                      0.13424013     0.00100000    F
cart. step rms                      0.05528370     0.00066667    F
 
 
--------
Geometry
--------
Formula: CH4NO4PaS
Atoms
  Index Symbol   x (angstrom)   y (angstrom)   z (angstrom)
      1     Pa     0.50662574    -0.06449505    -0.12992095
      2      O     1.18432098     1.23023944    -1.64530417
      3      H     1.16949842     2.08089029    -2.09032401
      4      O    -0.49137176     1.04786826     0.96257151
      5      H    -0.91986521    -2.52885578     0.65351548
      6      O    -0.54264284    -1.41855070    -1.41793519
      7      H    -0.61025338    -1.65549918    -2.34711848
      8      O    -0.59271418    -1.94478710     1.35388996
      9      H    -1.36963862    -1.65745229     1.85014082
     10      N     2.55146535    -1.13175156     0.17392092
     11      C     3.51178939    -1.81856591     0.22829143
     12      S     4.82286621    -2.72675964     0.29235055
 
Total System Charge             0.00000
Bonding info available!
 
 *** GO1_GOStep7 ***



 ======================
 RI Hartree-Fock Scheme
 ======================
  
 Fit Set Quality     : GOOD
 Threshold Quality   : GOOD
 Integration Quality : GOOD
 Response Quality    : DEFAULT
 Is Range Separated  :  F
 
 RIHartreeFock Dependency: number of modified vectors:           7
  
 Hartree-Fock exchange energy:   -537.470614866679     

 Energy gradients wrt nuclear displacements
 ==========================================

     Atom      Cartesian (a.u./angstrom)
                 X         Y         Z
 ----------------------------------------
     1 Pa    0.009614 -0.008152 -0.000868
     2 O     0.001895 -0.001381  0.000405
     3 H    -0.002091  0.000658  0.000748
     4 O    -0.005665  0.003310 -0.001836
     5 H    -0.000437  0.001800 -0.000455
     6 O    -0.001582  0.003341  0.004698
     7 H     0.000875  0.000677 -0.000728
     8 O     0.001930 -0.000482  0.003594
     9 H    -0.002198 -0.000875 -0.002170
    10 N     0.029972 -0.018985 -0.003816
    11 C    -0.043873  0.026467  0.000070
    12 S     0.011562 -0.006379  0.000359
 ----------------------------------------
 Mulliken charges used for AMS results%charges...

 dE(predicted):    -0.14699E-02, dE(actual):    -0.19862E-02, Trust radius:    0.800000, all in a.u.
 
----------------------------------------------------------------------
Geometry Convergence after Step   7       (Hartree/Angstrom,Angstrom)
----------------------------------------------------------------------
current energy                               -3.40375669 Hartree
energy change                      -0.00198622     0.00001200    F
constrained gradient max            0.04383073     0.00010000    F
constrained gradient rms            0.01100283     0.00006667    F
gradient max                        0.04383173
gradient rms                        0.01100283
cart. step max                      0.11390800     0.00100000    F
cart. step rms                      0.04680373     0.00066667    F
 
 
--------
Geometry
--------
Formula: CH4NO4PaS
Atoms
  Index Symbol   x (angstrom)   y (angstrom)   z (angstrom)
      1     Pa     0.50552515    -0.09310308    -0.17682239
      2      O     1.17412998     1.21735292    -1.68005426
      3      H     1.18218354     2.06281803    -2.13463721
      4      O    -0.37746376     1.00452956     1.02514842
      5      H    -0.97574066    -2.54794423     0.64154700
      6      O    -0.61764698    -1.38396190    -1.46572260
      7      H    -0.71980745    -1.61098399    -2.39419119
      8      O    -0.58062690    -1.97302956     1.31318960
      9      H    -1.30736569    -1.68598094     1.88066368
     10      N     2.56226704    -1.10172805     0.22752606
     11      C     3.54345600    -1.76737162     0.28826369
     12      S     4.83116981    -2.70831635     0.35916705
 
Total System Charge             0.00000
Bonding info available!
 
 *** GO1_GOStep8 ***



 ======================
 RI Hartree-Fock Scheme
 ======================
  
 Fit Set Quality     : GOOD
 Threshold Quality   : GOOD
 Integration Quality : GOOD
 Response Quality    : DEFAULT
 Is Range Separated  :  F
 
 RIHartreeFock Dependency: number of modified vectors:           6
  
 Hartree-Fock exchange energy:   -537.465520353187     

 Energy gradients wrt nuclear displacements
 ==========================================

     Atom      Cartesian (a.u./angstrom)
                 X         Y         Z
 ----------------------------------------
     1 Pa    0.007681 -0.009486 -0.008771
     2 O     0.002704 -0.002072  0.002079
     3 H    -0.002909  0.000384  0.000379
     4 O    -0.004870  0.003166  0.000920
     5 H    -0.001308  0.001688 -0.000307
     6 O    -0.001628  0.004982  0.006060
     7 H     0.001137  0.000740 -0.000692
     8 O     0.003828  0.000372  0.003890
     9 H    -0.003385 -0.001680 -0.002416
    10 N     0.011881 -0.010777 -0.001779
    11 C    -0.022522  0.023446  0.000567
    12 S     0.009390 -0.010762  0.000068
 ----------------------------------------
 Mulliken charges used for AMS results%charges...
 Rebuilding optimization coordinates
Bad geometry: could not add a dihedral for atom   12

 dE(predicted):    -0.76107E-03, dE(actual):    -0.11845E-02, Trust radius:    1.000000, all in a.u.
 
----------------------------------------------------------------------
Geometry Convergence after Step   8       (Hartree/Angstrom,Angstrom)
----------------------------------------------------------------------
current energy                               -3.40494121 Hartree
energy change                      -0.00118452     0.00001200    F
constrained gradient max            0.02353129     0.00010000    F
constrained gradient rms            0.00731807     0.00006667    F
gradient max                        0.02352877
gradient rms                        0.00731807
cart. step max                      0.07887831     0.00100000    F
cart. step rms                      0.02948062     0.00066667    F
 
 
--------
Geometry
--------
Formula: CH4NO4PaS
Atoms
  Index Symbol   x (angstrom)   y (angstrom)   z (angstrom)
      1     Pa     0.49950066    -0.10741672    -0.20423392
      2      O     1.16327210     1.21712186    -1.69833957
      3      H     1.19846809     2.05893052    -2.15809615
      4      O    -0.29858546     0.96785473     1.07228924
      5      H    -1.03781670    -2.54882763     0.63898945
      6      O    -0.64660607    -1.37490582    -1.50167316
      7      H    -0.76661252    -1.60002444    -2.42830389
      8      O    -0.58422965    -1.98731925     1.28417906
      9      H    -1.25478321    -1.69411562     1.91385879
     10      N     2.55633100    -1.09278795     0.25582317
     11      C     3.54476711    -1.75604245     0.31613714
     12      S     4.84637474    -2.67018643     0.39344769
 
Total System Charge             0.00000
Bonding info available!
 
 *** GO1_GOStep9 ***



 ======================
 RI Hartree-Fock Scheme
 ======================
  
 Fit Set Quality     : GOOD
 Threshold Quality   : GOOD
 Integration Quality : GOOD
 Response Quality    : DEFAULT
 Is Range Separated  :  F
 
 RIHartreeFock Dependency: number of modified vectors:           7
  
 Hartree-Fock exchange energy:   -537.461090192582     

 Energy gradients wrt nuclear displacements
 ==========================================

     Atom      Cartesian (a.u./angstrom)
                 X         Y         Z
 ----------------------------------------
     1 Pa    0.003813 -0.005494 -0.009504
     2 O     0.003547 -0.002065  0.002116
     3 H    -0.003212  0.000357  0.000075
     4 O    -0.002341  0.001082  0.001260
     5 H    -0.001310  0.001106 -0.000944
     6 O    -0.002286  0.003743  0.004382
     7 H     0.001101  0.000654 -0.000491
     8 O     0.003736  0.000296  0.004206
     9 H    -0.003145 -0.001206 -0.001792
    10 N     0.000988 -0.000623  0.000167
    11 C    -0.006823  0.008914  0.000443
    12 S     0.005931 -0.006764  0.000080
 ----------------------------------------
 Mulliken charges used for AMS results%charges...

 dE(predicted):    -0.45452E-03, dE(actual):    -0.71757E-03, Trust radius:    1.000000, all in a.u.
 
----------------------------------------------------------------------
Geometry Convergence after Step   9       (Hartree/Angstrom,Angstrom)
----------------------------------------------------------------------
current energy                               -3.40565879 Hartree
energy change                      -0.00071757     0.00001200    F
constrained gradient max            0.00948641     0.00010000    F
constrained gradient rms            0.00362803     0.00006667    F
gradient max                        0.00948657
gradient rms                        0.00362803
cart. step max                      0.02854668     0.00100000    F
cart. step rms                      0.01051696     0.00066667    F
 
 
--------
Geometry
--------
Formula: CH4NO4PaS
Atoms
  Index Symbol   x (angstrom)   y (angstrom)   z (angstrom)
      1     Pa     0.49475972    -0.10521449    -0.20104825
      2      O     1.16021601     1.22257107    -1.69362997
      3      H     1.20869409     2.06415735    -2.15240027
      4      O    -0.29709689     0.96520495     1.08174797
      5      H    -1.06636339    -2.53961491     0.64207498
      6      O    -0.63080723    -1.38774960    -1.50599203
      7      H    -0.74735325    -1.61729299    -2.43187305
      8      O    -0.59714300    -1.98442892     1.28115049
      9      H    -1.24851217    -1.68441619     1.92714110
     10      N     2.54583660    -1.10812258     0.24773579
     11      C     3.54173501    -1.76134150     0.30563788
     12      S     4.85611459    -2.65147139     0.38353320
 
Total System Charge             0.00000
Bonding info available!
 
 *** GO1_GOStep10 ***



 ======================
 RI Hartree-Fock Scheme
 ======================
  
 Fit Set Quality     : GOOD
 Threshold Quality   : GOOD
 Integration Quality : GOOD
 Response Quality    : DEFAULT
 Is Range Separated  :  F
 
 RIHartreeFock Dependency: number of modified vectors:           7
  
 Hartree-Fock exchange energy:   -537.461829114318     

 Energy gradients wrt nuclear displacements
 ==========================================

     Atom      Cartesian (a.u./angstrom)
                 X         Y         Z
 ----------------------------------------
     1 Pa    0.002853 -0.002032 -0.005593
     2 O     0.003734 -0.001486  0.001275
     3 H    -0.003032  0.000366  0.000037
     4 O    -0.001662  0.000073  0.000110
     5 H    -0.000905  0.000985 -0.001162
     6 O    -0.002675  0.002053  0.002661
     7 H     0.000888  0.000540 -0.000370
     8 O     0.002399 -0.000540  0.003859
     9 H    -0.002257 -0.000474 -0.001338
    10 N     0.000751 -0.000188  0.000160
    11 C    -0.002748  0.004493  0.000249
    12 S     0.002655 -0.003788  0.000111
 ----------------------------------------
 Mulliken charges used for AMS results%charges...

 dE(predicted):    -0.18096E-03, dE(actual):    -0.28822E-03, Trust radius:    1.000000, all in a.u.
 
----------------------------------------------------------------------
Geometry Convergence after Step  10       (Hartree/Angstrom,Angstrom)
----------------------------------------------------------------------
current energy                               -3.40594701 Hartree
energy change                      -0.00028822     0.00001200    F
constrained gradient max            0.00557665     0.00010000    F
constrained gradient rms            0.00219758     0.00006667    F
gradient max                        0.00557672
gradient rms                        0.00219758
cart. step max                      0.15644534     0.00100000    F
cart. step rms                      0.05042014     0.00066667    F
 
 
--------
Geometry
--------
Formula: CH4NO4PaS
Atoms
  Index Symbol   x (angstrom)   y (angstrom)   z (angstrom)
      1     Pa     0.47139908    -0.11548653    -0.21962818
      2      O     1.13890809     1.23807289    -1.69459438
      3      H     1.26579027     2.06796648    -2.15858808
      4      O    -0.19828594     0.91776731     1.15603534
      5      H    -1.22280873    -2.50556254     0.66304984
      6      O    -0.61510353    -1.41236004    -1.55706076
      7      H    -0.74277426    -1.65039788    -2.47893448
      8      O    -0.64670662    -1.98873688     1.24123087
      9      H    -1.16358033    -1.68241809     1.99529274
     10      N     2.50035905    -1.15911447     0.23068606
     11      C     3.53059372    -1.75723119     0.29979882
     12      S     4.90228930    -2.54021826     0.40679008
 
Total System Charge             0.00000
Bonding info available!
 
 *** GO1_GOStep11 ***



 ======================
 RI Hartree-Fock Scheme
 ======================
  
 Fit Set Quality     : GOOD
 Threshold Quality   : GOOD
 Integration Quality : GOOD
 Response Quality    : DEFAULT
 Is Range Separated  :  F
 
 RIHartreeFock Dependency: number of modified vectors:           6
  
 Hartree-Fock exchange energy:   -537.463778347892     

 Energy gradients wrt nuclear displacements
 ==========================================

     Atom      Cartesian (a.u./angstrom)
                 X         Y         Z
 ----------------------------------------
     1 Pa   -0.000913  0.008406  0.003321
     2 O     0.004753  0.000635 -0.001057
     3 H    -0.002654  0.000133 -0.000407
     4 O     0.000856 -0.002670 -0.001093
     5 H     0.000163  0.001474 -0.001716
     6 O    -0.003901 -0.003937 -0.003367
     7 H     0.000230  0.000190  0.000116
     8 O    -0.001740 -0.003203  0.003459
     9 H     0.000872  0.001105 -0.000596
    10 N     0.000713  0.001114  0.002075
    11 C     0.006235 -0.006000 -0.000924
    12 S    -0.004614  0.002754  0.000189
 ----------------------------------------
 Mulliken charges used for AMS results%charges...

 dE(predicted):    -0.63628E-03, dE(actual):    -0.56704E-03, Trust radius:    1.000000, all in a.u.
 
----------------------------------------------------------------------
Geometry Convergence after Step  11       (Hartree/Angstrom,Angstrom)
----------------------------------------------------------------------
current energy                               -3.40651405 Hartree
energy change                      -0.00056704     0.00001200    F
constrained gradient max            0.00837929     0.00010000    F
constrained gradient rms            0.00292473     0.00006667    F
gradient max                        0.00837927
gradient rms                        0.00292473
cart. step max                      0.02663821     0.00100000    F
cart. step rms                      0.01049688     0.00066667    F
 
 
--------
Geometry
--------
Formula: CH4NO4PaS
Atoms
  Index Symbol   x (angstrom)   y (angstrom)   z (angstrom)
      1     Pa     0.46468583    -0.11867801    -0.22211065
      2      O     1.13412544     1.23977370    -1.69165656
      3      H     1.28385058     2.06521706    -2.15662864
      4      O    -0.17949572     0.91548901     1.16566239
      5      H    -1.24944694    -2.50698123     0.67544181
      6      O    -0.61178887    -1.41392461    -1.56685612
      7      H    -0.74195255    -1.65185509    -2.48841690
      8      O    -0.65813692    -1.98854977     1.23595171
      9      H    -1.15080763    -1.68591152     2.00769849
     10      N     2.48900255    -1.17365400     0.21269973
     11      C     3.52830587    -1.75329038     0.29494250
     12      S     4.91173844    -2.51535436     0.41735008
 
Total System Charge             0.00000
Bonding info available!
 
 *** GO1_GOStep12 ***



 ======================
 RI Hartree-Fock Scheme
 ======================
  
 Fit Set Quality     : GOOD
 Threshold Quality   : GOOD
 Integration Quality : GOOD
 Response Quality    : DEFAULT
 Is Range Separated  :  F
 
 RIHartreeFock Dependency: number of modified vectors:           6
  
 Hartree-Fock exchange energy:   -537.463952010635     

 Energy gradients wrt nuclear displacements
 ==========================================

     Atom      Cartesian (a.u./angstrom)
                 X         Y         Z
 ----------------------------------------
     1 Pa   -0.000710  0.007990  0.004016
     2 O     0.004602  0.000824 -0.000981
     3 H    -0.002419  0.000155 -0.000578
     4 O     0.000715 -0.002031 -0.000817
     5 H     0.000082  0.001554 -0.001584
     6 O    -0.003427 -0.004186 -0.003391
     7 H     0.000105  0.000147  0.000117
     8 O    -0.001635 -0.003758  0.002617
     9 H     0.000865  0.001357 -0.000257
    10 N     0.000641  0.000335  0.001442
    11 C     0.004419 -0.004275 -0.000728
    12 S    -0.003238  0.001889  0.000143
 ----------------------------------------
 Mulliken charges used for AMS results%charges...

 dE(predicted):    -0.82514E-04, dE(actual):    -0.97772E-04, Trust radius:    1.000000, all in a.u.
 
----------------------------------------------------------------------
Geometry Convergence after Step  12       (Hartree/Angstrom,Angstrom)
----------------------------------------------------------------------
current energy                               -3.40661183 Hartree
energy change                      -0.00009777     0.00001200    F
constrained gradient max            0.00796422     0.00010000    F
constrained gradient rms            0.00258943     0.00006667    F
gradient max                        0.00796421
gradient rms                        0.00258943
cart. step max                      0.06795561     0.00100000    F
cart. step rms                      0.03159022     0.00066667    F
 
 
--------
Geometry
--------
Formula: CH4NO4PaS
Atoms
  Index Symbol   x (angstrom)   y (angstrom)   z (angstrom)
      1     Pa     0.44200181    -0.12898414    -0.24022275
      2      O     1.11068172     1.24779185    -1.68917516
      3      H     1.32869801     2.05144800    -2.16452253
      4      O    -0.11154010     0.90770147     1.18739898
      5      H    -1.29436013    -2.53809636     0.73043278
      6      O    -0.61327365    -1.39801040    -1.61021377
      7      H    -0.75544518    -1.62900411    -2.53191040
      8      O    -0.67172577    -1.98978021     1.22252086
      9      H    -1.09441965    -1.71204300     2.04397547
     10      N     2.46001783    -1.19339657     0.15987834
     11      C     3.51109212    -1.73684744     0.29642675
     12      S     4.90835307    -2.46849830     0.47948930
 
Total System Charge             0.00000
Bonding info available!
 
 *** GO1_GOStep13 ***



 ======================
 RI Hartree-Fock Scheme
 ======================
  
 Fit Set Quality     : GOOD
 Threshold Quality   : GOOD
 Integration Quality : GOOD
 Response Quality    : DEFAULT
 Is Range Separated  :  F
 
 RIHartreeFock Dependency: number of modified vectors:           6
  
 Hartree-Fock exchange energy:   -537.467848274776     

 Energy gradients wrt nuclear displacements
 ==========================================

     Atom      Cartesian (a.u./angstrom)
                 X         Y         Z
 ----------------------------------------
     1 Pa   -0.000461  0.002155  0.000867
     2 O     0.003611  0.000587  0.000652
     3 H    -0.001763 -0.000063 -0.001068
     4 O     0.000636  0.000635  0.000986
     5 H    -0.000555  0.002102 -0.000256
     6 O    -0.001000 -0.002169 -0.001226
     7 H    -0.000005  0.000192  0.000011
     8 O     0.000571 -0.003946  0.000270
     9 H    -0.000246  0.000855 -0.000176
    10 N     0.000926 -0.001298 -0.000121
    11 C    -0.002395  0.001868  0.000056
    12 S     0.000680 -0.000918  0.000006
 ----------------------------------------
 Mulliken charges used for AMS results%charges...
 Rebuilding optimization coordinates
Bad geometry: could not add a dihedral for atom   12

 dE(predicted):    -0.26923E-03, dE(actual):    -0.20470E-03, Trust radius:    1.000000, all in a.u.
 
----------------------------------------------------------------------
Geometry Convergence after Step  13       (Hartree/Angstrom,Angstrom)
----------------------------------------------------------------------
current energy                               -3.40681652 Hartree
energy change                      -0.00020470     0.00001200    F
constrained gradient max            0.00401710     0.00010000    F
constrained gradient rms            0.00136483     0.00006667    F
gradient max                        0.00401707
gradient rms                        0.00136483
cart. step max                      0.03406692     0.00100000    F
cart. step rms                      0.01335593     0.00066667    F
 
 
--------
Geometry
--------
Formula: CH4NO4PaS
Atoms
  Index Symbol   x (angstrom)   y (angstrom)   z (angstrom)
      1     Pa     0.43110670    -0.12876548    -0.24453170
      2      O     1.09935966     1.25416632    -1.68499724
      3      H     1.34355531     2.04778448    -2.16415220
      4      O    -0.10934583     0.91463711     1.18409414
      5      H    -1.28191951    -2.56829052     0.76449970
      6      O    -0.60429187    -1.38774142    -1.62839656
      7      H    -0.74598153    -1.61513238    -2.55116908
      8      O    -0.66973474    -1.98418771     1.22783654
      9      H    -1.08078353    -1.71558729     2.05835388
     10      N     2.44783595    -1.19830381     0.13064857
     11      C     3.49728080    -1.73835514     0.29116620
     12      S     4.89299867    -2.46794337     0.50072561
 
Total System Charge             0.00000
Bonding info available!
 
 *** GO1_GOStep14 ***



 ======================
 RI Hartree-Fock Scheme
 ======================
  
 Fit Set Quality     : GOOD
 Threshold Quality   : GOOD
 Integration Quality : GOOD
 Response Quality    : DEFAULT
 Is Range Separated  :  F
 
 RIHartreeFock Dependency: number of modified vectors:           6
  
 Hartree-Fock exchange energy:   -537.470230876638     

 Energy gradients wrt nuclear displacements
 ==========================================

     Atom      Cartesian (a.u./angstrom)
                 X         Y         Z
 ----------------------------------------
     1 Pa   -0.000063 -0.000997 -0.000255
     2 O     0.002702  0.000116  0.001638
     3 H    -0.001381 -0.000217 -0.001153
     4 O     0.000404  0.001520  0.000748
     5 H    -0.001338  0.001732 -0.000050
     6 O     0.000594 -0.000319  0.000505
     7 H    -0.000007  0.000256 -0.000123
     8 O     0.002261 -0.002961 -0.000215
     9 H    -0.000868  0.000458 -0.000119
    10 N    -0.001064 -0.000474 -0.001581
    11 C    -0.003016  0.002370  0.000672
    12 S     0.001777 -0.001485 -0.000067
 ----------------------------------------
 Mulliken charges used for AMS results%charges...

 dE(predicted):    -0.79462E-04, dE(actual):    -0.40627E-04, Trust radius:    1.000000, all in a.u.
 
----------------------------------------------------------------------
Geometry Convergence after Step  14       (Hartree/Angstrom,Angstrom)
----------------------------------------------------------------------
current energy                               -3.40685715 Hartree
energy change                      -0.00004063     0.00001200    F
constrained gradient max            0.00302824     0.00010000    F
constrained gradient rms            0.00131191     0.00006667    F
gradient max                        0.00302747
gradient rms                        0.00131191
cart. step max                      0.01197222     0.00100000    F
cart. step rms                      0.00497698     0.00066667    F
 
 
--------
Geometry
--------
Formula: CH4NO4PaS
Atoms
  Index Symbol   x (angstrom)   y (angstrom)   z (angstrom)
      1     Pa     0.42841267    -0.12994545    -0.24904733
      2      O     1.09839767     1.25435284    -1.68692190
      3      H     1.34968617     2.04570986    -2.16608646
      4      O    -0.10608647     0.91015753     1.18395211
      5      H    -1.27389962    -2.58026274     0.77497420
      6      O    -0.60914300    -1.38107201    -1.63696242
      7      H    -0.75302154    -1.60682860    -2.55978422
      8      O    -0.66829920    -1.98203040     1.22873761
      9      H    -1.07605379    -1.71538472     2.06141396
     10      N     2.44455250    -1.19950351     0.13239757
     11      C     3.49445868    -1.73857934     0.29424725
     12      S     4.89107600    -2.46433266     0.50715749
 
Total System Charge             0.00000
Bonding info available!
 
 *** GO1_GOStep15 ***



 ======================
 RI Hartree-Fock Scheme
 ======================
  
 Fit Set Quality     : GOOD
 Threshold Quality   : GOOD
 Integration Quality : GOOD
 Response Quality    : DEFAULT
 Is Range Separated  :  F
 
 RIHartreeFock Dependency: number of modified vectors:           6
  
 Hartree-Fock exchange energy:   -537.470947751992     

 Energy gradients wrt nuclear displacements
 ==========================================

     Atom      Cartesian (a.u./angstrom)
                 X         Y         Z
 ----------------------------------------
     1 Pa   -0.000406 -0.000969 -0.000813
     2 O     0.002498 -0.000057  0.001772
     3 H    -0.001326 -0.000263 -0.001143
     4 O     0.000597  0.001165  0.000626
     5 H    -0.001318  0.001588 -0.000158
     6 O     0.000633  0.000073  0.000594
     7 H     0.000018  0.000266 -0.000106
     8 O     0.002352 -0.002587  0.000075
     9 H    -0.000894  0.000333 -0.000144
    10 N    -0.001357 -0.000039 -0.001230
    11 C    -0.001865  0.001406  0.000634
    12 S     0.001067 -0.000917 -0.000107
 ----------------------------------------
 Mulliken charges used for AMS results%charges...

 dE(predicted):    -0.29324E-04, dE(actual):    -0.34933E-04, Trust radius:    1.000000, all in a.u.
 
----------------------------------------------------------------------
Geometry Convergence after Step  15       (Hartree/Angstrom,Angstrom)
----------------------------------------------------------------------
current energy                               -3.40689208 Hartree
energy change                      -0.00003493     0.00001200    F
constrained gradient max            0.00264982     0.00010000    F
constrained gradient rms            0.00112555     0.00006667    F
gradient max                        0.00264901
gradient rms                        0.00112555
cart. step max                      0.09818487     0.00100000    F
cart. step rms                      0.03329958     0.00066667    F
 
 
--------
Geometry
--------
Formula: CH4NO4PaS
Atoms
  Index Symbol   x (angstrom)   y (angstrom)   z (angstrom)
      1     Pa     0.40889203    -0.12668182    -0.26681893
      2      O     1.09288331     1.26430887    -1.68921667
      3      H     1.38864101     2.04596386    -2.15863656
      4      O    -0.14618827     0.90382487     1.16384337
      5      H    -1.17571475    -2.66917958     0.85916447
      6      O    -0.61211635    -1.34980148    -1.68153883
      7      H    -0.75703657    -1.57086804    -2.60525324
      8      O    -0.65629595    -1.95625810     1.24913820
      9      H    -1.07695494    -1.69174218     2.07531816
     10      N     2.42085099    -1.21011921     0.12785247
     11      C     3.46928039    -1.75279876     0.29250073
     12      S     4.86383918    -2.47436766     0.51772469
 
Total System Charge             0.00000
Bonding info available!
 
 *** GO1_GOStep16 ***



 ======================
 RI Hartree-Fock Scheme
 ======================
  
 Fit Set Quality     : GOOD
 Threshold Quality   : GOOD
 Integration Quality : GOOD
 Response Quality    : DEFAULT
 Is Range Separated  :  F
 
 RIHartreeFock Dependency: number of modified vectors:           6
  
 Hartree-Fock exchange energy:   -537.474559726028     

 Energy gradients wrt nuclear displacements
 ==========================================

     Atom      Cartesian (a.u./angstrom)
                 X         Y         Z
 ----------------------------------------
     1 Pa   -0.000823 -0.000583 -0.001323
     2 O     0.000650 -0.000907  0.002036
     3 H    -0.000686 -0.000375 -0.000957
     4 O     0.000669 -0.000656 -0.001046
     5 H    -0.001291  0.000606 -0.000663
     6 O     0.001112  0.002074  0.001359
     7 H     0.000109  0.000307 -0.000087
     8 O     0.002654 -0.000045  0.001532
     9 H    -0.000942 -0.000369 -0.000589
    10 N    -0.002941  0.001186 -0.000505
    11 C     0.003505 -0.002580  0.000396
    12 S    -0.002017  0.001343 -0.000155
 ----------------------------------------
 Mulliken charges used for AMS results%charges...

 dE(predicted):    -0.20065E-03, dE(actual):    -0.15095E-03, Trust radius:    1.000000, all in a.u.
 
----------------------------------------------------------------------
Geometry Convergence after Step  16       (Hartree/Angstrom,Angstrom)
----------------------------------------------------------------------
current energy                               -3.40704304 Hartree
energy change                      -0.00015095     0.00001200    F
constrained gradient max            0.00355155     0.00010000    F
constrained gradient rms            0.00136908     0.00006667    F
gradient max                        0.00355153
gradient rms                        0.00136908
cart. step max                      0.06943702     0.00100000    F
cart. step rms                      0.02392715     0.00066667    F
 
 
--------
Geometry
--------
Formula: CH4NO4PaS
Atoms
  Index Symbol   x (angstrom)   y (angstrom)   z (angstrom)
      1     Pa     0.39052662    -0.12260573    -0.28073238
      2      O     1.08924298     1.27843418    -1.68603269
      3      H     1.41971258     2.05050236    -2.14796591
      4      O    -0.17556605     0.89744802     1.15327585
      5      H    -1.10643782    -2.72282367     0.92860148
      6      O    -0.60739606    -1.33651205    -1.71523225
      7      H    -0.75201724    -1.55910177    -2.63854800
      8      O    -0.65304815    -1.93835608     1.25728875
      9      H    -1.07174247    -1.67303262     2.08388765
     10      N     2.40005120    -1.21591091     0.12218803
     11      C     3.44708903    -1.76016879     0.28859543
     12      S     4.83966547    -2.48559216     0.51875189
 
Total System Charge             0.00000
Bonding info available!
 
 *** GO1_GOStep17 ***



 ======================
 RI Hartree-Fock Scheme
 ======================
  
 Fit Set Quality     : GOOD
 Threshold Quality   : GOOD
 Integration Quality : GOOD
 Response Quality    : DEFAULT
 Is Range Separated  :  F
 
 RIHartreeFock Dependency: number of modified vectors:           6
  
 Hartree-Fock exchange energy:   -537.474941228867     

 Energy gradients wrt nuclear displacements
 ==========================================

     Atom      Cartesian (a.u./angstrom)
                 X         Y         Z
 ----------------------------------------
     1 Pa   -0.001372 -0.000462 -0.001574
     2 O    -0.000049 -0.000733  0.001775
     3 H    -0.000236 -0.000459 -0.000896
     4 O     0.000471 -0.000957 -0.000902
     5 H    -0.001343  0.000832  0.000163
     6 O     0.001093  0.002197  0.001290
     7 H     0.000087  0.000343 -0.000040
     8 O     0.003323  0.001092  0.001136
     9 H    -0.001376 -0.001209 -0.000966
    10 N    -0.002122  0.000446 -0.000019
    11 C     0.003208 -0.002219  0.000033
    12 S    -0.001682  0.001128 -0.000002
 ----------------------------------------
 Mulliken charges used for AMS results%charges...

 dE(predicted):    -0.79163E-04, dE(actual):    -0.45248E-05, Trust radius:    0.088437, all in a.u.
 
----------------------------------------------------------------------
Geometry Convergence after Step  17       (Hartree/Angstrom,Angstrom)
----------------------------------------------------------------------
current energy                               -3.40704756 Hartree
energy change                      -0.00000452     0.00001200    T
constrained gradient max            0.00337423     0.00010000    F
constrained gradient rms            0.00132542     0.00006667    F
gradient max                        0.00337447
gradient rms                        0.00132542
cart. step max                      0.01927590     0.00100000    F
cart. step rms                      0.00881390     0.00066667    F
 
 
--------
Geometry
--------
Formula: CH4NO4PaS
Atoms
  Index Symbol   x (angstrom)   y (angstrom)   z (angstrom)
      1     Pa     0.38572183    -0.11935862    -0.28382830
      2      O     1.09389881     1.28449833    -1.68340138
      3      H     1.43278139     2.05936137    -2.13447502
      4      O    -0.19439235     0.89781933     1.14698428
      5      H    -1.08716192    -2.73487731     0.94517531
      6      O    -0.60335626    -1.34302228    -1.71925588
      7      H    -0.74606347    -1.57192236    -2.64128174
      8      O    -0.65686279    -1.93130119     1.25836141
      9      H    -1.07648572    -1.66007068     2.08274641
     10      N     2.39525882    -1.21440478     0.12835001
     11      C     3.44222489    -1.76115095     0.28440186
     12      S     4.83451686    -2.49329007     0.50030089
 
Total System Charge             0.00000
Bonding info available!
 
 *** GO1_GOStep18 ***



 ======================
 RI Hartree-Fock Scheme
 ======================
  
 Fit Set Quality     : GOOD
 Threshold Quality   : GOOD
 Integration Quality : GOOD
 Response Quality    : DEFAULT
 Is Range Separated  :  F
 
 RIHartreeFock Dependency: number of modified vectors:           6
  
 Hartree-Fock exchange energy:   -537.472602494506     

 Energy gradients wrt nuclear displacements
 ==========================================

     Atom      Cartesian (a.u./angstrom)
                 X         Y         Z
 ----------------------------------------
     1 Pa   -0.001158  0.000552 -0.000723
     2 O     0.000219 -0.000006  0.001100
     3 H    -0.000123 -0.000430 -0.000801
     4 O     0.000165 -0.000742 -0.000386
     5 H    -0.001024  0.000373 -0.000510
     6 O     0.000200  0.000929  0.000305
     7 H     0.000035  0.000326 -0.000044
     8 O     0.002556  0.000536  0.001258
     9 H    -0.001119 -0.000333 -0.000413
    10 N    -0.000663 -0.000665  0.000289
    11 C     0.001754 -0.000966 -0.000176
    12 S    -0.000844  0.000427  0.000101
 ----------------------------------------
 Mulliken charges used for AMS results%charges...

 dE(predicted):    -0.49742E-04, dE(actual):    -0.31704E-04, Trust radius:    0.088437, all in a.u.
 
----------------------------------------------------------------------
Geometry Convergence after Step  18       (Hartree/Angstrom,Angstrom)
----------------------------------------------------------------------
current energy                               -3.40707927 Hartree
energy change                      -0.00003170     0.00001200    F
constrained gradient max            0.00261478     0.00010000    F
constrained gradient rms            0.00080204     0.00006667    F
gradient max                        0.00261511
gradient rms                        0.00080204
cart. step max                      0.02620909     0.00100000    F
cart. step rms                      0.01063929     0.00066667    F
 
 
--------
Geometry
--------
Formula: CH4NO4PaS
Atoms
  Index Symbol   x (angstrom)   y (angstrom)   z (angstrom)
      1     Pa     0.37901990    -0.11601898    -0.28746213
      2      O     1.10103418     1.29214403    -1.67767787
      3      H     1.45007629     2.07118015    -2.11362589
      4      O    -0.21013345     0.90117571     1.14046527
      5      H    -1.07978168    -2.74433421     0.96320189
      6      O    -0.59516157    -1.35636996    -1.72212431
      7      H    -0.73491061    -1.59618208    -2.64178966
      8      O    -0.66696520    -1.92441401     1.25546187
      9      H    -1.07605094    -1.64705727     2.08301484
     10      N     2.38871405    -1.21048359     0.13303980
     11      C     3.43580905    -1.75886760     0.27748224
     12      S     4.82843006    -2.49849141     0.47409180
 
Total System Charge             0.00000
Bonding info available!
 
 *** GO1_GOStep19 ***



 ======================
 RI Hartree-Fock Scheme
 ======================
  
 Fit Set Quality     : GOOD
 Threshold Quality   : GOOD
 Integration Quality : GOOD
 Response Quality    : DEFAULT
 Is Range Separated  :  F
 
 RIHartreeFock Dependency: number of modified vectors:           6
  
 Hartree-Fock exchange energy:   -537.470492494992     

 Energy gradients wrt nuclear displacements
 ==========================================

     Atom      Cartesian (a.u./angstrom)
                 X         Y         Z
 ----------------------------------------
     1 Pa   -0.000862  0.001227 -0.000024
     2 O     0.000733  0.000910  0.000594
     3 H    -0.000019 -0.000381 -0.000738
     4 O    -0.000207  0.000053  0.000422
     5 H    -0.000534  0.000621 -0.000623
     6 O    -0.000676 -0.000687 -0.000618
     7 H    -0.000049  0.000312  0.000014
     8 O     0.001475 -0.000933  0.000981
     9 H    -0.000746  0.000462 -0.000265
    10 N     0.001308 -0.002092  0.000289
    11 C    -0.000918  0.001181 -0.000098
    12 S     0.000495 -0.000674  0.000066
 ----------------------------------------
 Mulliken charges used for AMS results%charges...
 Rebuilding optimization coordinates
Bad geometry: could not add a dihedral for atom   12

 dE(predicted):    -0.55801E-04, dE(actual):    -0.22957E-04, Trust radius:    0.088437, all in a.u.
 
----------------------------------------------------------------------
Geometry Convergence after Step  19       (Hartree/Angstrom,Angstrom)
----------------------------------------------------------------------
current energy                               -3.40710222 Hartree
energy change                      -0.00002296     0.00001200    F
constrained gradient max            0.00198695     0.00010000    F
constrained gradient rms            0.00076476     0.00006667    F
gradient max                        0.00198692
gradient rms                        0.00076476
cart. step max                      0.02338145     0.00100000    F
cart. step rms                      0.00888770     0.00066667    F
 
 
--------
Geometry
--------
Formula: CH4NO4PaS
Atoms
  Index Symbol   x (angstrom)   y (angstrom)   z (angstrom)
      1     Pa     0.37148008    -0.11474944    -0.29265783
      2      O     1.10529009     1.29728107    -1.67341792
      3      H     1.46568749     2.07849892    -2.09604604
      4      O    -0.22126919     0.90203478     1.13431124
      5      H    -1.07022753    -2.75534121     0.98658335
      6      O    -0.58895754    -1.36270052    -1.73036699
      7      H    -0.72627497    -1.61015272    -2.64839965
      8      O    -0.67488800    -1.91849782     1.25326086
      9      H    -1.07012089    -1.63747413     2.08615200
     10      N     2.38056598    -1.20858652     0.13410203
     11      C     3.42781255    -1.75797315     0.27214309
     12      S     4.82098202    -2.50005847     0.45841372
 
Total System Charge             0.00000
Bonding info available!
 
 *** GO1_GOStep20 ***



 ======================
 RI Hartree-Fock Scheme
 ======================
  
 Fit Set Quality     : GOOD
 Threshold Quality   : GOOD
 Integration Quality : GOOD
 Response Quality    : DEFAULT
 Is Range Separated  :  F
 
 RIHartreeFock Dependency: number of modified vectors:           6
  
 Hartree-Fock exchange energy:   -537.470116946995     

 Energy gradients wrt nuclear displacements
 ==========================================

     Atom      Cartesian (a.u./angstrom)
                 X         Y         Z
 ----------------------------------------
     1 Pa   -0.000908  0.001536  0.000252
     2 O     0.000866  0.001237  0.000536
     3 H     0.000081 -0.000370 -0.000671
     4 O    -0.000284  0.000299  0.000552
     5 H    -0.000587  0.000669 -0.000390
     6 O    -0.000924 -0.001342 -0.000781
     7 H    -0.000110  0.000301 -0.000022
     8 O     0.001418 -0.001149  0.000800
     9 H    -0.000609  0.000481 -0.000516
    10 N     0.001763 -0.002379  0.000206
    11 C    -0.001554  0.001665  0.000050
    12 S     0.000848 -0.000950 -0.000016
 ----------------------------------------
 Mulliken charges used for AMS results%charges...

 dE(predicted):    -0.39767E-04, dE(actual):    -0.27824E-04, Trust radius:    0.088437, all in a.u.
 
----------------------------------------------------------------------
Geometry Convergence after Step  20       (Hartree/Angstrom,Angstrom)
----------------------------------------------------------------------
current energy                               -3.40713005 Hartree
energy change                      -0.00002782     0.00001200    F
constrained gradient max            0.00227583     0.00010000    F
constrained gradient rms            0.00093380     0.00006667    F
gradient max                        0.00227574
gradient rms                        0.00093380
cart. step max                      0.02309151     0.00100000    F
cart. step rms                      0.00741401     0.00066667    F
 
 
--------
Geometry
--------
Formula: CH4NO4PaS
Atoms
  Index Symbol   x (angstrom)   y (angstrom)   z (angstrom)
      1     Pa     0.36442162    -0.11451719    -0.29744547
      2      O     1.10649065     1.30069316    -1.67060418
      3      H     1.47794812     2.08127744    -2.08473593
      4      O    -0.22981474     0.90042448     1.13026500
      5      H    -1.05809372    -2.76568113     1.00967485
      6      O    -0.58436524    -1.36355598    -1.74094067
      7      H    -0.71970436    -1.61520574    -2.65812634
      8      O    -0.68006480    -1.91382262     1.25245355
      9      H    -1.06326633    -1.63022395     2.09014387
     10      N     2.37263519    -1.20829740     0.13464007
     11      C     3.42012297    -1.75809156     0.26883657
     12      S     4.81377072    -2.50071872     0.44991653
 
Total System Charge             0.00000
Bonding info available!
 
 *** GO1_GOStep21 ***



 ======================
 RI Hartree-Fock Scheme
 ======================
  
 Fit Set Quality     : GOOD
 Threshold Quality   : GOOD
 Integration Quality : GOOD
 Response Quality    : DEFAULT
 Is Range Separated  :  F
 
 RIHartreeFock Dependency: number of modified vectors:           6
  
 Hartree-Fock exchange energy:   -537.470313287399     

 Energy gradients wrt nuclear displacements
 ==========================================

     Atom      Cartesian (a.u./angstrom)
                 X         Y         Z
 ----------------------------------------
     1 Pa   -0.001091  0.001613  0.000309
     2 O     0.000796  0.001309  0.000549
     3 H     0.000187 -0.000390 -0.000620
     4 O    -0.000264  0.000276  0.000513
     5 H    -0.000789  0.000728 -0.000064
     6 O    -0.000897 -0.001472 -0.000782
     7 H    -0.000139  0.000298 -0.000040
     8 O     0.001859 -0.001007  0.000346
     9 H    -0.000774  0.000316 -0.000468
    10 N     0.001795 -0.002373  0.000244
    11 C    -0.001514  0.001641  0.000064
    12 S     0.000832 -0.000939 -0.000050
 ----------------------------------------
 Mulliken charges used for AMS results%charges...

 dE(predicted):    -0.30203E-04, dE(actual):     0.43276E-05, Trust radius:    0.022109, all in a.u.
 
----------------------------------------------------------------------
Geometry Convergence after Step  21       (Hartree/Angstrom,Angstrom)
----------------------------------------------------------------------
current energy                               -3.40712572 Hartree
energy change                       0.00000433     0.00001200    T
constrained gradient max            0.00227198     0.00010000    F
constrained gradient rms            0.00095892     0.00006667    F
gradient max                        0.00227182
gradient rms                        0.00095892
cart. step max                      0.00604721     0.00100000    F
cart. step rms                      0.00234345     0.00066667    F
 
 
--------
Geometry
--------
Formula: CH4NO4PaS
Atoms
  Index Symbol   x (angstrom)   y (angstrom)   z (angstrom)
      1     Pa     0.36329996    -0.11593707    -0.29816932
      2      O     1.10691756     1.29751568    -1.67129580
      3      H     1.47976421     2.08090422    -2.07890626
      4      O    -0.23083408     0.90134519     1.12759593
      5      H    -1.05800745    -2.76803847     1.01572207
      6      O    -0.58204201    -1.36252976    -1.74390082
      7      H    -0.71591848    -1.61487714    -2.66113050
      8      O    -0.68350852    -1.91282427     1.25287937
      9      H    -1.06138954    -1.62885672     2.09305786
     10      N     2.37071072    -1.20758115     0.13504152
     11      C     3.41853596    -1.75795153     0.26697962
     12      S     4.81255176    -2.49888819     0.44620418
 
Total System Charge             0.00000
Bonding info available!
 
 *** GO1_GOStep22 ***



 ======================
 RI Hartree-Fock Scheme
 ======================
  
 Fit Set Quality     : GOOD
 Threshold Quality   : GOOD
 Integration Quality : GOOD
 Response Quality    : DEFAULT
 Is Range Separated  :  F
 
 RIHartreeFock Dependency: number of modified vectors:           6
  
 Hartree-Fock exchange energy:   -537.471526581617     

 Energy gradients wrt nuclear displacements
 ==========================================

     Atom      Cartesian (a.u./angstrom)
                 X         Y         Z
 ----------------------------------------
     1 Pa   -0.000823  0.001406  0.000139
     2 O     0.000496  0.000754  0.000875
     3 H     0.000217 -0.000361 -0.000559
     4 O    -0.000109 -0.000019 -0.000037
     5 H    -0.000941  0.000349 -0.000236
     6 O    -0.000503 -0.000830 -0.000226
     7 H    -0.000134  0.000282 -0.000064
     8 O     0.002103 -0.000774  0.000158
     9 H    -0.000846  0.000480 -0.000152
    10 N     0.000561 -0.001471  0.000096
    11 C    -0.000117  0.000587  0.000091
    12 S     0.000095 -0.000404 -0.000085
 ----------------------------------------
 Mulliken charges used for AMS results%charges...

 dE(predicted):    -0.20807E-04, dE(actual):    -0.18741E-04, Trust radius:    0.044218, all in a.u.
 
----------------------------------------------------------------------
Geometry Convergence after Step  22       (Hartree/Angstrom,Angstrom)
----------------------------------------------------------------------
current energy                               -3.40714446 Hartree
energy change                      -0.00001874     0.00001200    F
constrained gradient max            0.00216523     0.00010000    F
constrained gradient rms            0.00066077     0.00006667    F
gradient max                        0.00216573
gradient rms                        0.00066077
cart. step max                      0.01157826     0.00100000    F
cart. step rms                      0.00433156     0.00066667    F
 
 
--------
Geometry
--------
Formula: CH4NO4PaS
Atoms
  Index Symbol   x (angstrom)   y (angstrom)   z (angstrom)
      1     Pa     0.36114590    -0.11823380    -0.30030022
      2      O     1.10658272     1.29218963    -1.67436691
      3      H     1.48136117     2.08184433    -2.06803085
      4      O    -0.23075429     0.90262977     1.12374208
      5      H    -1.05683875    -2.77203910     1.02730033
      6      O    -0.57762993    -1.36075760    -1.75050772
      7      H    -0.70908839    -1.61449195    -2.66771395
      8      O    -0.68942172    -1.91079768     1.25338738
      9      H    -1.05597549    -1.62707590     2.09854181
     10      N     2.36695100    -1.20586068     0.13599475
     11      C     3.41489249    -1.75742662     0.26461580
     12      S     4.80885537    -2.49769959     0.44141537
 
Total System Charge             0.00000
Bonding info available!
 
 *** GO1_GOStep23 ***



 ======================
 RI Hartree-Fock Scheme
 ======================
  
 Fit Set Quality     : GOOD
 Threshold Quality   : GOOD
 Integration Quality : GOOD
 Response Quality    : DEFAULT
 Is Range Separated  :  F
 
 RIHartreeFock Dependency: number of modified vectors:           6
  
 Hartree-Fock exchange energy:   -537.473475070517     

 Energy gradients wrt nuclear displacements
 ==========================================

     Atom      Cartesian (a.u./angstrom)
                 X         Y         Z
 ----------------------------------------
     1 Pa   -0.000100  0.000785 -0.000311
     2 O     0.000051 -0.000095  0.001195
     3 H     0.000264 -0.000312 -0.000433
     4 O    -0.000025 -0.000248 -0.000463
     5 H    -0.001002  0.000309 -0.000269
     6 O     0.000082  0.000157  0.000445
     7 H    -0.000135  0.000250 -0.000052
     8 O     0.002088 -0.000657  0.000278
     9 H    -0.000744  0.000430 -0.000261
    10 N    -0.001024 -0.000338 -0.000037
    11 C     0.001101 -0.000338 -0.000021
    12 S    -0.000558  0.000057 -0.000071
 ----------------------------------------
 Mulliken charges used for AMS results%charges...

 dE(predicted):    -0.36973E-04, dE(actual):    -0.27839E-04, Trust radius:    0.088437, all in a.u.
 
----------------------------------------------------------------------
Geometry Convergence after Step  23       (Hartree/Angstrom,Angstrom)
----------------------------------------------------------------------
current energy                               -3.40717230 Hartree
energy change                      -0.00002784     0.00001200    F
constrained gradient max            0.00215152     0.00010000    F
constrained gradient rms            0.00058963     0.00006667    F
gradient max                        0.00215205
gradient rms                        0.00058963
cart. step max                      0.02270941     0.00100000    F
cart. step rms                      0.00862391     0.00066667    F
 
 
--------
Geometry
--------
Formula: CH4NO4PaS
Atoms
  Index Symbol   x (angstrom)   y (angstrom)   z (angstrom)
      1     Pa     0.35522871    -0.12007538    -0.30604745
      2      O     1.10773260     1.28876185    -1.67788016
      3      H     1.48811376     2.08835399    -2.04551333
      4      O    -0.23385111     0.90382655     1.11718006
      5      H    -1.05159340    -2.77951259     1.05000974
      6      O    -0.56994967    -1.36278006    -1.76254211
      7      H    -0.69727266    -1.62251344    -2.67865766
      8      O    -0.70054859    -1.90566391     1.25202173
      9      H    -1.04386667    -1.62054485     2.10634614
     10      N     2.35895368    -1.20252909     0.13956562
     11      C     3.40674649    -1.75637512     0.26061263
     12      S     4.80038695    -2.49866716     0.42898263
 
Total System Charge             0.00000
Bonding info available!
 
 *** GO1_GOStep24 ***



 ======================
 RI Hartree-Fock Scheme
 ======================
  
 Fit Set Quality     : GOOD
 Threshold Quality   : GOOD
 Integration Quality : GOOD
 Response Quality    : DEFAULT
 Is Range Separated  :  F
 
 RIHartreeFock Dependency: number of modified vectors:           6
  
 Hartree-Fock exchange energy:   -537.474633700233     

 Energy gradients wrt nuclear displacements
 ==========================================

     Atom      Cartesian (a.u./angstrom)
                 X         Y         Z
 ----------------------------------------
     1 Pa    0.000695  0.000368 -0.000461
     2 O    -0.000204 -0.000660  0.001133
     3 H     0.000336 -0.000258 -0.000234
     4 O    -0.000071 -0.000264 -0.000510
     5 H    -0.001112  0.000298 -0.000209
     6 O     0.000371  0.000647  0.000648
     7 H    -0.000179  0.000187 -0.000034
     8 O     0.002102 -0.000737  0.000250
     9 H    -0.000628  0.000450 -0.000309
    10 N    -0.002086  0.000474 -0.000030
    11 C     0.001596 -0.000718 -0.000195
    12 S    -0.000819  0.000214 -0.000049
 ----------------------------------------
 Mulliken charges used for AMS results%charges...

 dE(predicted):    -0.53399E-04, dE(actual):    -0.27718E-04, Trust radius:    0.088437, all in a.u.
 
----------------------------------------------------------------------
Geometry Convergence after Step  24       (Hartree/Angstrom,Angstrom)
----------------------------------------------------------------------
current energy                               -3.40720002 Hartree
energy change                      -0.00002772     0.00001200    F
constrained gradient max            0.00216549     0.00010000    F
constrained gradient rms            0.00073477     0.00006667    F
gradient max                        0.00216608
gradient rms                        0.00073477
cart. step max                      0.02126856     0.00100000    F
cart. step rms                      0.00829247     0.00066667    F
 
 
--------
Geometry
--------
Formula: CH4NO4PaS
Atoms
  Index Symbol   x (angstrom)   y (angstrom)   z (angstrom)
      1     Pa     0.34892818    -0.12063347    -0.31251585
      2      O     1.10712694     1.28828644    -1.68222582
      3      H     1.49202494     2.09716402    -2.02427013
      4      O    -0.23512418     0.90509163     1.11175009
      5      H    -1.04310845    -2.78607657     1.07127830
      6      O    -0.56296510    -1.36541338    -1.77448418
      7      H    -0.68654672    -1.63116909    -2.68937528
      8      O    -0.70981886    -1.90046414     1.25005572
      9      H    -1.02950556    -1.61485416     2.11328821
     10      N     2.35111430    -1.20019606     0.14050397
     11      C     3.39789087    -1.75665299     0.25782508
     12      S     4.79006373    -2.50280144     0.42224776
 
Total System Charge             0.00000
Bonding info available!
 
 *** GO1_GOStep25 ***



 ======================
 RI Hartree-Fock Scheme
 ======================
  
 Fit Set Quality     : GOOD
 Threshold Quality   : GOOD
 Integration Quality : GOOD
 Response Quality    : DEFAULT
 Is Range Separated  :  F
 
 RIHartreeFock Dependency: number of modified vectors:           6
  
 Hartree-Fock exchange energy:   -537.474919085420     

 Energy gradients wrt nuclear displacements
 ==========================================

     Atom      Cartesian (a.u./angstrom)
                 X         Y         Z
 ----------------------------------------
     1 Pa    0.001062  0.000150 -0.000255
     2 O    -0.000214 -0.000834  0.000765
     3 H     0.000407 -0.000186 -0.000065
     4 O    -0.000189 -0.000111 -0.000278
     5 H    -0.001230  0.000461  0.000026
     6 O     0.000443  0.000705  0.000406
     7 H    -0.000231  0.000131  0.000010
     8 O     0.002189 -0.000877  0.000138
     9 H    -0.000591  0.000323 -0.000395
    10 N    -0.002319  0.000698  0.000027
    11 C     0.001393 -0.000561 -0.000361
    12 S    -0.000720  0.000099 -0.000020
 ----------------------------------------
 Mulliken charges used for AMS results%charges...

 dE(predicted):    -0.47670E-04, dE(actual):    -0.20963E-04, Trust radius:    0.088437, all in a.u.
 
----------------------------------------------------------------------
Geometry Convergence after Step  25       (Hartree/Angstrom,Angstrom)
----------------------------------------------------------------------
current energy                               -3.40722098 Hartree
energy change                      -0.00002096     0.00001200    F
constrained gradient max            0.00229969     0.00010000    F
constrained gradient rms            0.00074972     0.00006667    F
gradient max                        0.00229954
gradient rms                        0.00074972
cart. step max                      0.01851040     0.00100000    F
cart. step rms                      0.00809888     0.00066667    F
 
 
--------
Geometry
--------
Formula: CH4NO4PaS
Atoms
  Index Symbol   x (angstrom)   y (angstrom)   z (angstrom)
      1     Pa     0.34293966    -0.11995550    -0.31997764
      2      O     1.10341671     1.29025158    -1.68915218
      3      H     1.49019464     2.10867782    -2.00575974
      4      O    -0.23121676     0.90682036     1.10772876
      5      H    -1.03070394    -2.79178533     1.08860625
      6      O    -0.55800768    -1.36733827    -1.78600834
      7      H    -0.67878782    -1.63825523    -2.69975404
      8      O    -0.71629751    -1.89560769     1.24722939
      9      H    -1.01163967    -1.61162618     2.11963502
     10      N     2.34397948    -1.19929298     0.13776319
     11      C     3.38852711    -1.75904363     0.25765060
     12      S     4.77767585    -2.51056416     0.42611657
 
Total System Charge             0.00000
Bonding info available!
 
 *** GO1_GOStep26 ***



 ======================
 RI Hartree-Fock Scheme
 ======================
  
 Fit Set Quality     : GOOD
 Threshold Quality   : GOOD
 Integration Quality : GOOD
 Response Quality    : DEFAULT
 Is Range Separated  :  F
 
 RIHartreeFock Dependency: number of modified vectors:           6
  
 Hartree-Fock exchange energy:   -537.474594734962     

 Energy gradients wrt nuclear displacements
 ==========================================

     Atom      Cartesian (a.u./angstrom)
                 X         Y         Z
 ----------------------------------------
     1 Pa    0.000922  0.000150  0.000198
     2 O    -0.000024 -0.000689  0.000150
     3 H     0.000442 -0.000133  0.000098
     4 O    -0.000290  0.000094  0.000081
     5 H    -0.001354  0.000575  0.000249
[...]
 Index  Atom      ---- Displacements (x/y/z) ----
     1    Pa       0.005901  -0.000486   0.001317
     2     O       0.004762  -0.005351  -0.001311
     3     H      -0.025007   0.040132   0.077408
     4     O       0.054246   0.046635  -0.004582
     5     H       0.442057   0.275846   0.473763
     6     O       0.009399  -0.005904   0.019092
     7     H      -0.029327  -0.148525   0.077331
     8     O      -0.088163  -0.134217   0.009779
     9     H      -0.627804   0.085552  -0.158342
    10     N       0.011584   0.048306  -0.051280
    11     C       0.001212   0.036218  -0.036449
    12     S      -0.030719   0.010229   0.000305
 
 Mode:    17      Frequency (cm-1):      228.8041     Intensity (km/mol):       48.3441
 Index  Atom      ---- Displacements (x/y/z) ----
     1    Pa       0.046445  -0.007657  -0.000004
     2     O      -0.001074   0.015235  -0.024141
     3     H      -0.173957   0.121688   0.022741
     4     O      -0.049517  -0.002346  -0.052813
     5     H      -0.440656  -0.465548  -0.115156
     6     O       0.001449   0.020935  -0.013710
     7     H      -0.135755   0.154822  -0.034136
     8     O      -0.034996  -0.160045   0.197006
     9     H       0.332950  -0.334097   0.320579
    10     N      -0.148820   0.030888  -0.031660
    11     C      -0.149425   0.049188  -0.030939
    12     S      -0.159105   0.102978  -0.033812
 
 Mode:    18      Frequency (cm-1):      243.0492     Intensity (km/mol):       43.3366
 Index  Atom      ---- Displacements (x/y/z) ----
     1    Pa      -0.022853   0.028326  -0.024540
     2     O      -0.018101   0.050419   0.059881
     3     H       0.214707  -0.253163  -0.413755
     4     O       0.029979   0.013226  -0.011987
     5     H      -0.192418  -0.275953  -0.029713
     6     O       0.042357   0.030323  -0.026805
     7     H      -0.208378  -0.370435   0.163621
     8     O      -0.129081  -0.199370   0.217570
     9     H       0.268588  -0.266073   0.299713
    10     N       0.089720  -0.048291   0.043996
    11     C       0.095315  -0.055872   0.040030
    12     S       0.124916  -0.073096   0.023015
 
 Mode:    19      Frequency (cm-1):      258.9654     Intensity (km/mol):       95.9744
 Index  Atom      ---- Displacements (x/y/z) ----
     1    Pa       0.002660  -0.017115   0.006723
     2     O      -0.040655   0.052140   0.106674
     3     H       0.098009  -0.346648  -0.736669
     4     O       0.049092   0.077731  -0.032569
     5     H       0.025713   0.044401  -0.060103
     6     O       0.053272   0.026488  -0.044913
     7     H      -0.452108  -0.228306   0.144005
     8     O       0.029588   0.048208  -0.053395
     9     H       0.003646   0.026915  -0.046858
    10     N      -0.021070   0.020618  -0.010455
    11     C      -0.024376   0.021236  -0.010346
    12     S      -0.036283   0.020207  -0.005957
 
 Mode:    20      Frequency (cm-1):      312.7341     Intensity (km/mol):      105.1025
 Index  Atom      ---- Displacements (x/y/z) ----
     1    Pa      -0.002142  -0.002651   0.005290
     2     O       0.025032  -0.055996  -0.047730
     3     H      -0.369301   0.241178   0.195492
     4     O      -0.006352  -0.002392   0.009519
     5     H      -0.038829  -0.020419  -0.067626
     6     O       0.031195   0.104800  -0.044213
     7     H      -0.087492  -0.793229   0.299411
     8     O       0.006833   0.016985  -0.013293
     9     H       0.114555   0.017722   0.001389
    10     N       0.002327   0.004900  -0.005394
    11     C       0.002711   0.006192  -0.005357
    12     S      -0.002919   0.000460   0.000521
 
 Mode:    21      Frequency (cm-1):      317.0111     Intensity (km/mol):      138.3175
 Index  Atom      ---- Displacements (x/y/z) ----
     1    Pa       0.005374  -0.003472  -0.001477
     2     O      -0.011655   0.038097   0.046137
     3     H      -0.037521  -0.078823  -0.290121
     4     O       0.008398   0.013382  -0.018375
     5     H      -0.044240  -0.033595   0.016339
     6     O      -0.101380   0.019498   0.008367
     7     H       0.879662  -0.332322  -0.055781
     8     O       0.006645  -0.003464  -0.000266
     9     H      -0.039957  -0.020221   0.000572
    10     N      -0.008255   0.000100   0.007939
    11     C      -0.007475   0.003026   0.008912
    12     S      -0.007280   0.004791  -0.003717
 
 Mode:    22      Frequency (cm-1):      362.4637     Intensity (km/mol):      164.2169
 Index  Atom      ---- Displacements (x/y/z) ----
     1    Pa      -0.002423   0.001276  -0.001421
     2     O       0.075564  -0.026381   0.045525
     3     H      -0.677616   0.207650  -0.356836
     4     O       0.003247  -0.005446   0.006692
     5     H       0.291519   0.192431  -0.133364
     6     O      -0.006429  -0.032015   0.011956
     7     H       0.014172   0.237630  -0.088683
     8     O      -0.059413  -0.013513   0.002599
     9     H       0.368095   0.126160   0.001262
    10     N       0.011070   0.010766  -0.008776
    11     C       0.017332   0.016800  -0.013934
    12     S      -0.000213  -0.005621   0.004145
 
 Mode:    23      Frequency (cm-1):      378.8142     Intensity (km/mol):      404.3622
 Index  Atom      ---- Displacements (x/y/z) ----
     1    Pa      -0.006966   0.006041  -0.004949
     2     O       0.055001  -0.015218   0.022352
     3     H      -0.444265   0.148899  -0.219677
     4     O       0.031148  -0.010970   0.022827
     5     H      -0.422684  -0.287447   0.220828
     6     O       0.005231  -0.027050  -0.008527
     7     H      -0.082843   0.089505  -0.033068
     8     O       0.086288   0.008518   0.007405
     9     H      -0.589539  -0.208010   0.007391
    10     N      -0.002672  -0.008507   0.016717
    11     C      -0.008246  -0.012746   0.024505
    12     S       0.014245  -0.004672  -0.002026
 
 Mode:    24      Frequency (cm-1):      482.6464     Intensity (km/mol):       12.7112
 Index  Atom      ---- Displacements (x/y/z) ----
     1    Pa      -0.002443   0.001075   0.000038
     2     O      -0.001742  -0.007574   0.007441
     3     H      -0.016660   0.000902   0.009061
     4     O      -0.002873   0.045644  -0.005026
     5     H      -0.332161  -0.232387   0.452651
     6     O       0.011275   0.006902   0.027784
     7     H       0.014082   0.042475   0.014351
     8     O       0.025557  -0.070930  -0.045240
     9     H       0.354968   0.626508  -0.305304
    10     N       0.009522   0.015764   0.000263
    11     C      -0.036602  -0.060825   0.004341
    12     S       0.010465   0.007354   0.000124
 
 Mode:    25      Frequency (cm-1):      507.2669     Intensity (km/mol):        0.5589
 Index  Atom      ---- Displacements (x/y/z) ----
     1    Pa      -0.000824  -0.001792   0.000183
     2     O       0.002987   0.002141  -0.007081
     3     H       0.018506  -0.000935   0.006023
     4     O      -0.012588   0.019388  -0.003422
     5     H      -0.061457  -0.042952   0.122200
     6     O       0.026638   0.017584   0.036131
     7     H      -0.001832   0.044569   0.032310
     8     O      -0.000127  -0.021984  -0.013622
     9     H       0.133302   0.206057  -0.095102
    10     N      -0.045315  -0.208733  -0.376082
    11     C       0.083219   0.402970   0.727207
    12     S      -0.016685  -0.061959  -0.117619
 
 Mode:    26      Frequency (cm-1):      514.1521     Intensity (km/mol):        1.6443
 Index  Atom      ---- Displacements (x/y/z) ----
     1    Pa      -0.003000  -0.000408  -0.001302
     2     O       0.003446   0.025813  -0.017463
     3     H       0.044072   0.007675  -0.010773
     4     O       0.001374   0.017849  -0.003175
     5     H      -0.316864  -0.220879   0.277587
     6     O       0.015246   0.014585   0.035139
     7     H       0.022353   0.045170   0.022743
     8     O       0.035349  -0.035329  -0.020024
     9     H       0.106143   0.295980  -0.156659
    10     N      -0.191720  -0.267958   0.180162
    11     C       0.364239   0.492696  -0.332516
    12     S      -0.054239  -0.080110   0.053878
 
 Mode:    27      Frequency (cm-1):      562.6262     Intensity (km/mol):      233.8463
 Index  Atom      ---- Displacements (x/y/z) ----
     1    Pa      -0.029741  -0.043255  -0.008419
     2     O       0.197112   0.304801  -0.214386
     3     H       0.131004   0.271399  -0.387257
     4     O       0.026956  -0.017399  -0.039836
     5     H       0.010485   0.009264  -0.090476
     6     O       0.185481   0.264435   0.370116
     7     H       0.239637   0.352294   0.328124
     8     O       0.001012   0.017706   0.010176
     9     H      -0.084328  -0.145483   0.070333
    10     N       0.020511   0.038572   0.005058
    11     C      -0.022795  -0.031349  -0.004888
    12     S      -0.000265   0.007147  -0.000114
 
 Mode:    28      Frequency (cm-1):      609.5839     Intensity (km/mol):      211.5344
 Index  Atom      ---- Displacements (x/y/z) ----
     1    Pa      -0.007618  -0.005857   0.047966
     2     O       0.210083   0.338213  -0.297216
     3     H       0.205056   0.341085  -0.307351
     4     O       0.012985   0.002513  -0.033577
     5     H      -0.003894  -0.009851   0.134995
     6     O      -0.151285  -0.211715  -0.326728
     7     H      -0.264058  -0.308265  -0.274157
     8     O      -0.010812  -0.031250  -0.002654
     9     H       0.129188   0.196058  -0.081414
    10     N       0.000849  -0.000343  -0.015819
    11     C       0.010255  -0.006571   0.012890
    12     S       0.018233  -0.010872   0.002395
 
 Mode:    29      Frequency (cm-1):      849.7220     Intensity (km/mol):      352.4434
 Index  Atom      ---- Displacements (x/y/z) ----
     1    Pa       0.021166  -0.037007  -0.046740
     2     O       0.034951   0.068942  -0.044677
     3     H       0.055979   0.050300  -0.079633
     4     O      -0.339418   0.507501   0.718280
     5     H       0.054564   0.010090  -0.169804
     6     O      -0.016880  -0.018431  -0.024104
     7     H       0.042279  -0.012265  -0.041188
     8     O      -0.008684  -0.004961   0.027400
     9     H      -0.075719  -0.172997   0.096350
    10     N      -0.044462   0.028497  -0.000505
    11     C      -0.014461   0.007636  -0.006392
    12     S       0.034628  -0.020671   0.007855
 
 Mode:    30      Frequency (cm-1):      915.7527     Intensity (km/mol):        3.6844
 Index  Atom      ---- Displacements (x/y/z) ----
     1    Pa       0.010275  -0.004211   0.006024
     2     O      -0.014909  -0.012202   0.010303
     3     H       0.001815  -0.018757   0.020564
     4     O       0.021998  -0.039537  -0.063800
     5     H       0.055802   0.039826  -0.022085
     6     O       0.002429   0.013745   0.012336
     7     H       0.010409   0.004902   0.015710
     8     O      -0.001988   0.004062  -0.003339
     9     H       0.018613  -0.006478   0.004298
    10     N      -0.608386   0.356234  -0.138162
    11     C      -0.454238   0.274960  -0.100951
    12     S       0.356199  -0.212429   0.076551
 
 Mode:    31      Frequency (cm-1):     1600.7208     Intensity (km/mol):       89.1092
 Index  Atom      ---- Displacements (x/y/z) ----
     1    Pa       0.000062  -0.000192  -0.000138
     2     O      -0.000032   0.000057   0.000065
     3     H      -0.000574  -0.000022   0.000090
     4     O      -0.002018   0.000274   0.003154
     5     H      -0.002304   0.103397   0.701392
     6     O       0.000096  -0.000370  -0.000143
     7     H       0.000089   0.001372  -0.000733
     8     O      -0.020697   0.030363  -0.062319
     9     H       0.354236  -0.537481   0.278794
    10     N       0.001039  -0.001308  -0.000247
    11     C      -0.001726   0.001108  -0.000303
    12     S      -0.000003   0.000016  -0.000022
 
 Mode:    32      Frequency (cm-1):     2046.3564     Intensity (km/mol):     2113.6575
 Index  Atom      ---- Displacements (x/y/z) ----
     1    Pa       0.000257  -0.000235   0.000065
     2     O       0.001618   0.005027  -0.004649
     3     H       0.008566   0.013265  -0.002958
     4     O      -0.005160   0.006128   0.008269
     5     H       0.024811   0.003037  -0.023219
     6     O      -0.004023  -0.003963  -0.005631
     7     H      -0.003670  -0.009169  -0.012956
     8     O      -0.003892  -0.001913   0.002346
     9     H      -0.003483   0.023004  -0.003831
    10     N       0.496380  -0.293328   0.104201
    11     C      -0.683916   0.404080  -0.143770
    12     S       0.042336  -0.025083   0.009039
 
 Mode:    33      Frequency (cm-1):     3760.5430     Intensity (km/mol):       53.2700
 Index  Atom      ---- Displacements (x/y/z) ----
     1    Pa       0.000012   0.000037  -0.000029
     2     O      -0.000009   0.000004   0.000036
     3     H      -0.000988  -0.001617   0.000688
     4     O       0.000100  -0.000261  -0.000176
     5     H       0.361408  -0.568027   0.045187
     6     O      -0.000050  -0.000090  -0.000262
     7     H       0.001129   0.001886   0.005313
     8     O      -0.015796   0.015489  -0.043684
     9     H      -0.111032   0.318386   0.654640
    10     N      -0.000511   0.000205  -0.000010
    11     C       0.000484  -0.000310   0.000110
    12     S      -0.000060   0.000047  -0.000021
 
 Mode:    34      Frequency (cm-1):     3854.7683     Intensity (km/mol):      116.3913
 Index  Atom      ---- Displacements (x/y/z) ----
     1    Pa       0.000009  -0.000009  -0.000009
     2     O      -0.000113  -0.000193   0.000089
     3     H       0.001508   0.003051  -0.001201
     4     O      -0.000055   0.000125   0.000203
     5     H       0.398111  -0.613772   0.085147
     6     O      -0.000092  -0.000133  -0.000441
     7     H       0.001501   0.002380   0.007525
     8     O      -0.030143   0.055315   0.033111
     9     H       0.081065  -0.265853  -0.612494
    10     N      -0.000178   0.000153  -0.000032
    11     C       0.000109  -0.000105   0.000039
    12     S      -0.000017   0.000020  -0.000006
 
 Mode:    35      Frequency (cm-1):     3865.8401     Intensity (km/mol):      206.6949
 Index  Atom      ---- Displacements (x/y/z) ----
     1    Pa      -0.000020  -0.000001  -0.000008
     2     O      -0.002496  -0.004877   0.001885
     3     H       0.041569   0.080671  -0.031190
     4     O       0.000065   0.000125   0.000156
     5     H      -0.005126   0.008279  -0.000881
     6     O      -0.011275  -0.020868  -0.058084
     7     H       0.177938   0.328302   0.920478
     8     O       0.000299  -0.000594   0.000027
     9     H       0.000208   0.000580   0.001345
    10     N       0.000377  -0.000204   0.000118
    11     C      -0.000336   0.000194  -0.000067
    12     S       0.000051  -0.000031   0.000012
 
 Mode:    36      Frequency (cm-1):     3878.4436     Intensity (km/mol):      202.6918
 Index  Atom      ---- Displacements (x/y/z) ----
     1    Pa       0.000008  -0.000008  -0.000008
     2     O      -0.027318  -0.052647   0.020635
     3     H       0.431160   0.834832  -0.322546
     4     O       0.000130  -0.000110  -0.000302
     5     H      -0.000470   0.000198   0.000077
     6     O       0.001208   0.002173   0.005742
     7     H      -0.017242  -0.032090  -0.088297
     8     O       0.000069  -0.000081  -0.000212
     9     H      -0.000705   0.001104   0.003501
    10     N      -0.000476   0.000286  -0.000141
    11     C       0.000454  -0.000284   0.000095
    12     S      -0.000069   0.000038  -0.000013

PES point character: Geometry corresponds to a local minimum on the PES.




 ============================
 Statistical Thermal Analysis  ***  ideal gas assumed  ***
 ============================
  
 Pressure:                  1.000000 atm.
 Temperature:             298.150000 K



 Moments of Inertia [amu*bohr^2] and principal axis
 ==================================================

        1154.0995       3779.7293       4103.1736
 ------------------------------------------------
           0.8300         -0.5222          0.1961
          -0.5120         -0.5740          0.6391
           0.2212          0.6308          0.7437


 The rotational contribution to the molecular entropy includes
 a term, dependent on the symmetry number sigma. The results 
 reported below were computed using sigma = 1, determined from
 the point group symmetry of the input geometry (NOSYM). 
 If this is not the correct symmetry, try symmetrizing the molecule before
 running the calculation (note: linear molecules should be aligned along one
 of the Cartesian axes).
 Contributions from frequencies below 20 1/cm are not included in vibrational sums.
 Their contributions, if any, are reported separately.


     Temp                                                        Transl      Rotat     Vibrat     Total
     ----                                                        ------      -----     ------     -----

     298.15   Entropy (cal/mol-K):                               43.512     31.260     51.463    126.235
              Nuclear Internal Energy (kcal/mol):                 0.889      0.889     45.178     46.955
              Constant Volume Heat Capacity (cal/mol-K):          2.981      2.981     38.008     43.970
          (c) Constant Volume Heat Capacity (cal/mol-K):          2.981      2.981     32.792     38.753

       Summary of energy terms
                                                   hartree              eV         kcal/mol           kJ/mol
                                      --------------------     -----------       ----------      -----------
      Energy from Engine:               -3.407509848471184        -92.7231         -2138.24         -8946.42
      Nuclear Internal Energy:           0.074828075236000          2.0362            46.96           196.46
  (c) Nuclear Internal Energy:           0.072198306831018          1.9646            45.31           189.56
      Internal Energy U:                -3.332681773235184        -90.6869         -2091.29         -8749.95
      pV/n = RT:                         0.000944186013486          0.0257             0.59             2.48
      Enthalpy H:                       -3.331737587221698        -90.6612         -2090.70         -8747.48
      -T*S:                             -0.059978261828351         -1.6321           -37.64          -157.47
  (c) -T*S:                             -0.056985442598274         -1.5507           -35.76          -149.62
      Gibbs free energy:                -3.391715849050050        -92.2933         -2128.33         -8904.95
 
 
 
  (c) The properties marked with this symbol have been corrected using 'low vibrational frequency free rotor
      interpolation corrections'. For those terms all positive frequencies are used (also ones below 20 1/cm),
      but the contribution to the partition function of small vibrational frequencies is modified as described
      in the following paper:
      S. Grimme, 'Supramolecular Binding Thermodynamics by Dispersion-Corrected Density Functional Theory'
      (Chem. Eur. J. 2012, 18, 9955-9964)
      Configuration: Dampener Frequency          :   100.000 1/cm
                     Dampener Alpha              :     4.000
                     Averaging Moment of Inertia : 1.000E-44 kg m2

--------------
Atomic charges
--------------
  Index   Atom    Charge
      1     Pa    2.4300
      2      O   -0.6201
      3      H    0.0341
      4      O   -0.7202
      5      H    0.2300
      6      O   -0.6221
      7      H    0.0562
      8      O   -0.4162
      9      H    0.2483
     10      N   -0.5044
     11      C    0.0783
     12      S   -0.1940


Dipole moment vector    (Debye):    -3.85567854   -0.55665673   -0.80659844
              magnitude (Debye):     3.97828164


Final PES point is a local minimum. Geometry optimization successful!


AMS application finished. Exiting.
NORMAL TERMINATION
     Total cpu time:  134406.97
  Total system time:    2704.34
 Total elapsed time:  137106.79
