 Entering Gaussian System, Link 0=/home/pcmt/gaussian/g16.C.01/g16/g16
 AtFile(1): /home/shaaban/basis.gaussian/Pa-def-TZVP
 AtFile(1): /home/shaaban/basis.gaussian/Pa-ECP60MWB
 Initial command:
 /home/pcmt/gaussian/g16.C.01/g16/l1.exe "/state/partition2/shaaban/972893.phlam-s-sakura/Gau-151363.inp" -scrdir="/state/partition2/shaaban/972893.phlam-s-sakura/"
 Entering Link 1 = /home/pcmt/gaussian/g16.C.01/g16/l1.exe PID=    151365.
  
 Copyright (c) 1988-2019, Gaussian, Inc.  All Rights Reserved.
  
 This is part of the Gaussian(R) 16 program.  It is based on
 the Gaussian(R) 09 system (copyright 2009, Gaussian, Inc.),
 the Gaussian(R) 03 system (copyright 2003, Gaussian, Inc.),
 the Gaussian(R) 98 system (copyright 1998, Gaussian, Inc.),
 the Gaussian(R) 94 system (copyright 1995, Gaussian, Inc.),
 the Gaussian 92(TM) system (copyright 1992, Gaussian, Inc.),
 the Gaussian 90(TM) system (copyright 1990, Gaussian, Inc.),
 the Gaussian 88(TM) system (copyright 1988, Gaussian, Inc.),
 the Gaussian 86(TM) system (copyright 1986, Carnegie Mellon
 University), and the Gaussian 82(TM) system (copyright 1983,
 Carnegie Mellon University). Gaussian is a federally registered
 trademark of Gaussian, Inc.
  
 This software contains proprietary and confidential information,
 including trade secrets, belonging to Gaussian, Inc.
  
 This software is provided under written license and may be
 used, copied, transmitted, or stored only in accord with that
 written license.
  
 The following legend is applicable only to US Government
 contracts under FAR:
  
                    RESTRICTED RIGHTS LEGEND
  
 Use, reproduction and disclosure by the US Government is
 subject to restrictions as set forth in subparagraphs (a)
 and (c) of the Commercial Computer Software - Restricted
 Rights clause in FAR 52.227-19.
  
 Gaussian, Inc.
 340 Quinnipiac St., Bldg. 40, Wallingford CT 06492
  
  
 ---------------------------------------------------------------
 Warning -- This program may not be used in any manner that
 competes with the business of Gaussian, Inc. or will provide
 assistance to any competitor of Gaussian, Inc.  The licensee
 of this program is prohibited from giving any competitor of
 Gaussian, Inc. access to this program.  By using this program,
 the user acknowledges that Gaussian, Inc. is engaged in the
 business of creating and licensing software in the field of
 computational chemistry and represents and warrants to the
 licensee that it is not a competitor of Gaussian, Inc. and that
 it will not use this program in any manner prohibited above.
 ---------------------------------------------------------------
  

 Cite this work as:
 Gaussian 16, Revision C.01,
 M. J. Frisch, G. W. Trucks, H. B. Schlegel, G. E. Scuseria, 
 M. A. Robb, J. R. Cheeseman, G. Scalmani, V. Barone, 
 G. A. Petersson, H. Nakatsuji, X. Li, M. Caricato, A. V. Marenich, 
 J. Bloino, B. G. Janesko, R. Gomperts, B. Mennucci, H. P. Hratchian, 
 J. V. Ortiz, A. F. Izmaylov, J. L. Sonnenberg, D. Williams-Young, 
 F. Ding, F. Lipparini, F. Egidi, J. Goings, B. Peng, A. Petrone, 
 T. Henderson, D. Ranasinghe, V. G. Zakrzewski, J. Gao, N. Rega, 
 G. Zheng, W. Liang, M. Hada, M. Ehara, K. Toyota, R. Fukuda, 
 J. Hasegawa, M. Ishida, T. Nakajima, Y. Honda, O. Kitao, H. Nakai, 
 T. Vreven, K. Throssell, J. A. Montgomery, Jr., J. E. Peralta, 
 F. Ogliaro, M. J. Bearpark, J. J. Heyd, E. N. Brothers, K. N. Kudin, 
 V. N. Staroverov, T. A. Keith, R. Kobayashi, J. Normand, 
 K. Raghavachari, A. P. Rendell, J. C. Burant, S. S. Iyengar, 
 J. Tomasi, M. Cossi, J. M. Millam, M. Klene, C. Adamo, R. Cammi, 
 J. W. Ochterski, R. L. Martin, K. Morokuma, O. Farkas, 
 J. B. Foresman, and D. J. Fox, Gaussian, Inc., Wallingford CT, 2019.
 
 ******************************************
 Gaussian 16:  ES64L-G16RevC.01  3-Jul-2019
                 4-Jul-2023 
 ******************************************
 %mem=16Gb
 %NProc=8
 Will use up to    8 processors via shared memory.
 %chk=pa_oh4_no3-bp86-cosmors-deftzvp-gp.chk
 ----------------------------------------------------------------------
 #p BP86/GEN Pseudo=Read GFInput GFPrint IOP(6/7=3) Symm=(Loose) Int=(U
 ltraFine) Guess=(Harris) Scf=(NoVarAcc,MaxCycle=100,conver=8)
 ----------------------------------------------------------------------
 1/38=1,172=1/1;
 2/12=2,17=4,18=3,40=1/2;
 3/5=7,11=2,16=1,17=8,24=110,25=1,30=1,74=404,75=-5/1,2,3;
 4/11=8/1;
 5/5=2,6=8,7=100,38=1/2;
 6/7=3,8=2,9=2,10=2,28=1/1;
 99/5=1,9=1/99;
 Leave Link    1 at Tue Jul  4 11:34:04 2023, MaxMem=  2147483648 cpu:               0.6 elap:               0.1
 (Enter /home/pcmt/gaussian/g16.C.01/g16/l101.exe)
 -------------------------------------------------------------
 pa_oh4_no3-bp86-cosmors-deftzvp-gp.com SGP in PCM calculation
 -------------------------------------------------------------
 Symbolic Z-matrix:
 Charge =  0 Multiplicity = 1
 Pa                    0.41671  -0.06905   0.07735 
 O                     1.23497   1.54895  -0.96557 
 H                     1.34687   1.90379  -1.85675 
 O                    -1.40444   0.94126   0.41342 
 H                    -1.82265   1.76946   0.15025 
 O                     0.001    -1.09254  -1.69082 
 H                    -0.24907  -1.90044  -2.15126 
 O                    -0.14292  -1.66844   1.29716 
 H                    -0.88791  -2.16568   1.65719 
 O                     2.48142   0.09938   1.51693 
 O                     2.66344  -1.20611  -0.19368 
 N                     3.22125  -0.69334   0.83643 
 O                     4.3635   -0.93795   1.14523 
 
 ITRead=  0  0  0  0  0  0  0  0  0  0  0  0  0
 MicOpt= -1 -1 -1 -1 -1 -1 -1 -1 -1 -1 -1 -1 -1
 NAtoms=     13 NQM=       13 NQMF=       0 NMMI=      0 NMMIF=      0
                NMic=       0 NMicF=      0.
                    Isotopes and Nuclear Properties:
 (Nuclear quadrupole moments (NQMom) in fm**2, nuclear magnetic moments (NMagM)
  in nuclear magnetons)

  Atom         1           2           3           4           5           6           7           8           9          10
 IAtWgt=         231          16           1          16           1          16           1          16           1          16
 AtmWgt= 231.0359000  15.9949146   1.0078250  15.9949146   1.0078250  15.9949146   1.0078250  15.9949146   1.0078250  15.9949146
 NucSpn=           3           0           1           0           1           0           1           0           1           0
 AtZEff=  -0.0000000  -0.0000000  -0.0000000  -0.0000000  -0.0000000  -0.0000000  -0.0000000  -0.0000000  -0.0000000  -0.0000000
 NQMom= -172.0000000   0.0000000   0.0000000   0.0000000   0.0000000   0.0000000   0.0000000   0.0000000   0.0000000   0.0000000
 NMagM=    2.0100000   0.0000000   2.7928460   0.0000000   2.7928460   0.0000000   2.7928460   0.0000000   2.7928460   0.0000000
 AtZNuc=  91.0000000   8.0000000   1.0000000   8.0000000   1.0000000   8.0000000   1.0000000   8.0000000   1.0000000   8.0000000

  Atom        11          12          13
 IAtWgt=          16          14          16
 AtmWgt=  15.9949146  14.0030740  15.9949146
 NucSpn=           0           2           0
 AtZEff=  -0.0000000  -0.0000000  -0.0000000
 NQMom=    0.0000000   2.0440000   0.0000000
 NMagM=    0.0000000   0.4037610   0.0000000
 AtZNuc=   8.0000000   7.0000000   8.0000000
 Leave Link  101 at Tue Jul  4 11:34:04 2023, MaxMem=  2147483648 cpu:               0.7 elap:               0.1
 (Enter /home/pcmt/gaussian/g16.C.01/g16/l202.exe)
                          Input orientation:                          
 ---------------------------------------------------------------------
 Center     Atomic      Atomic             Coordinates (Angstroms)
 Number     Number       Type             X           Y           Z
 ---------------------------------------------------------------------
      1         91           0        0.416712   -0.069050    0.077346
      2          8           0        1.234966    1.548946   -0.965572
      3          1           0        1.346869    1.903791   -1.856753
      4          8           0       -1.404444    0.941257    0.413418
      5          1           0       -1.822650    1.769462    0.150252
      6          8           0        0.001000   -1.092544   -1.690815
      7          1           0       -0.249065   -1.900438   -2.151261
      8          8           0       -0.142917   -1.668436    1.297157
      9          1           0       -0.887914   -2.165681    1.657194
     10          8           0        2.481421    0.099376    1.516925
     11          8           0        2.663440   -1.206111   -0.193681
     12          7           0        3.221252   -0.693343    0.836435
     13          8           0        4.363503   -0.937953    1.145228
 ---------------------------------------------------------------------
                    Distance matrix (angstroms):
                    1          2          3          4          5
     1  Pa   0.000000
     2  O    2.091681   0.000000
     3  H    2.915139   0.965733   0.000000
     4  O    2.109567   3.039306   3.694573   0.000000
     5  H    2.898308   3.262316   3.753927   0.964405   0.000000
     6  O    2.084886   3.004350   3.288909   3.246447   3.860869
     7  H    2.960394   3.937824   4.135928   3.998464   4.608829
     8  O    2.087860   4.167740   4.992737   3.030337   3.994501
     9  H    2.931524   5.018364   5.822601   3.386273   4.316243
    10  O    2.522653   3.133321   3.990592   4.126310   4.814770
    11  O    2.532617   3.197920   3.764394   4.639767   5.394194
    12  N    2.971767   3.495772   4.184695   4.924218   5.654839
    13  O    4.180015   4.519723   5.117370   6.110334   6.825582
                    6          7          8          9         10
     6  O    0.000000
     7  H    0.962931   0.000000
     8  O    3.046366   3.457843   0.000000
     9  H    3.626425   3.870764   0.965349   0.000000
    10  O    4.226436   4.991032   3.171846   4.062336   0.000000
    11  O    3.056615   3.577274   3.211227   4.118085   2.159537
    12  N    4.112953   4.735663   3.532804   4.441472   1.280164
    13  O    5.205620   5.750566   4.567769   5.417269   2.180927
                   11         12         13
    11  O    0.000000
    12  N    1.278759   0.000000
    13  O    2.180551   1.208274   0.000000
 Stoichiometry    H4NO7Pa
 Framework group  C1[X(H4NO7Pa)]
 Deg. of freedom    33
 Full point group                 C1      NOp   1
 Largest Abelian subgroup         C1      NOp   1
 Largest concise Abelian subgroup C1      NOp   1
                         Standard orientation:                         
 ---------------------------------------------------------------------
 Center     Atomic      Atomic             Coordinates (Angstroms)
 Number     Number       Type             X           Y           Z
 ---------------------------------------------------------------------
      1         91           0       -0.440943    0.004170   -0.049136
      2          8           0       -0.276977   -2.080461   -0.099716
      3          1           0       -0.468899   -2.873287    0.417230
      4          8           0       -2.296245   -0.018590   -1.052935
      5          1           0       -2.935710   -0.671747   -1.360420
      6          8           0       -1.049846   -0.019129    1.944715
      7          1           0       -1.225086    0.441870    2.771762
      8          8           0       -0.320898    2.086920   -0.132189
      9          1           0       -0.827549    2.906862   -0.186039
     10          8           0        1.828925   -0.011543   -1.149696
     11          8           0        1.859797    0.024517    1.009320
     12          7           0        2.530672    0.002110   -0.079096
     13          8           0        3.738788   -0.006451   -0.096681
 ---------------------------------------------------------------------
 Rotational constants (GHZ):           1.7853184           0.7129089           0.6841946
 Leave Link  202 at Tue Jul  4 11:34:04 2023, MaxMem=  2147483648 cpu:               0.1 elap:               0.0
 (Enter /home/pcmt/gaussian/g16.C.01/g16/l301.exe)
 General basis read from cards:  (5D, 7F)
 Centers:       1
 S 3 1.00
     Exponent=  1.2047376000D+04 Coefficients=  3.4500000000D-04
     Exponent=  1.8116841000D+03 Coefficients=  2.7420000000D-03
     Exponent=  3.4770104000D+02 Coefficients=  1.0053000000D-02
 S 1 1.00
     Exponent=  9.8678010000D+01 Coefficients=  1.0000000000D+00
 S 3 1.00
     Exponent=  5.7507376000D+01 Coefficients=  5.1528000000D-02
     Exponent=  3.3502601000D+01 Coefficients= -2.3692400000D-01
     Exponent=  1.9554451000D+01 Coefficients=  7.1904800000D-01
 S 1 1.00
     Exponent=  9.7164210000D+00 Coefficients=  1.0000000000D+00
 S 1 1.00
     Exponent=  2.6920960000D+00 Coefficients=  1.0000000000D+00
 S 1 1.00
     Exponent=  1.4538470000D+00 Coefficients=  1.0000000000D+00
 S 1 1.00
     Exponent=  5.7435200000D-01 Coefficients=  1.0000000000D+00
 S 1 1.00
     Exponent=  2.6346800000D-01 Coefficients=  1.0000000000D+00
 S 1 1.00
     Exponent=  5.6557000000D-02 Coefficients=  1.0000000000D+00
 S 1 1.00
     Exponent=  2.3169000000D-02 Coefficients=  1.0000000000D+00
 P 5 1.00
     Exponent=  2.9033676000D+03 Coefficients=  3.5000000000D-05
     Exponent=  6.4486356000D+02 Coefficients=  2.0500000000D-04
     Exponent=  2.2025896000D+02 Coefficients=  1.2510000000D-03
     Exponent=  8.0276401000D+01 Coefficients=  2.4570000000D-03
     Exponent=  2.4080211000D+01 Coefficients=  1.1190000000D-02
 P 1 1.00
     Exponent=  1.4077580000D+01 Coefficients=  1.0000000000D+00
 P 1 1.00
     Exponent=  8.2658460000D+00 Coefficients=  1.0000000000D+00
 P 1 1.00
     Exponent=  3.5948000000D+00 Coefficients=  1.0000000000D+00
 P 1 1.00
     Exponent=  1.7531110000D+00 Coefficients=  1.0000000000D+00
 P 1 1.00
     Exponent=  6.5776700000D-01 Coefficients=  1.0000000000D+00
 P 1 1.00
     Exponent=  2.8463900000D-01 Coefficients=  1.0000000000D+00
 P 1 1.00
     Exponent=  1.0054300000D-01 Coefficients=  1.0000000000D+00
 P 1 1.00
     Exponent=  3.0190000000D-02 Coefficients=  1.0000000000D+00
 D 6 1.00
     Exponent=  4.4814991000D+02 Coefficients=  2.6000000000D-05
     Exponent=  1.5446145000D+02 Coefficients=  2.2800000000D-04
     Exponent=  6.0925377000D+01 Coefficients=  9.0400000000D-04
     Exponent=  1.7032091000D+01 Coefficients=  2.5647000000D-02
     Exponent=  1.0018877000D+01 Coefficients= -1.0575100000D-01
     Exponent=  3.4091930000D+00 Coefficients=  4.4743200000D-01
 D 1 1.00
     Exponent=  1.6702130000D+00 Coefficients=  1.0000000000D+00
 D 1 1.00
     Exponent=  7.4109500000D-01 Coefficients=  1.0000000000D+00
 D 1 1.00
     Exponent=  2.6139300000D-01 Coefficients=  1.0000000000D+00
 D 1 1.00
     Exponent=  8.2811000000D-02 Coefficients=  1.0000000000D+00
 F 5 1.00
     Exponent=  8.7991327000D+01 Coefficients=  2.2600000000D-04
     Exponent=  2.8340195000D+01 Coefficients=  2.3230000000D-03
     Exponent=  1.2440994000D+01 Coefficients=  4.5850000000D-03
     Exponent=  3.9572960000D+00 Coefficients=  1.5696100000D-01
     Exponent=  1.8759440000D+00 Coefficients=  3.4497700000D-01
 F 1 1.00
     Exponent=  8.2758900000D-01 Coefficients=  1.0000000000D+00
 F 1 1.00
     Exponent=  3.3274800000D-01 Coefficients=  1.0000000000D+00
 F 1 1.00
     Exponent=  1.1468500000D-01 Coefficients=  1.0000000000D+00
 G 1 1.00
     Exponent=  3.5000000000D-01 Coefficients=  1.0000000000D+00
 ****
 Centers:       2      4      6      8     10     11     13
 Def2TZVP
 ****
 Centers:       3      5      7      9
 Def2TZVP
 ****
 Centers:      12
 Def2TZVP
 ****
 ======================================================================================================
                                       Pseudopotential Parameters
 ======================================================================================================
  Center     Atomic      Valence      Angular      Power
  Number     Number     Electrons     Momentum     of R      Exponent        Coefficient   SO-Coeffient
 ======================================================================================================
    1         91           31
                                      H and up 
                                                     2        1.0000000        0.00000000    0.00000000
                                      S - H
                                                     2       15.2691737      475.47573283    0.00000000
                                      P - H
                                                     2        9.9577370      207.66485962    0.00000000
                                      D - H
                                                     2        8.9431413      156.67411988    0.00000000
                                      F - H
                                                     2        7.0104666       67.98223685    0.00000000
                                      G - H
                                                     2       12.2010560      -57.63059989    0.00000000
    2          8
                                   No pseudopotential on this center.
    3          1
                                   No pseudopotential on this center.
    4          8
                                   No pseudopotential on this center.
    5          1
                                   No pseudopotential on this center.
    6          8
                                   No pseudopotential on this center.
    7          1
                                   No pseudopotential on this center.
    8          8
                                   No pseudopotential on this center.
    9          1
                                   No pseudopotential on this center.
   10          8
                                   No pseudopotential on this center.
   11          8
                                   No pseudopotential on this center.
   12          7
                                   No pseudopotential on this center.
   13          8
                                   No pseudopotential on this center.
 ======================================================================================================
 Ernie: Thresh=  0.10000D-02 Tol=  0.10000D-05 Strict=F.
 AO basis set in the form of general basis input (Overlap normalization):
      1 0
 S   3 1.00       0.000000000000
      0.1204737600D+05  0.2857094961D-01
      0.1811684100D+04  0.2270769386D+00
      0.3477010400D+03  0.8325326273D+00
 S   3 1.00       0.000000000000
      0.5750737600D+02  0.9569327984D-01
      0.3350260100D+02 -0.4399944619D+00
      0.1955445100D+02  0.1335352847D+01
 S   1 1.00       0.000000000000
      0.9867801000D+02  0.1000000000D+01
 S   1 1.00       0.000000000000
      0.9716421000D+01  0.1000000000D+01
 S   1 1.00       0.000000000000
      0.2692096000D+01  0.1000000000D+01
 S   1 1.00       0.000000000000
      0.1453847000D+01  0.1000000000D+01
 S   1 1.00       0.000000000000
      0.5743520000D+00  0.1000000000D+01
 S   1 1.00       0.000000000000
      0.2634680000D+00  0.1000000000D+01
 S   1 1.00       0.000000000000
      0.5655700000D-01  0.1000000000D+01
 S   1 1.00       0.000000000000
      0.2316900000D-01  0.1000000000D+01
 P   5 1.00       0.000000000000
      0.2903367600D+04  0.2594222647D-02
      0.6448635600D+03  0.1519473264D-01
      0.2202589600D+03  0.9272492945D-01
      0.8027640100D+02  0.1821144298D+00
      0.2408021100D+02  0.8294100404D+00
 P   1 1.00       0.000000000000
      0.1407758000D+02  0.1000000000D+01
 P   1 1.00       0.000000000000
      0.8265846000D+01  0.1000000000D+01
 P   1 1.00       0.000000000000
      0.3594800000D+01  0.1000000000D+01
 P   1 1.00       0.000000000000
      0.1753111000D+01  0.1000000000D+01
 P   1 1.00       0.000000000000
      0.6577670000D+00  0.1000000000D+01
 P   1 1.00       0.000000000000
      0.2846390000D+00  0.1000000000D+01
 P   1 1.00       0.000000000000
      0.1005430000D+00  0.1000000000D+01
 P   1 1.00       0.000000000000
      0.3019000000D-01  0.1000000000D+01
 D   6 1.00       0.000000000000
      0.4481499100D+03  0.6556927566D-04
      0.1544614500D+03  0.5749921096D-03
      0.6092537700D+02  0.2279793277D-02
      0.1703209100D+02  0.6467904664D-01
      0.1001887700D+02 -0.2666929411D+00
      0.3409193000D+01  0.1128376621D+01
 D   1 1.00       0.000000000000
      0.1670213000D+01  0.1000000000D+01
 D   1 1.00       0.000000000000
      0.7410950000D+00  0.1000000000D+01
 D   1 1.00       0.000000000000
      0.2613930000D+00  0.1000000000D+01
 D   1 1.00       0.000000000000
      0.8281100000D-01  0.1000000000D+01
 F   5 1.00       0.000000000000
      0.8799132700D+02  0.4766318191D-03
      0.2834019500D+02  0.4899184583D-02
      0.1244099400D+02  0.9669720755D-02
      0.3957296000D+01  0.3310292343D+00
      0.1875944000D+01  0.7275531640D+00
 F   1 1.00       0.000000000000
      0.8275890000D+00  0.1000000000D+01
 F   1 1.00       0.000000000000
      0.3327480000D+00  0.1000000000D+01
 F   1 1.00       0.000000000000
      0.1146850000D+00  0.1000000000D+01
 G   1 1.00       0.000000000000
      0.3500000000D+00  0.1000000000D+01
 ****
      2 0
 S   6 1.00       0.000000000000
      0.2703238263D+05  0.5722733521D-03
      0.4052387139D+04  0.4435323349D-02
      0.9223272271D+03  0.2302010771D-01
      0.2612407099D+03  0.9282249067D-01
      0.8535464135D+02  0.2937850001D+00
      0.3103503524D+02  0.6740160450D+00
 S   2 1.00       0.000000000000
      0.1226086073D+02  0.6383993703D+00
      0.4998707601D+01  0.3953458713D+00
 S   1 1.00       0.000000000000
      0.1170310816D+01  0.1000000000D+01
 S   1 1.00       0.000000000000
      0.4647474099D+00  0.1000000000D+01
 S   1 1.00       0.000000000000
      0.1850453636D+00  0.1000000000D+01
 P   4 1.00       0.000000000000
      0.6327495480D+02  0.1201833222D-01
      0.1462704938D+02  0.8300542179D-01
      0.4450122346D+01  0.3199174393D+00
      0.1527579965D+01  0.7071554292D+00
 P   1 1.00       0.000000000000
      0.5293511794D+00  0.1000000000D+01
 P   1 1.00       0.000000000000
      0.1747842127D+00  0.1000000000D+01
 D   1 1.00       0.000000000000
      0.2314000000D+01  0.1000000000D+01
 D   1 1.00       0.000000000000
      0.6450000000D+00  0.1000000000D+01
 F   1 1.00       0.000000000000
      0.1428000000D+01  0.1000000000D+01
 ****
      3 0
 S   3 1.00       0.000000000000
      0.3406134100D+02  0.2543930721D-01
      0.5123574600D+01  0.1900859489D+00
      0.1164662600D+01  0.8524411301D+00
 S   1 1.00       0.000000000000
      0.3272304100D+00  0.1000000000D+01
 S   1 1.00       0.000000000000
      0.1030724100D+00  0.1000000000D+01
 P   1 1.00       0.000000000000
      0.8000000000D+00  0.1000000000D+01
 ****
      4 0
 S   6 1.00       0.000000000000
      0.2703238263D+05  0.5722733521D-03
      0.4052387139D+04  0.4435323349D-02
      0.9223272271D+03  0.2302010771D-01
      0.2612407099D+03  0.9282249067D-01
      0.8535464135D+02  0.2937850001D+00
      0.3103503524D+02  0.6740160450D+00
 S   2 1.00       0.000000000000
      0.1226086073D+02  0.6383993703D+00
      0.4998707601D+01  0.3953458713D+00
 S   1 1.00       0.000000000000
      0.1170310816D+01  0.1000000000D+01
 S   1 1.00       0.000000000000
      0.4647474099D+00  0.1000000000D+01
 S   1 1.00       0.000000000000
      0.1850453636D+00  0.1000000000D+01
 P   4 1.00       0.000000000000
      0.6327495480D+02  0.1201833222D-01
      0.1462704938D+02  0.8300542179D-01
      0.4450122346D+01  0.3199174393D+00
      0.1527579965D+01  0.7071554292D+00
 P   1 1.00       0.000000000000
      0.5293511794D+00  0.1000000000D+01
 P   1 1.00       0.000000000000
      0.1747842127D+00  0.1000000000D+01
 D   1 1.00       0.000000000000
      0.2314000000D+01  0.1000000000D+01
 D   1 1.00       0.000000000000
      0.6450000000D+00  0.1000000000D+01
 F   1 1.00       0.000000000000
      0.1428000000D+01  0.1000000000D+01
 ****
      5 0
 S   3 1.00       0.000000000000
      0.3406134100D+02  0.2543930721D-01
      0.5123574600D+01  0.1900859489D+00
      0.1164662600D+01  0.8524411301D+00
 S   1 1.00       0.000000000000
      0.3272304100D+00  0.1000000000D+01
 S   1 1.00       0.000000000000
      0.1030724100D+00  0.1000000000D+01
 P   1 1.00       0.000000000000
      0.8000000000D+00  0.1000000000D+01
 ****
      6 0
 S   6 1.00       0.000000000000
      0.2703238263D+05  0.5722733521D-03
      0.4052387139D+04  0.4435323349D-02
      0.9223272271D+03  0.2302010771D-01
      0.2612407099D+03  0.9282249067D-01
      0.8535464135D+02  0.2937850001D+00
      0.3103503524D+02  0.6740160450D+00
 S   2 1.00       0.000000000000
      0.1226086073D+02  0.6383993703D+00
      0.4998707601D+01  0.3953458713D+00
 S   1 1.00       0.000000000000
      0.1170310816D+01  0.1000000000D+01
 S   1 1.00       0.000000000000
      0.4647474099D+00  0.1000000000D+01
 S   1 1.00       0.000000000000
      0.1850453636D+00  0.1000000000D+01
 P   4 1.00       0.000000000000
      0.6327495480D+02  0.1201833222D-01
      0.1462704938D+02  0.8300542179D-01
      0.4450122346D+01  0.3199174393D+00
      0.1527579965D+01  0.7071554292D+00
 P   1 1.00       0.000000000000
      0.5293511794D+00  0.1000000000D+01
 P   1 1.00       0.000000000000
      0.1747842127D+00  0.1000000000D+01
 D   1 1.00       0.000000000000
      0.2314000000D+01  0.1000000000D+01
 D   1 1.00       0.000000000000
      0.6450000000D+00  0.1000000000D+01
 F   1 1.00       0.000000000000
      0.1428000000D+01  0.1000000000D+01
 ****
      7 0
 S   3 1.00       0.000000000000
      0.3406134100D+02  0.2543930721D-01
      0.5123574600D+01  0.1900859489D+00
      0.1164662600D+01  0.8524411301D+00
 S   1 1.00       0.000000000000
      0.3272304100D+00  0.1000000000D+01
 S   1 1.00       0.000000000000
      0.1030724100D+00  0.1000000000D+01
 P   1 1.00       0.000000000000
      0.8000000000D+00  0.1000000000D+01
 ****
      8 0
 S   6 1.00       0.000000000000
      0.2703238263D+05  0.5722733521D-03
      0.4052387139D+04  0.4435323349D-02
      0.9223272271D+03  0.2302010771D-01
      0.2612407099D+03  0.9282249067D-01
      0.8535464135D+02  0.2937850001D+00
      0.3103503524D+02  0.6740160450D+00
 S   2 1.00       0.000000000000
      0.1226086073D+02  0.6383993703D+00
      0.4998707601D+01  0.3953458713D+00
 S   1 1.00       0.000000000000
      0.1170310816D+01  0.1000000000D+01
 S   1 1.00       0.000000000000
      0.4647474099D+00  0.1000000000D+01
 S   1 1.00       0.000000000000
      0.1850453636D+00  0.1000000000D+01
 P   4 1.00       0.000000000000
      0.6327495480D+02  0.1201833222D-01
      0.1462704938D+02  0.8300542179D-01
      0.4450122346D+01  0.3199174393D+00
      0.1527579965D+01  0.7071554292D+00
 P   1 1.00       0.000000000000
      0.5293511794D+00  0.1000000000D+01
 P   1 1.00       0.000000000000
      0.1747842127D+00  0.1000000000D+01
 D   1 1.00       0.000000000000
      0.2314000000D+01  0.1000000000D+01
 D   1 1.00       0.000000000000
      0.6450000000D+00  0.1000000000D+01
 F   1 1.00       0.000000000000
      0.1428000000D+01  0.1000000000D+01
 ****
      9 0
 S   3 1.00       0.000000000000
      0.3406134100D+02  0.2543930721D-01
      0.5123574600D+01  0.1900859489D+00
      0.1164662600D+01  0.8524411301D+00
 S   1 1.00       0.000000000000
      0.3272304100D+00  0.1000000000D+01
 S   1 1.00       0.000000000000
      0.1030724100D+00  0.1000000000D+01
 P   1 1.00       0.000000000000
      0.8000000000D+00  0.1000000000D+01
 ****
     10 0
 S   6 1.00       0.000000000000
      0.2703238263D+05  0.5722733521D-03
      0.4052387139D+04  0.4435323349D-02
      0.9223272271D+03  0.2302010771D-01
      0.2612407099D+03  0.9282249067D-01
      0.8535464135D+02  0.2937850001D+00
      0.3103503524D+02  0.6740160450D+00
 S   2 1.00       0.000000000000
      0.1226086073D+02  0.6383993703D+00
      0.4998707601D+01  0.3953458713D+00
 S   1 1.00       0.000000000000
      0.1170310816D+01  0.1000000000D+01
 S   1 1.00       0.000000000000
      0.4647474099D+00  0.1000000000D+01
 S   1 1.00       0.000000000000
      0.1850453636D+00  0.1000000000D+01
 P   4 1.00       0.000000000000
      0.6327495480D+02  0.1201833222D-01
      0.1462704938D+02  0.8300542179D-01
      0.4450122346D+01  0.3199174393D+00
      0.1527579965D+01  0.7071554292D+00
 P   1 1.00       0.000000000000
      0.5293511794D+00  0.1000000000D+01
 P   1 1.00       0.000000000000
      0.1747842127D+00  0.1000000000D+01
 D   1 1.00       0.000000000000
      0.2314000000D+01  0.1000000000D+01
 D   1 1.00       0.000000000000
      0.6450000000D+00  0.1000000000D+01
 F   1 1.00       0.000000000000
      0.1428000000D+01  0.1000000000D+01
 ****
     11 0
 S   6 1.00       0.000000000000
      0.2703238263D+05  0.5722733521D-03
      0.4052387139D+04  0.4435323349D-02
      0.9223272271D+03  0.2302010771D-01
      0.2612407099D+03  0.9282249067D-01
      0.8535464135D+02  0.2937850001D+00
      0.3103503524D+02  0.6740160450D+00
 S   2 1.00       0.000000000000
      0.1226086073D+02  0.6383993703D+00
      0.4998707601D+01  0.3953458713D+00
 S   1 1.00       0.000000000000
      0.1170310816D+01  0.1000000000D+01
 S   1 1.00       0.000000000000
      0.4647474099D+00  0.1000000000D+01
 S   1 1.00       0.000000000000
      0.1850453636D+00  0.1000000000D+01
 P   4 1.00       0.000000000000
      0.6327495480D+02  0.1201833222D-01
      0.1462704938D+02  0.8300542179D-01
      0.4450122346D+01  0.3199174393D+00
      0.1527579965D+01  0.7071554292D+00
 P   1 1.00       0.000000000000
      0.5293511794D+00  0.1000000000D+01
 P   1 1.00       0.000000000000
      0.1747842127D+00  0.1000000000D+01
 D   1 1.00       0.000000000000
      0.2314000000D+01  0.1000000000D+01
 D   1 1.00       0.000000000000
      0.6450000000D+00  0.1000000000D+01
 F   1 1.00       0.000000000000
      0.1428000000D+01  0.1000000000D+01
 ****
     12 0
 S   6 1.00       0.000000000000
      0.1973080065D+05  0.5862640263D-03
      0.2957895874D+04  0.4542882059D-02
      0.6732213360D+03  0.2355841345D-01
      0.1906824949D+03  0.9470919329D-01
      0.6229544190D+02  0.2971978491D+00
      0.2265416118D+02  0.6691624690D+00
 S   2 1.00       0.000000000000
      0.8979147743D+01  0.6459668363D+00
      0.3686300237D+01  0.3870057439D+00
 S   1 1.00       0.000000000000
      0.8466007680D+00  0.1000000000D+01
 S   1 1.00       0.000000000000
      0.3364713377D+00  0.1000000000D+01
 S   1 1.00       0.000000000000
      0.1364765367D+00  0.1000000000D+01
 P   4 1.00       0.000000000000
      0.4920038051D+02  0.1144882510D-01
      0.1134679054D+02  0.7842233797D-01
      0.3427397241D+01  0.3081809474D+00
      0.1178552513D+01  0.7202719637D+00
 P   1 1.00       0.000000000000
      0.4164220497D+00  0.1000000000D+01
 P   1 1.00       0.000000000000
      0.1426082601D+00  0.1000000000D+01
 D   1 1.00       0.000000000000
      0.1654000000D+01  0.1000000000D+01
 D   1 1.00       0.000000000000
      0.4690000000D+00  0.1000000000D+01
 F   1 1.00       0.000000000000
      0.1093000000D+01  0.1000000000D+01
 ****
     13 0
 S   6 1.00       0.000000000000
      0.2703238263D+05  0.5722733521D-03
      0.4052387139D+04  0.4435323349D-02
      0.9223272271D+03  0.2302010771D-01
      0.2612407099D+03  0.9282249067D-01
      0.8535464135D+02  0.2937850001D+00
      0.3103503524D+02  0.6740160450D+00
 S   2 1.00       0.000000000000
      0.1226086073D+02  0.6383993703D+00
      0.4998707601D+01  0.3953458713D+00
 S   1 1.00       0.000000000000
      0.1170310816D+01  0.1000000000D+01
 S   1 1.00       0.000000000000
      0.4647474099D+00  0.1000000000D+01
 S   1 1.00       0.000000000000
      0.1850453636D+00  0.1000000000D+01
 P   4 1.00       0.000000000000
      0.6327495480D+02  0.1201833222D-01
      0.1462704938D+02  0.8300542179D-01
      0.4450122346D+01  0.3199174393D+00
      0.1527579965D+01  0.7071554292D+00
 P   1 1.00       0.000000000000
      0.5293511794D+00  0.1000000000D+01
 P   1 1.00       0.000000000000
      0.1747842127D+00  0.1000000000D+01
 D   1 1.00       0.000000000000
      0.2314000000D+01  0.1000000000D+01
 D   1 1.00       0.000000000000
      0.6450000000D+00  0.1000000000D+01
 F   1 1.00       0.000000000000
      0.1428000000D+01  0.1000000000D+01
 ****

 AO basis set (Overlap normalization):
 Atom Pa1      Shell     1 S   3     bf    1 -     1         -0.833261412880          0.007879311513         -0.092854139107
      0.1204737600D+05  0.2857094961D-01
      0.1811684100D+04  0.2270769386D+00
      0.3477010400D+03  0.8325326273D+00
 Atom Pa1      Shell     2 S   3     bf    2 -     2         -0.833261412880          0.007879311513         -0.092854139107
      0.5750737600D+02  0.9569327984D-01
      0.3350260100D+02 -0.4399944619D+00
      0.1955445100D+02  0.1335352847D+01
 Atom Pa1      Shell     3 S   1     bf    3 -     3         -0.833261412880          0.007879311513         -0.092854139107
      0.9867801000D+02  0.1000000000D+01
 Atom Pa1      Shell     4 S   1     bf    4 -     4         -0.833261412880          0.007879311513         -0.092854139107
      0.9716421000D+01  0.1000000000D+01
 Atom Pa1      Shell     5 S   1     bf    5 -     5         -0.833261412880          0.007879311513         -0.092854139107
      0.2692096000D+01  0.1000000000D+01
 Atom Pa1      Shell     6 S   1     bf    6 -     6         -0.833261412880          0.007879311513         -0.092854139107
      0.1453847000D+01  0.1000000000D+01
 Atom Pa1      Shell     7 S   1     bf    7 -     7         -0.833261412880          0.007879311513         -0.092854139107
      0.5743520000D+00  0.1000000000D+01
 Atom Pa1      Shell     8 S   1     bf    8 -     8         -0.833261412880          0.007879311513         -0.092854139107
      0.2634680000D+00  0.1000000000D+01
 Atom Pa1      Shell     9 S   1     bf    9 -     9         -0.833261412880          0.007879311513         -0.092854139107
      0.5655700000D-01  0.1000000000D+01
 Atom Pa1      Shell    10 S   1     bf   10 -    10         -0.833261412880          0.007879311513         -0.092854139107
      0.2316900000D-01  0.1000000000D+01
 Atom Pa1      Shell    11 P   5     bf   11 -    13         -0.833261412880          0.007879311513         -0.092854139107
      0.2903367600D+04  0.2594222647D-02
      0.6448635600D+03  0.1519473264D-01
      0.2202589600D+03  0.9272492945D-01
      0.8027640100D+02  0.1821144298D+00
      0.2408021100D+02  0.8294100404D+00
 Atom Pa1      Shell    12 P   1     bf   14 -    16         -0.833261412880          0.007879311513         -0.092854139107
      0.1407758000D+02  0.1000000000D+01
 Atom Pa1      Shell    13 P   1     bf   17 -    19         -0.833261412880          0.007879311513         -0.092854139107
      0.8265846000D+01  0.1000000000D+01
 Atom Pa1      Shell    14 P   1     bf   20 -    22         -0.833261412880          0.007879311513         -0.092854139107
      0.3594800000D+01  0.1000000000D+01
 Atom Pa1      Shell    15 P   1     bf   23 -    25         -0.833261412880          0.007879311513         -0.092854139107
      0.1753111000D+01  0.1000000000D+01
 Atom Pa1      Shell    16 P   1     bf   26 -    28         -0.833261412880          0.007879311513         -0.092854139107
      0.6577670000D+00  0.1000000000D+01
 Atom Pa1      Shell    17 P   1     bf   29 -    31         -0.833261412880          0.007879311513         -0.092854139107
      0.2846390000D+00  0.1000000000D+01
 Atom Pa1      Shell    18 P   1     bf   32 -    34         -0.833261412880          0.007879311513         -0.092854139107
      0.1005430000D+00  0.1000000000D+01
 Atom Pa1      Shell    19 P   1     bf   35 -    37         -0.833261412880          0.007879311513         -0.092854139107
      0.3019000000D-01  0.1000000000D+01
 Atom Pa1      Shell    20 D   6     bf   38 -    42         -0.833261412880          0.007879311513         -0.092854139107
      0.4481499100D+03  0.6556927566D-04
      0.1544614500D+03  0.5749921096D-03
      0.6092537700D+02  0.2279793277D-02
      0.1703209100D+02  0.6467904664D-01
      0.1001887700D+02 -0.2666929411D+00
      0.3409193000D+01  0.1128376621D+01
 Atom Pa1      Shell    21 D   1     bf   43 -    47         -0.833261412880          0.007879311513         -0.092854139107
      0.1670213000D+01  0.1000000000D+01
 Atom Pa1      Shell    22 D   1     bf   48 -    52         -0.833261412880          0.007879311513         -0.092854139107
      0.7410950000D+00  0.1000000000D+01
 Atom Pa1      Shell    23 D   1     bf   53 -    57         -0.833261412880          0.007879311513         -0.092854139107
      0.2613930000D+00  0.1000000000D+01
 Atom Pa1      Shell    24 D   1     bf   58 -    62         -0.833261412880          0.007879311513         -0.092854139107
      0.8281100000D-01  0.1000000000D+01
 Atom Pa1      Shell    25 F   5     bf   63 -    69         -0.833261412880          0.007879311513         -0.092854139107
      0.8799132700D+02  0.4766318191D-03
      0.2834019500D+02  0.4899184583D-02
      0.1244099400D+02  0.9669720755D-02
      0.3957296000D+01  0.3310292343D+00
      0.1875944000D+01  0.7275531640D+00
 Atom Pa1      Shell    26 F   1     bf   70 -    76         -0.833261412880          0.007879311513         -0.092854139107
      0.8275890000D+00  0.1000000000D+01
 Atom Pa1      Shell    27 F   1     bf   77 -    83         -0.833261412880          0.007879311513         -0.092854139107
      0.3327480000D+00  0.1000000000D+01
 Atom Pa1      Shell    28 F   1     bf   84 -    90         -0.833261412880          0.007879311513         -0.092854139107
      0.1146850000D+00  0.1000000000D+01
 Atom Pa1      Shell    29 G   1     bf   91 -    99         -0.833261412880          0.007879311513         -0.092854139107
      0.3500000000D+00  0.1000000000D+01
 Atom O2       Shell    30 S   6     bf  100 -   100         -0.523410183184         -3.931502025825         -0.188436472826
      0.2703238263D+05  0.5722733521D-03
      0.4052387139D+04  0.4435323349D-02
      0.9223272271D+03  0.2302010771D-01
      0.2612407099D+03  0.9282249067D-01
      0.8535464135D+02  0.2937850001D+00
      0.3103503524D+02  0.6740160450D+00
 Atom O2       Shell    31 S   2     bf  101 -   101         -0.523410183184         -3.931502025825         -0.188436472826
      0.1226086073D+02  0.6383993703D+00
      0.4998707601D+01  0.3953458713D+00
 Atom O2       Shell    32 S   1     bf  102 -   102         -0.523410183184         -3.931502025825         -0.188436472826
      0.1170310816D+01  0.1000000000D+01
 Atom O2       Shell    33 S   1     bf  103 -   103         -0.523410183184         -3.931502025825         -0.188436472826
      0.4647474099D+00  0.1000000000D+01
 Atom O2       Shell    34 S   1     bf  104 -   104         -0.523410183184         -3.931502025825         -0.188436472826
      0.1850453636D+00  0.1000000000D+01
 Atom O2       Shell    35 P   4     bf  105 -   107         -0.523410183184         -3.931502025825         -0.188436472826
      0.6327495480D+02  0.1201833222D-01
      0.1462704938D+02  0.8300542179D-01
      0.4450122346D+01  0.3199174393D+00
      0.1527579965D+01  0.7071554292D+00
 Atom O2       Shell    36 P   1     bf  108 -   110         -0.523410183184         -3.931502025825         -0.188436472826
      0.5293511794D+00  0.1000000000D+01
 Atom O2       Shell    37 P   1     bf  111 -   113         -0.523410183184         -3.931502025825         -0.188436472826
      0.1747842127D+00  0.1000000000D+01
 Atom O2       Shell    38 D   1     bf  114 -   118         -0.523410183184         -3.931502025825         -0.188436472826
      0.2314000000D+01  0.1000000000D+01
 Atom O2       Shell    39 D   1     bf  119 -   123         -0.523410183184         -3.931502025825         -0.188436472826
      0.6450000000D+00  0.1000000000D+01
 Atom O2       Shell    40 F   1     bf  124 -   130         -0.523410183184         -3.931502025825         -0.188436472826
      0.1428000000D+01  0.1000000000D+01
 Atom H3       Shell    41 S   3     bf  131 -   131         -0.886090586826         -5.429724784352          0.788451287541
      0.3406134100D+02  0.2543930721D-01
      0.5123574600D+01  0.1900859489D+00
      0.1164662600D+01  0.8524411301D+00
 Atom H3       Shell    42 S   1     bf  132 -   132         -0.886090586826         -5.429724784352          0.788451287541
      0.3272304100D+00  0.1000000000D+01
 Atom H3       Shell    43 S   1     bf  133 -   133         -0.886090586826         -5.429724784352          0.788451287541
      0.1030724100D+00  0.1000000000D+01
 Atom H3       Shell    44 P   1     bf  134 -   136         -0.886090586826         -5.429724784352          0.788451287541
      0.8000000000D+00  0.1000000000D+01
 Atom O4       Shell    45 S   6     bf  137 -   137         -4.339273757455         -0.035129524408         -1.989758612490
      0.2703238263D+05  0.5722733521D-03
      0.4052387139D+04  0.4435323349D-02
      0.9223272271D+03  0.2302010771D-01
      0.2612407099D+03  0.9282249067D-01
      0.8535464135D+02  0.2937850001D+00
      0.3103503524D+02  0.6740160450D+00
 Atom O4       Shell    46 S   2     bf  138 -   138         -4.339273757455         -0.035129524408         -1.989758612490
      0.1226086073D+02  0.6383993703D+00
      0.4998707601D+01  0.3953458713D+00
 Atom O4       Shell    47 S   1     bf  139 -   139         -4.339273757455         -0.035129524408         -1.989758612490
      0.1170310816D+01  0.1000000000D+01
 Atom O4       Shell    48 S   1     bf  140 -   140         -4.339273757455         -0.035129524408         -1.989758612490
      0.4647474099D+00  0.1000000000D+01
 Atom O4       Shell    49 S   1     bf  141 -   141         -4.339273757455         -0.035129524408         -1.989758612490
      0.1850453636D+00  0.1000000000D+01
 Atom O4       Shell    50 P   4     bf  142 -   144         -4.339273757455         -0.035129524408         -1.989758612490
      0.6327495480D+02  0.1201833222D-01
      0.1462704938D+02  0.8300542179D-01
      0.4450122346D+01  0.3199174393D+00
      0.1527579965D+01  0.7071554292D+00
 Atom O4       Shell    51 P   1     bf  145 -   147         -4.339273757455         -0.035129524408         -1.989758612490
      0.5293511794D+00  0.1000000000D+01
 Atom O4       Shell    52 P   1     bf  148 -   150         -4.339273757455         -0.035129524408         -1.989758612490
      0.1747842127D+00  0.1000000000D+01
 Atom O4       Shell    53 D   1     bf  151 -   155         -4.339273757455         -0.035129524408         -1.989758612490
      0.2314000000D+01  0.1000000000D+01
 Atom O4       Shell    54 D   1     bf  156 -   160         -4.339273757455         -0.035129524408         -1.989758612490
      0.6450000000D+00  0.1000000000D+01
 Atom O4       Shell    55 F   1     bf  161 -   167         -4.339273757455         -0.035129524408         -1.989758612490
      0.1428000000D+01  0.1000000000D+01
 Atom H5       Shell    56 S   3     bf  168 -   168         -5.547687051496         -1.269418469656         -2.570820432266
      0.3406134100D+02  0.2543930721D-01
      0.5123574600D+01  0.1900859489D+00
      0.1164662600D+01  0.8524411301D+00
 Atom H5       Shell    57 S   1     bf  169 -   169         -5.547687051496         -1.269418469656         -2.570820432266
      0.3272304100D+00  0.1000000000D+01
 Atom H5       Shell    58 S   1     bf  170 -   170         -5.547687051496         -1.269418469656         -2.570820432266
      0.1030724100D+00  0.1000000000D+01
 Atom H5       Shell    59 P   1     bf  171 -   173         -5.547687051496         -1.269418469656         -2.570820432266
      0.8000000000D+00  0.1000000000D+01
 Atom O6       Shell    60 S   6     bf  174 -   174         -1.983922332845         -0.036149010264          3.674979664801
      0.2703238263D+05  0.5722733521D-03
      0.4052387139D+04  0.4435323349D-02
      0.9223272271D+03  0.2302010771D-01
      0.2612407099D+03  0.9282249067D-01
      0.8535464135D+02  0.2937850001D+00
      0.3103503524D+02  0.6740160450D+00
 Atom O6       Shell    61 S   2     bf  175 -   175         -1.983922332845         -0.036149010264          3.674979664801
      0.1226086073D+02  0.6383993703D+00
      0.4998707601D+01  0.3953458713D+00
 Atom O6       Shell    62 S   1     bf  176 -   176         -1.983922332845         -0.036149010264          3.674979664801
      0.1170310816D+01  0.1000000000D+01
 Atom O6       Shell    63 S   1     bf  177 -   177         -1.983922332845         -0.036149010264          3.674979664801
      0.4647474099D+00  0.1000000000D+01
 Atom O6       Shell    64 S   1     bf  178 -   178         -1.983922332845         -0.036149010264          3.674979664801
      0.1850453636D+00  0.1000000000D+01
 Atom O6       Shell    65 P   4     bf  179 -   181         -1.983922332845         -0.036149010264          3.674979664801
      0.6327495480D+02  0.1201833222D-01
      0.1462704938D+02  0.8300542179D-01
      0.4450122346D+01  0.3199174393D+00
      0.1527579965D+01  0.7071554292D+00
 Atom O6       Shell    66 P   1     bf  182 -   184         -1.983922332845         -0.036149010264          3.674979664801
      0.5293511794D+00  0.1000000000D+01
 Atom O6       Shell    67 P   1     bf  185 -   187         -1.983922332845         -0.036149010264          3.674979664801
      0.1747842127D+00  0.1000000000D+01
 Atom O6       Shell    68 D   1     bf  188 -   192         -1.983922332845         -0.036149010264          3.674979664801
      0.2314000000D+01  0.1000000000D+01
 Atom O6       Shell    69 D   1     bf  193 -   197         -1.983922332845         -0.036149010264          3.674979664801
      0.6450000000D+00  0.1000000000D+01
 Atom O6       Shell    70 F   1     bf  198 -   204         -1.983922332845         -0.036149010264          3.674979664801
      0.1428000000D+01  0.1000000000D+01
 Atom H7       Shell    71 S   3     bf  205 -   205         -2.315077563733          0.835013516515          5.237871399739
      0.3406134100D+02  0.2543930721D-01
      0.5123574600D+01  0.1900859489D+00
      0.1164662600D+01  0.8524411301D+00
 Atom H7       Shell    72 S   1     bf  206 -   206         -2.315077563733          0.835013516515          5.237871399739
      0.3272304100D+00  0.1000000000D+01
 Atom H7       Shell    73 S   1     bf  207 -   207         -2.315077563733          0.835013516515          5.237871399739
      0.1030724100D+00  0.1000000000D+01
 Atom H7       Shell    74 P   1     bf  208 -   210         -2.315077563733          0.835013516515          5.237871399739
      0.8000000000D+00  0.1000000000D+01
 Atom O8       Shell    75 S   6     bf  211 -   211         -0.606409344654          3.943707879938         -0.249801068457
      0.2703238263D+05  0.5722733521D-03
      0.4052387139D+04  0.4435323349D-02
      0.9223272271D+03  0.2302010771D-01
      0.2612407099D+03  0.9282249067D-01
      0.8535464135D+02  0.2937850001D+00
      0.3103503524D+02  0.6740160450D+00
 Atom O8       Shell    76 S   2     bf  212 -   212         -0.606409344654          3.943707879938         -0.249801068457
      0.1226086073D+02  0.6383993703D+00
      0.4998707601D+01  0.3953458713D+00
 Atom O8       Shell    77 S   1     bf  213 -   213         -0.606409344654          3.943707879938         -0.249801068457
      0.1170310816D+01  0.1000000000D+01
 Atom O8       Shell    78 S   1     bf  214 -   214         -0.606409344654          3.943707879938         -0.249801068457
      0.4647474099D+00  0.1000000000D+01
 Atom O8       Shell    79 S   1     bf  215 -   215         -0.606409344654          3.943707879938         -0.249801068457
      0.1850453636D+00  0.1000000000D+01
 Atom O8       Shell    80 P   4     bf  216 -   218         -0.606409344654          3.943707879938         -0.249801068457
      0.6327495480D+02  0.1201833222D-01
      0.1462704938D+02  0.8300542179D-01
      0.4450122346D+01  0.3199174393D+00
      0.1527579965D+01  0.7071554292D+00
 Atom O8       Shell    81 P   1     bf  219 -   221         -0.606409344654          3.943707879938         -0.249801068457
      0.5293511794D+00  0.1000000000D+01
 Atom O8       Shell    82 P   1     bf  222 -   224         -0.606409344654          3.943707879938         -0.249801068457
      0.1747842127D+00  0.1000000000D+01
 Atom O8       Shell    83 D   1     bf  225 -   229         -0.606409344654          3.943707879938         -0.249801068457
      0.2314000000D+01  0.1000000000D+01
 Atom O8       Shell    84 D   1     bf  230 -   234         -0.606409344654          3.943707879938         -0.249801068457
      0.6450000000D+00  0.1000000000D+01
 Atom O8       Shell    85 F   1     bf  235 -   241         -0.606409344654          3.943707879938         -0.249801068457
      0.1428000000D+01  0.1000000000D+01
 Atom H9       Shell    86 S   3     bf  242 -   242         -1.563840254079          5.493173499339         -0.351563506043
      0.3406134100D+02  0.2543930721D-01
      0.5123574600D+01  0.1900859489D+00
      0.1164662600D+01  0.8524411301D+00
 Atom H9       Shell    87 S   1     bf  243 -   243         -1.563840254079          5.493173499339         -0.351563506043
      0.3272304100D+00  0.1000000000D+01
 Atom H9       Shell    88 S   1     bf  244 -   244         -1.563840254079          5.493173499339         -0.351563506043
      0.1030724100D+00  0.1000000000D+01
 Atom H9       Shell    89 P   1     bf  245 -   247         -1.563840254079          5.493173499339         -0.351563506043
      0.8000000000D+00  0.1000000000D+01
 Atom O10      Shell    90 S   6     bf  248 -   248          3.456166822246         -0.021813724504         -2.172610011835
      0.2703238263D+05  0.5722733521D-03
      0.4052387139D+04  0.4435323349D-02
      0.9223272271D+03  0.2302010771D-01
      0.2612407099D+03  0.9282249067D-01
      0.8535464135D+02  0.2937850001D+00
      0.3103503524D+02  0.6740160450D+00
 Atom O10      Shell    91 S   2     bf  249 -   249          3.456166822246         -0.021813724504         -2.172610011835
      0.1226086073D+02  0.6383993703D+00
      0.4998707601D+01  0.3953458713D+00
 Atom O10      Shell    92 S   1     bf  250 -   250          3.456166822246         -0.021813724504         -2.172610011835
      0.1170310816D+01  0.1000000000D+01
 Atom O10      Shell    93 S   1     bf  251 -   251          3.456166822246         -0.021813724504         -2.172610011835
      0.4647474099D+00  0.1000000000D+01
 Atom O10      Shell    94 S   1     bf  252 -   252          3.456166822246         -0.021813724504         -2.172610011835
      0.1850453636D+00  0.1000000000D+01
 Atom O10      Shell    95 P   4     bf  253 -   255          3.456166822246         -0.021813724504         -2.172610011835
      0.6327495480D+02  0.1201833222D-01
      0.1462704938D+02  0.8300542179D-01
      0.4450122346D+01  0.3199174393D+00
      0.1527579965D+01  0.7071554292D+00
 Atom O10      Shell    96 P   1     bf  256 -   258          3.456166822246         -0.021813724504         -2.172610011835
      0.5293511794D+00  0.1000000000D+01
 Atom O10      Shell    97 P   1     bf  259 -   261          3.456166822246         -0.021813724504         -2.172610011835
      0.1747842127D+00  0.1000000000D+01
 Atom O10      Shell    98 D   1     bf  262 -   266          3.456166822246         -0.021813724504         -2.172610011835
      0.2314000000D+01  0.1000000000D+01
 Atom O10      Shell    99 D   1     bf  267 -   271          3.456166822246         -0.021813724504         -2.172610011835
      0.6450000000D+00  0.1000000000D+01
 Atom O10      Shell   100 F   1     bf  272 -   278          3.456166822246         -0.021813724504         -2.172610011835
      0.1428000000D+01  0.1000000000D+01
 Atom O11      Shell   101 S   6     bf  279 -   279          3.514506749146          0.046330063075          1.907337874478
      0.2703238263D+05  0.5722733521D-03
      0.4052387139D+04  0.4435323349D-02
      0.9223272271D+03  0.2302010771D-01
      0.2612407099D+03  0.9282249067D-01
      0.8535464135D+02  0.2937850001D+00
      0.3103503524D+02  0.6740160450D+00
 Atom O11      Shell   102 S   2     bf  280 -   280          3.514506749146          0.046330063075          1.907337874478
      0.1226086073D+02  0.6383993703D+00
      0.4998707601D+01  0.3953458713D+00
 Atom O11      Shell   103 S   1     bf  281 -   281          3.514506749146          0.046330063075          1.907337874478
      0.1170310816D+01  0.1000000000D+01
 Atom O11      Shell   104 S   1     bf  282 -   282          3.514506749146          0.046330063075          1.907337874478
      0.4647474099D+00  0.1000000000D+01
 Atom O11      Shell   105 S   1     bf  283 -   283          3.514506749146          0.046330063075          1.907337874478
      0.1850453636D+00  0.1000000000D+01
 Atom O11      Shell   106 P   4     bf  284 -   286          3.514506749146          0.046330063075          1.907337874478
      0.6327495480D+02  0.1201833222D-01
      0.1462704938D+02  0.8300542179D-01
      0.4450122346D+01  0.3199174393D+00
      0.1527579965D+01  0.7071554292D+00
 Atom O11      Shell   107 P   1     bf  287 -   289          3.514506749146          0.046330063075          1.907337874478
      0.5293511794D+00  0.1000000000D+01
 Atom O11      Shell   108 P   1     bf  290 -   292          3.514506749146          0.046330063075          1.907337874478
      0.1747842127D+00  0.1000000000D+01
 Atom O11      Shell   109 D   1     bf  293 -   297          3.514506749146          0.046330063075          1.907337874478
      0.2314000000D+01  0.1000000000D+01
 Atom O11      Shell   110 D   1     bf  298 -   302          3.514506749146          0.046330063075          1.907337874478
      0.6450000000D+00  0.1000000000D+01
 Atom O11      Shell   111 F   1     bf  303 -   309          3.514506749146          0.046330063075          1.907337874478
      0.1428000000D+01  0.1000000000D+01
 Atom N12      Shell   112 S   6     bf  310 -   310          4.782277468017          0.003987460495         -0.149470216852
      0.1973080065D+05  0.5862640263D-03
      0.2957895874D+04  0.4542882059D-02
      0.6732213360D+03  0.2355841345D-01
      0.1906824949D+03  0.9470919329D-01
      0.6229544190D+02  0.2971978491D+00
      0.2265416118D+02  0.6691624690D+00
 Atom N12      Shell   113 S   2     bf  311 -   311          4.782277468017          0.003987460495         -0.149470216852
      0.8979147743D+01  0.6459668363D+00
      0.3686300237D+01  0.3870057439D+00
 Atom N12      Shell   114 S   1     bf  312 -   312          4.782277468017          0.003987460495         -0.149470216852
      0.8466007680D+00  0.1000000000D+01
 Atom N12      Shell   115 S   1     bf  313 -   313          4.782277468017          0.003987460495         -0.149470216852
      0.3364713377D+00  0.1000000000D+01
 Atom N12      Shell   116 S   1     bf  314 -   314          4.782277468017          0.003987460495         -0.149470216852
      0.1364765367D+00  0.1000000000D+01
 Atom N12      Shell   117 P   4     bf  315 -   317          4.782277468017          0.003987460495         -0.149470216852
      0.4920038051D+02  0.1144882510D-01
      0.1134679054D+02  0.7842233797D-01
      0.3427397241D+01  0.3081809474D+00
      0.1178552513D+01  0.7202719637D+00
 Atom N12      Shell   118 P   1     bf  318 -   320          4.782277468017          0.003987460495         -0.149470216852
      0.4164220497D+00  0.1000000000D+01
 Atom N12      Shell   119 P   1     bf  321 -   323          4.782277468017          0.003987460495         -0.149470216852
      0.1426082601D+00  0.1000000000D+01
 Atom N12      Shell   120 D   1     bf  324 -   328          4.782277468017          0.003987460495         -0.149470216852
      0.1654000000D+01  0.1000000000D+01
 Atom N12      Shell   121 D   1     bf  329 -   333          4.782277468017          0.003987460495         -0.149470216852
      0.4690000000D+00  0.1000000000D+01
 Atom N12      Shell   122 F   1     bf  334 -   340          4.782277468017          0.003987460495         -0.149470216852
      0.1093000000D+01  0.1000000000D+01
 Atom O13      Shell   123 S   6     bf  341 -   341          7.065284765759         -0.012190324637         -0.182701445204
      0.2703238263D+05  0.5722733521D-03
      0.4052387139D+04  0.4435323349D-02
      0.9223272271D+03  0.2302010771D-01
      0.2612407099D+03  0.9282249067D-01
      0.8535464135D+02  0.2937850001D+00
      0.3103503524D+02  0.6740160450D+00
 Atom O13      Shell   124 S   2     bf  342 -   342          7.065284765759         -0.012190324637         -0.182701445204
      0.1226086073D+02  0.6383993703D+00
      0.4998707601D+01  0.3953458713D+00
 Atom O13      Shell   125 S   1     bf  343 -   343          7.065284765759         -0.012190324637         -0.182701445204
      0.1170310816D+01  0.1000000000D+01
 Atom O13      Shell   126 S   1     bf  344 -   344          7.065284765759         -0.012190324637         -0.182701445204
      0.4647474099D+00  0.1000000000D+01
 Atom O13      Shell   127 S   1     bf  345 -   345          7.065284765759         -0.012190324637         -0.182701445204
      0.1850453636D+00  0.1000000000D+01
 Atom O13      Shell   128 P   4     bf  346 -   348          7.065284765759         -0.012190324637         -0.182701445204
      0.6327495480D+02  0.1201833222D-01
      0.1462704938D+02  0.8300542179D-01
      0.4450122346D+01  0.3199174393D+00
      0.1527579965D+01  0.7071554292D+00
 Atom O13      Shell   129 P   1     bf  349 -   351          7.065284765759         -0.012190324637         -0.182701445204
      0.5293511794D+00  0.1000000000D+01
 Atom O13      Shell   130 P   1     bf  352 -   354          7.065284765759         -0.012190324637         -0.182701445204
      0.1747842127D+00  0.1000000000D+01
 Atom O13      Shell   131 D   1     bf  355 -   359          7.065284765759         -0.012190324637         -0.182701445204
      0.2314000000D+01  0.1000000000D+01
 Atom O13      Shell   132 D   1     bf  360 -   364          7.065284765759         -0.012190324637         -0.182701445204
      0.6450000000D+00  0.1000000000D+01
 Atom O13      Shell   133 F   1     bf  365 -   371          7.065284765759         -0.012190324637         -0.182701445204
      0.1428000000D+01  0.1000000000D+01
 Effective core potential in the form of general ECP input:
      1 0
 Pa1-ECP   5 60
 H component
  1
  2        1.0000000        0.00000000    0.00000000
 S-H projection
  1
  2       15.2691737      475.47573283    0.00000000
 P-H projection
  1
  2        9.9577370      207.66485962    0.00000000
 D-H projection
  1
  2        8.9431413      156.67411988    0.00000000
 F-H projection
  1
  2        7.0104666       67.98223685    0.00000000
 G-H projection
  1
  2       12.2010560      -57.63059989    0.00000000
 
 There are   434 symmetry adapted cartesian basis functions of A   symmetry.
 There are   371 symmetry adapted basis functions of A   symmetry.
   371 basis functions,   648 primitive gaussians,   434 cartesian basis functions
    49 alpha electrons       49 beta electrons
       nuclear repulsion energy       807.9004403766 Hartrees.
 IExCor=  404 DFT=T Ex=B Corr=P86 ExCW=0 ScaHFX=  0.000000
 ScaDFX=  1.000000  1.000000  1.000000  1.000000 ScalE2=  1.000000  1.000000
 IRadAn=      5 IRanWt=     -1 IRanGd=            0 ICorTp=0 IEmpDi=  4
 NAtoms=   13 NActive=   13 NUniq=   13 SFac= 1.00D+00 NAtFMM=   60 NAOKFM=F Big=F
 Integral buffers will be    131072 words long.
 Raffenetti 2 integral format.
 Two-electron integral symmetry is turned on.
 Leave Link  301 at Tue Jul  4 11:34:04 2023, MaxMem=  2147483648 cpu:               0.7 elap:               0.1
 (Enter /home/pcmt/gaussian/g16.C.01/g16/l302.exe)
 NPDir=0 NMtPBC=     1 NCelOv=     1 NCel=       1 NClECP=     1 NCelD=      1
         NCelK=      1 NCelE2=     1 NClLst=     1 CellRange=     0.0.
 One-electron integrals computed using PRISM.
 One-electron integral symmetry used in STVInt
   1 Symmetry operations used in ECPInt.
 ECPInt:  NShTT=    8911 NPrTT=   26794 LenC2=    8326 LenP2D=   18646.
 LDataN:  DoStor=T MaxTD1= 9 Len=  602
 NBasis=   371 RedAO= T EigKep=  6.21D-04  NBF=   371
 NBsUse=   371 1.00D-06 EigRej= -1.00D+00 NBFU=   371
 Precomputing XC quadrature grid using
 IXCGrd= 4 IRadAn=           5 IRanWt=          -1 IRanGd=           0 AccXCQ= 0.00D+00.
 Defaulting to unpruned grid for atomic number  91.
 Generated NRdTot=       0 NPtTot=           0 NUsed=           0 NTot=          32
 NSgBfM=   426   426   426   426   426 MxSgAt=    13 MxSgA2=    13.
 Leave Link  302 at Tue Jul  4 11:34:05 2023, MaxMem=  2147483648 cpu:               7.5 elap:               1.0
 (Enter /home/pcmt/gaussian/g16.C.01/g16/l303.exe)
 DipDrv:  MaxL=1.
 Leave Link  303 at Tue Jul  4 11:34:05 2023, MaxMem=  2147483648 cpu:               0.6 elap:               0.1
 (Enter /home/pcmt/gaussian/g16.C.01/g16/l401.exe)
 ExpMin= 2.32D-02 ExpMax= 2.70D+04 ExpMxC= 1.20D+04 IAcc=3 IRadAn=         5 AccDes= 0.00D+00
 Harris functional with IExCor=  404 and IRadAn=       5 diagonalized for initial guess.
 HarFok:  IExCor=  404 AccDes= 0.00D+00 IRadAn=         5 IDoV= 1 UseB2=F ITyADJ=14
 ICtDFT=  3500011 ScaDFX=  1.000000  1.000000  1.000000  1.000000
 Defaulting to unpruned grid for atomic number  91.
 FoFCou: FMM=F IPFlag=           0 FMFlag=      100000 FMFlg1=           0
         NFxFlg=           0 DoJE=T BraDBF=F KetDBF=T FulRan=T
         wScrn=  0.000000 ICntrl=       500 IOpCl=  0 I1Cent=   200000004 NGrid=           0
         NMat0=    1 NMatS0=      1 NMatT0=    0 NMatD0=    1 NMtDS0=    0 NMtDT0=    0
 Petite list used in FoFCou.
 Harris En= -1027.31644550493    
 JPrj=0 DoOrth=F DoCkMO=F.
 Leave Link  401 at Tue Jul  4 11:34:09 2023, MaxMem=  2147483648 cpu:              24.7 elap:               3.1
 (Enter /home/pcmt/gaussian/g16.C.01/g16/l502.exe)
 Integral symmetry usage will be decided dynamically.
 Closed shell SCF:
 Using DIIS extrapolation, IDIIS=  1040.
 NGot=  2147483648 LenX=  2147099488 LenY=  2146910691
 Requested convergence on RMS density matrix=1.00D-08 within 100 cycles.
 Requested convergence on MAX density matrix=1.00D-06.
 Requested convergence on             energy=1.00D-06.
 No special actions if energy rises.
 Fock matrices will be formed incrementally for  20 cycles.

 Cycle   1  Pass 1  IDiag  1:
 FoFJK:  IHMeth= 1 ICntrl=     500 DoSepK=F KAlg= 0 I1Cent=           0 FoldK=F
 IRaf= 890000000 NMat=       1 IRICut=       1 DoRegI=T DoRafI=F ISym2E= 0 IDoP0=0 IntGTp=1.
 FoFCou: FMM=F IPFlag=           0 FMFlag=      100000 FMFlg1=           0
         NFxFlg=           0 DoJE=T BraDBF=F KetDBF=F FulRan=T
         wScrn=  0.000000 ICntrl=       500 IOpCl=  0 I1Cent=           0 NGrid=           0
         NMat0=    1 NMatS0=      1 NMatT0=    0 NMatD0=    1 NMtDS0=    0 NMtDT0=    0
 Symmetry not used in FoFCou.
 Defaulting to unpruned grid for atomic number  91.
 Defaulting to unpruned grid for atomic number  91.
 Defaulting to unpruned grid for atomic number  91.
 Defaulting to unpruned grid for atomic number  91.
 Defaulting to unpruned grid for atomic number  91.
 Defaulting to unpruned grid for atomic number  91.
 Defaulting to unpruned grid for atomic number  91.
 Defaulting to unpruned grid for atomic number  91.
 E= -1024.64367860843    
 DIIS: error= 5.21D-02 at cycle   1 NSaved=   1.
 NSaved= 1 IEnMin= 1 EnMin= -1024.64367860843     IErMin= 1 ErrMin= 5.21D-02
 ErrMax= 5.21D-02  0.00D+00 EMaxC= 1.00D-01 BMatC= 1.72D+00 BMatP= 1.72D+00
 IDIUse=3 WtCom= 4.79D-01 WtEn= 5.21D-01
 Coeff-Com:  0.100D+01
 Coeff-En:   0.100D+01
 Coeff:      0.100D+01
 Gap=    -0.016 Goal=   None    Shift=    0.000
 GapD=   -0.016 DampG=0.250 DampE=0.250 DampFc=0.1250 IDamp=-1.
 Damping current iteration by 1.25D-01
 RMSDP=1.11D-02 MaxDP=1.38D+00              OVMax= 9.93D-01

 Cycle   2  Pass 1  IDiag  1:
 RMSU=  1.36D-03    CP:  1.01D+00
 E= -1024.71484262993     Delta-E=       -0.071164021499 Rises=F Damp=T
 DIIS: error= 3.01D-02 at cycle   2 NSaved=   2.
 NSaved= 2 IEnMin= 2 EnMin= -1024.71484262993     IErMin= 2 ErrMin= 3.01D-02
 ErrMax= 3.01D-02  0.00D+00 EMaxC= 1.00D-01 BMatC= 2.87D-01 BMatP= 1.72D+00
 IDIUse=3 WtCom= 6.99D-01 WtEn= 3.01D-01
 Coeff-Com: -0.646D-01 0.106D+01
 Coeff-En:   0.470D+00 0.530D+00
 Coeff:      0.967D-01 0.903D+00
 Gap=     0.070 Goal=   None    Shift=    0.000
 RMSDP=3.62D-03 MaxDP=1.25D-01 DE=-7.12D-02 OVMax= 9.37D-01

 Cycle   3  Pass 1  IDiag  1:
 RMSU=  3.61D-03    CP:  1.02D+00  8.57D-01
 E= -1024.41672994543     Delta-E=        0.298112684502 Rises=F Damp=F
 DIIS: error= 6.86D-02 at cycle   3 NSaved=   3.
 NSaved= 3 IEnMin= 2 EnMin= -1024.71484262993     IErMin= 2 ErrMin= 3.01D-02
 ErrMax= 6.86D-02  0.00D+00 EMaxC= 1.00D-01 BMatC= 1.77D+00 BMatP= 2.87D-01
 IDIUse=2 WtCom= 0.00D+00 WtEn= 1.00D+00
 EnCoef did     2 forward-backward iterations
 Coeff-En:   0.255D+00 0.401D+00 0.344D+00
 Coeff:      0.255D+00 0.401D+00 0.344D+00
 Gap=     0.179 Goal=   None    Shift=    0.000
 RMSDP=6.63D-03 MaxDP=5.21D-01 DE= 2.98D-01 OVMax= 8.63D-01

 Cycle   4  Pass 1  IDiag  1:
 RMSU=  3.53D-03    CP:  1.06D+00  3.00D+00 -1.78D-02
 E= -997.548146457565     Delta-E=       26.868583487860 Rises=F Damp=F
 DIIS: error= 3.62D-01 at cycle   4 NSaved=   4.
 NSaved= 4 IEnMin= 2 EnMin= -1024.71484262993     IErMin= 2 ErrMin= 3.01D-02
 ErrMax= 3.62D-01  0.00D+00 EMaxC= 1.00D-01 BMatC= 5.27D+01 BMatP= 2.87D-01
 IDIUse=2 WtCom= 0.00D+00 WtEn= 1.00D+00
 EnCoef did   100 forward-backward iterations
 Coeff-En:   0.515D+00 0.168D-01 0.376D+00 0.919D-01
 Coeff:      0.515D+00 0.168D-01 0.376D+00 0.919D-01
 Gap=     0.034 Goal=   None    Shift=    0.000
 RMSDP=3.71D-03 MaxDP=2.40D-01 DE= 2.69D+01 OVMax= 8.11D-01

 Cycle   5  Pass 1  IDiag  1:
 RMSU=  2.14D-03    CP:  1.06D+00  2.52D+00  1.52D-01  2.86D-01
 E= -1024.11729311225     Delta-E=      -26.569146654689 Rises=F Damp=F
 DIIS: error= 1.03D-01 at cycle   5 NSaved=   5.
 NSaved= 5 IEnMin= 2 EnMin= -1024.71484262993     IErMin= 2 ErrMin= 3.01D-02
 ErrMax= 1.03D-01  0.00D+00 EMaxC= 1.00D-01 BMatC= 3.09D+00 BMatP= 2.87D-01
 IDIUse=2 WtCom= 0.00D+00 WtEn= 1.00D+00
 EnCoef did   100 forward-backward iterations
 Coeff-En:   0.423D+00 0.668D-02 0.195D+00 0.000D+00 0.376D+00
 Coeff:      0.423D+00 0.668D-02 0.195D+00 0.000D+00 0.376D+00
 Gap=     0.174 Goal=   None    Shift=    0.000
 RMSDP=2.03D-03 MaxDP=1.19D-01 DE=-2.66D+01 OVMax= 3.55D-01

 Cycle   6  Pass 1  IDiag  1:
 RMSU=  1.17D-03    CP:  1.06D+00  1.70D+00  2.65D-01  9.24D-02  5.68D-01
 E= -1025.71074778115     Delta-E=       -1.593454668898 Rises=F Damp=F
 DIIS: error= 2.30D-02 at cycle   6 NSaved=   6.
 NSaved= 6 IEnMin= 6 EnMin= -1025.71074778115     IErMin= 6 ErrMin= 2.30D-02
 ErrMax= 2.30D-02  0.00D+00 EMaxC= 1.00D-01 BMatC= 1.38D-01 BMatP= 2.87D-01
 IDIUse=3 WtCom= 7.70D-01 WtEn= 2.30D-01
 Coeff-Com: -0.256D-01 0.467D+00 0.139D+00-0.189D-01 0.115D+00 0.323D+00
 Coeff-En:   0.000D+00 0.000D+00 0.000D+00 0.000D+00 0.866D-01 0.913D+00
 Coeff:     -0.197D-01 0.360D+00 0.107D+00-0.146D-01 0.109D+00 0.458D+00
 Gap=     0.216 Goal=   None    Shift=    0.000
 RMSDP=1.09D-03 MaxDP=7.08D-02 DE=-1.59D+00 OVMax= 1.34D-01

 Cycle   7  Pass 1  IDiag  1:
 RMSU=  6.52D-04    CP:  1.05D+00  1.34D+00  3.10D-01  7.79D-02  4.67D-01
                    CP:  4.50D-01
 E= -1025.66000024145     Delta-E=        0.050747539704 Rises=F Damp=F
 DIIS: error= 1.98D-02 at cycle   7 NSaved=   7.
 NSaved= 7 IEnMin= 6 EnMin= -1025.71074778115     IErMin= 7 ErrMin= 1.98D-02
 ErrMax= 1.98D-02  0.00D+00 EMaxC= 1.00D-01 BMatC= 1.99D-01 BMatP= 1.38D-01
 IDIUse=2 WtCom= 0.00D+00 WtEn= 1.00D+00
 EnCoef did     3 forward-backward iterations
 Coeff-En:   0.000D+00 0.000D+00 0.000D+00 0.000D+00 0.101D+00 0.481D+00
 Coeff-En:   0.417D+00
 Coeff:      0.000D+00 0.000D+00 0.000D+00 0.000D+00 0.101D+00 0.481D+00
 Coeff:      0.417D+00
 Gap=     0.160 Goal=   None    Shift=    0.000
 RMSDP=1.53D-03 MaxDP=1.54D-01 DE= 5.07D-02 OVMax= 1.62D-01

 Cycle   8  Pass 1  IDiag  1:
 RMSU=  3.94D-04    CP:  1.06D+00  2.10D+00  1.82D-01  1.83D-01  8.21D-01
                    CP:  5.07D-01  5.27D-01
 E= -1025.66488326451     Delta-E=       -0.004883023061 Rises=F Damp=F
 DIIS: error= 2.40D-02 at cycle   8 NSaved=   8.
 NSaved= 8 IEnMin= 6 EnMin= -1025.71074778115     IErMin= 7 ErrMin= 1.98D-02
 ErrMax= 2.40D-02  0.00D+00 EMaxC= 1.00D-01 BMatC= 2.24D-01 BMatP= 1.38D-01
 IDIUse=2 WtCom= 0.00D+00 WtEn= 1.00D+00
 EnCoef did     2 forward-backward iterations
 Coeff-En:   0.000D+00 0.000D+00 0.000D+00 0.000D+00 0.000D+00 0.326D+00
 Coeff-En:   0.294D+00 0.379D+00
 Coeff:      0.000D+00 0.000D+00 0.000D+00 0.000D+00 0.000D+00 0.326D+00
 Coeff:      0.294D+00 0.379D+00
 Gap=     0.130 Goal=   None    Shift=    0.000
 RMSDP=7.77D-04 MaxDP=6.93D-02 DE=-4.88D-03 OVMax= 9.37D-02

 Cycle   9  Pass 1  IDiag  1:
 RMSU=  2.40D-04    CP:  1.06D+00  1.76D+00  2.28D-01  1.13D-01  6.62D-01
                    CP:  6.49D-01  6.08D-01  2.66D-01
 E= -1025.81029548316     Delta-E=       -0.145412218647 Rises=F Damp=F
 DIIS: error= 6.67D-03 at cycle   9 NSaved=   9.
 NSaved= 9 IEnMin= 9 EnMin= -1025.81029548316     IErMin= 9 ErrMin= 6.67D-03
 ErrMax= 6.67D-03  0.00D+00 EMaxC= 1.00D-01 BMatC= 1.69D-02 BMatP= 1.38D-01
 IDIUse=3 WtCom= 9.33D-01 WtEn= 6.67D-02
 Coeff-Com: -0.180D-01 0.138D-01-0.851D-03-0.124D-03-0.450D-01 0.189D+00
 Coeff-Com:  0.173D+00 0.354D+00 0.333D+00
 Coeff-En:   0.000D+00 0.000D+00 0.000D+00 0.000D+00 0.000D+00 0.000D+00
 Coeff-En:   0.000D+00 0.108D+00 0.892D+00
 Coeff:     -0.168D-01 0.128D-01-0.795D-03-0.116D-03-0.420D-01 0.177D+00
 Coeff:      0.162D+00 0.338D+00 0.371D+00
 Gap=     0.115 Goal=   None    Shift=    0.000
 RMSDP=2.50D-04 MaxDP=1.53D-02 DE=-1.45D-01 OVMax= 3.52D-02

 Cycle  10  Pass 1  IDiag  1:
 RMSU=  1.07D-04    CP:  1.06D+00  1.82D+00  2.40D-01  1.25D-01  6.76D-01
                    CP:  6.74D-01  6.39D-01  6.14D-01  4.44D-01
 E= -1025.82273312084     Delta-E=       -0.012437637688 Rises=F Damp=F
 DIIS: error= 2.08D-03 at cycle  10 NSaved=  10.
 NSaved=10 IEnMin=10 EnMin= -1025.82273312084     IErMin=10 ErrMin= 2.08D-03
 ErrMax= 2.08D-03  0.00D+00 EMaxC= 1.00D-01 BMatC= 1.48D-03 BMatP= 1.69D-02
 IDIUse=3 WtCom= 9.79D-01 WtEn= 2.08D-02
 Coeff-Com:  0.109D-01-0.200D-01-0.189D-02 0.641D-03-0.764D-02-0.616D-02
 Coeff-Com: -0.362D-01 0.316D-01 0.237D+00 0.792D+00
 Coeff-En:   0.000D+00 0.000D+00 0.000D+00 0.000D+00 0.000D+00 0.000D+00
 Coeff-En:   0.000D+00 0.000D+00 0.886D-01 0.911D+00
 Coeff:      0.107D-01-0.196D-01-0.186D-02 0.627D-03-0.748D-02-0.603D-02
 Coeff:     -0.354D-01 0.309D-01 0.234D+00 0.794D+00
 Gap=     0.106 Goal=   None    Shift=    0.000
 RMSDP=1.80D-04 MaxDP=1.36D-02 DE=-1.24D-02 OVMax= 1.64D-02

 Cycle  11  Pass 1  IDiag  1:
 RMSU=  9.47D-05    CP:  1.06D+00  1.87D+00  2.34D-01  1.28D-01  6.97D-01
                    CP:  7.05D-01  6.37D-01  6.51D-01  7.74D-01  1.86D+00
 E= -1025.82337311321     Delta-E=       -0.000639992364 Rises=F Damp=F
 DIIS: error= 1.99D-03 at cycle  11 NSaved=  11.
 NSaved=11 IEnMin=11 EnMin= -1025.82337311321     IErMin=11 ErrMin= 1.99D-03
 ErrMax= 1.99D-03  0.00D+00 EMaxC= 1.00D-01 BMatC= 2.80D-03 BMatP= 1.48D-03
 IDIUse=3 WtCom= 9.79D-01 WtEn= 2.08D-02
 EnCoef did     2 forward-backward iterations
 Coeff-Com:  0.199D-01-0.218D-01 0.427D-02 0.635D-03-0.269D-02-0.518D-01
 Coeff-Com: -0.657D-01-0.398D-01 0.155D+00 0.643D+00 0.358D+00
 Coeff-En:   0.000D+00 0.000D+00 0.000D+00 0.000D+00 0.000D+00 0.000D+00
 Coeff-En:   0.000D+00 0.000D+00 0.109D-01 0.284D+00 0.705D+00
 Coeff:      0.195D-01-0.213D-01 0.418D-02 0.622D-03-0.264D-02-0.507D-01
 Coeff:     -0.643D-01-0.389D-01 0.152D+00 0.636D+00 0.366D+00
 Gap=     0.106 Goal=   None    Shift=    0.000
 RMSDP=8.60D-05 MaxDP=6.84D-03 DE=-6.40D-04 OVMax= 8.62D-03

 Cycle  12  Pass 1  IDiag  1:
 RMSU=  3.79D-05    CP:  1.06D+00  1.87D+00  2.35D-01  1.28D-01  6.97D-01
                    CP:  7.11D-01  6.57D-01  7.05D-01  9.07D-01  2.43D+00
                    CP:  1.26D+00
 E= -1025.82381242576     Delta-E=       -0.000439312551 Rises=F Damp=F
 DIIS: error= 1.82D-03 at cycle  12 NSaved=  12.
 NSaved=12 IEnMin=12 EnMin= -1025.82381242576     IErMin=12 ErrMin= 1.82D-03
 ErrMax= 1.82D-03  0.00D+00 EMaxC= 1.00D-01 BMatC= 3.02D-03 BMatP= 1.48D-03
 IDIUse=3 WtCom= 9.79D-01 WtEn= 2.08D-02
 Coeff-Com:  0.223D-01-0.174D-01 0.845D-02 0.455D-03-0.135D-02-0.627D-01
 Coeff-Com: -0.650D-01-0.611D-01 0.115D+00 0.499D+00 0.254D+00 0.308D+00
 Coeff-En:   0.000D+00 0.000D+00 0.000D+00 0.000D+00 0.000D+00 0.000D+00
 Coeff-En:   0.000D+00 0.000D+00 0.000D+00 0.000D+00 0.000D+00 0.100D+01
 Coeff:      0.219D-01-0.170D-01 0.827D-02 0.446D-03-0.132D-02-0.614D-01
 Coeff:     -0.637D-01-0.599D-01 0.113D+00 0.488D+00 0.249D+00 0.322D+00
 Gap=     0.104 Goal=   None    Shift=    0.000
 RMSDP=3.79D-05 MaxDP=2.75D-03 DE=-4.39D-04 OVMax= 3.75D-03

 Cycle  13  Pass 1  IDiag  1:
 RMSU=  1.80D-05    CP:  1.06D+00  1.86D+00  2.36D-01  1.26D-01  6.94D-01
                    CP:  7.10D-01  6.66D-01  7.24D-01  9.67D-01  2.60D+00
                    CP:  1.41D+00  8.82D-01
 E= -1025.82434292451     Delta-E=       -0.000530498756 Rises=F Damp=F
 DIIS: error= 1.65D-03 at cycle  13 NSaved=  13.
 NSaved=13 IEnMin=13 EnMin= -1025.82434292451     IErMin=13 ErrMin= 1.65D-03
 ErrMax= 1.65D-03  0.00D+00 EMaxC= 1.00D-01 BMatC= 2.18D-03 BMatP= 1.48D-03
 IDIUse=3 WtCom= 9.79D-01 WtEn= 2.08D-02
 Coeff-Com: -0.193D-02 0.235D-02-0.284D-02 0.139D-03-0.758D-03 0.200D-01
 Coeff-Com: -0.453D-03 0.275D-01 0.192D+00 0.624D+00-0.957D+00-0.124D+01
 Coeff-Com:  0.234D+01
 Coeff-En:   0.000D+00 0.000D+00 0.000D+00 0.000D+00 0.000D+00 0.000D+00
 Coeff-En:   0.000D+00 0.000D+00 0.000D+00 0.000D+00 0.000D+00 0.000D+00
 Coeff-En:   0.100D+01
 Coeff:     -0.189D-02 0.231D-02-0.278D-02 0.136D-03-0.742D-03 0.196D-01
 Coeff:     -0.444D-03 0.270D-01 0.188D+00 0.611D+00-0.937D+00-0.122D+01
 Coeff:      0.231D+01
 Gap=     0.135 Goal=   None    Shift=    0.000
 RMSDP=1.84D-04 MaxDP=1.93D-02 DE=-5.30D-04 OVMax= 1.55D-02

 Cycle  14  Pass 1  IDiag  1:
 RMSU=  4.26D-05    CP:  1.06D+00  1.81D+00  2.38D-01  1.21D-01  6.71D-01
                    CP:  6.91D-01  6.47D-01  6.32D-01  7.69D-01  1.56D+00
                    CP:  5.61D-01  4.80D-01  1.65D+00
 E= -1025.82449614868     Delta-E=       -0.000153224168 Rises=F Damp=F
 DIIS: error= 1.02D-03 at cycle  14 NSaved=  14.
 NSaved=14 IEnMin=14 EnMin= -1025.82449614868     IErMin=14 ErrMin= 1.02D-03
 ErrMax= 1.02D-03  0.00D+00 EMaxC= 1.00D-01 BMatC= 6.27D-04 BMatP= 1.48D-03
 IDIUse=3 WtCom= 9.90D-01 WtEn= 1.02D-02
 Coeff-Com: -0.180D-02 0.219D-02-0.850D-03 0.106D-03 0.505D-03 0.990D-03
 Coeff-Com:  0.189D-03 0.107D-02 0.826D-01 0.267D+00-0.755D+00-0.850D+00
 Coeff-Com:  0.190D+01 0.351D+00
 Coeff-En:   0.000D+00 0.000D+00 0.000D+00 0.000D+00 0.000D+00 0.000D+00
 Coeff-En:   0.000D+00 0.000D+00 0.000D+00 0.000D+00 0.000D+00 0.000D+00
 Coeff-En:   0.459D+00 0.541D+00
 Coeff:     -0.179D-02 0.216D-02-0.841D-03 0.104D-03 0.499D-03 0.980D-03
 Coeff:      0.187D-03 0.106D-02 0.818D-01 0.264D+00-0.747D+00-0.841D+00
 Coeff:      0.189D+01 0.353D+00
 Gap=     0.115 Goal=   None    Shift=    0.000
 RMSDP=8.69D-05 MaxDP=6.87D-03 DE=-1.53D-04 OVMax= 8.80D-03

 Cycle  15  Pass 1  IDiag  1:
 RMSU=  1.44D-05    CP:  1.06D+00  1.82D+00  2.39D-01  1.21D-01  6.72D-01
                    CP:  6.93D-01  6.76D-01  6.85D-01  9.07D-01  2.11D+00
                    CP:  9.30D-01  6.95D-01  2.03D+00  4.57D-01
 E= -1025.82524717634     Delta-E=       -0.000751027660 Rises=F Damp=F
 DIIS: error= 6.77D-04 at cycle  15 NSaved=  15.
 NSaved=15 IEnMin=15 EnMin= -1025.82524717634     IErMin=15 ErrMin= 6.77D-04
 ErrMax= 6.77D-04  0.00D+00 EMaxC= 1.00D-01 BMatC= 2.45D-04 BMatP= 6.27D-04
 IDIUse=3 WtCom= 9.93D-01 WtEn= 6.77D-03
 Coeff-Com:  0.665D-03-0.666D-03 0.435D-03 0.186D-04 0.116D-02-0.104D-01
 Coeff-Com: -0.282D-02-0.139D-01 0.905D-02 0.184D-01-0.486D+00-0.368D+00
 Coeff-Com:  0.122D+01 0.229D+00 0.403D+00
 Coeff-En:   0.000D+00 0.000D+00 0.000D+00 0.000D+00 0.000D+00 0.000D+00
 Coeff-En:   0.000D+00 0.000D+00 0.000D+00 0.000D+00 0.000D+00 0.000D+00
 Coeff-En:   0.234D+00 0.000D+00 0.766D+00
 Coeff:      0.660D-03-0.661D-03 0.432D-03 0.185D-04 0.115D-02-0.103D-01
 Coeff:     -0.280D-02-0.138D-01 0.899D-02 0.183D-01-0.482D+00-0.366D+00
 Coeff:      0.121D+01 0.227D+00 0.406D+00
 Gap=     0.115 Goal=   None    Shift=    0.000
 RMSDP=9.39D-05 MaxDP=7.21D-03 DE=-7.51D-04 OVMax= 1.04D-02

 Cycle  16  Pass 1  IDiag  1:
 RMSU=  6.37D-06    CP:  1.06D+00  1.83D+00  2.41D-01  1.21D-01  6.76D-01
                    CP:  6.98D-01  6.96D-01  7.35D-01  1.05D+00  2.72D+00
                    CP:  1.37D+00  1.20D+00  2.32D+00  2.69D-01  1.35D-01
 E= -1025.82558047080     Delta-E=       -0.000333294456 Rises=F Damp=F
 DIIS: error= 1.58D-04 at cycle  16 NSaved=  16.
 NSaved=16 IEnMin=16 EnMin= -1025.82558047080     IErMin=16 ErrMin= 1.58D-04
 ErrMax= 1.58D-04  0.00D+00 EMaxC= 1.00D-01 BMatC= 2.15D-05 BMatP= 2.45D-04
 IDIUse=3 WtCom= 9.98D-01 WtEn= 1.58D-03
 Coeff-Com: -0.112D-02 0.913D-03-0.492D-03-0.372D-04 0.142D-02-0.933D-03
 Coeff-Com:  0.725D-03-0.383D-02 0.250D-02-0.709D-03-0.216D+00-0.191D+00
 Coeff-Com:  0.514D+00 0.116D+00 0.276D+00 0.503D+00
 Coeff-En:   0.000D+00 0.000D+00 0.000D+00 0.000D+00 0.000D+00 0.000D+00
 Coeff-En:   0.000D+00 0.000D+00 0.000D+00 0.000D+00 0.000D+00 0.000D+00
 Coeff-En:   0.000D+00 0.000D+00 0.000D+00 0.100D+01
 Coeff:     -0.111D-02 0.911D-03-0.491D-03-0.371D-04 0.142D-02-0.932D-03
 Coeff:      0.724D-03-0.382D-02 0.249D-02-0.708D-03-0.216D+00-0.191D+00
 Coeff:      0.513D+00 0.116D+00 0.275D+00 0.504D+00
 Gap=     0.105 Goal=   None    Shift=    0.000
 RMSDP=1.79D-05 MaxDP=1.74D-03 DE=-3.33D-04 OVMax= 1.83D-03

 Cycle  17  Pass 1  IDiag  1:
 RMSU=  1.58D-06    CP:  1.06D+00  1.82D+00  2.40D-01  1.21D-01  6.75D-01
                    CP:  6.98D-01  6.90D-01  7.24D-01  1.03D+00  2.62D+00
                    CP:  1.29D+00  1.12D+00  2.41D+00  3.61D-01  3.34D-01
                    CP:  3.85D-01
 E= -1025.82559515587     Delta-E=       -0.000014685071 Rises=F Damp=F
 DIIS: error= 3.17D-05 at cycle  17 NSaved=  17.
 NSaved=17 IEnMin=17 EnMin= -1025.82559515587     IErMin=17 ErrMin= 3.17D-05
 ErrMax= 3.17D-05  0.00D+00 EMaxC= 1.00D-01 BMatC= 7.87D-07 BMatP= 2.15D-05
 IDIUse=1 WtCom= 1.00D+00 WtEn= 0.00D+00
 Coeff-Com: -0.311D-03 0.255D-03-0.101D-03-0.708D-05 0.438D-04 0.418D-03
 Coeff-Com: -0.363D-04 0.207D-02-0.220D-02-0.136D-01-0.322D-01-0.358D-01
 Coeff-Com:  0.734D-01 0.252D-01 0.783D-01 0.220D+00 0.684D+00
 Coeff:     -0.311D-03 0.255D-03-0.101D-03-0.708D-05 0.438D-04 0.418D-03
 Coeff:     -0.363D-04 0.207D-02-0.220D-02-0.136D-01-0.322D-01-0.358D-01
 Coeff:      0.734D-01 0.252D-01 0.783D-01 0.220D+00 0.684D+00
 Gap=     0.104 Goal=   None    Shift=    0.000
 RMSDP=2.93D-06 MaxDP=1.91D-04 DE=-1.47D-05 OVMax= 2.85D-04

 Cycle  18  Pass 1  IDiag  1:
 RMSU=  8.38D-07    CP:  1.06D+00  1.82D+00  2.40D-01  1.21D-01  6.75D-01
                    CP:  6.98D-01  6.91D-01  7.27D-01  1.04D+00  2.63D+00
                    CP:  1.30D+00  1.14D+00  2.44D+00  3.61D-01  3.24D-01
                    CP:  4.56D-01  5.37D-01
 E= -1025.82559551361     Delta-E=       -0.000000357737 Rises=F Damp=F
 DIIS: error= 1.91D-05 at cycle  18 NSaved=  18.
 NSaved=18 IEnMin=18 EnMin= -1025.82559551361     IErMin=18 ErrMin= 1.91D-05
 ErrMax= 1.91D-05  0.00D+00 EMaxC= 1.00D-01 BMatC= 2.29D-07 BMatP= 7.87D-07
 IDIUse=1 WtCom= 1.00D+00 WtEn= 0.00D+00
 Coeff-Com: -0.148D-03 0.117D-03-0.413D-04-0.273D-05-0.793D-04 0.328D-03
 Coeff-Com: -0.162D-03 0.192D-02-0.169D-02-0.983D-02-0.117D-01-0.168D-01
 Coeff-Com:  0.277D-01 0.145D-01 0.457D-01 0.129D+00 0.495D+00 0.326D+00
 Coeff:     -0.148D-03 0.117D-03-0.413D-04-0.273D-05-0.793D-04 0.328D-03
 Coeff:     -0.162D-03 0.192D-02-0.169D-02-0.983D-02-0.117D-01-0.168D-01
[...]
  60         V                -0.004252          1.346842
  61         V                 0.006595          1.305959
  62         V                 0.010857          1.140200
  63         V                 0.015469          1.376407
  64         V                 0.019397          1.531274
  65         V                 0.031222          1.536330
  66         V                 0.041227          2.342131
  67         V                 0.054269          1.357866
  68         V                 0.102545          4.719464
  69         V                 0.104414          1.855572
  70         V                 0.109406          1.421245
  71         V                 0.132416          4.254761
  72         V                 0.141323          2.641988
  73         V                 0.201198          1.367098
  74         V                 0.213035          1.716892
  75         V                 0.229079          2.966492
  76         V                 0.231766          1.221127
  77         V                 0.243602          1.754870
  78         V                 0.254505          1.622542
  79         V                 0.257197          1.472445
  80         V                 0.265996          1.748680
  81         V                 0.270596          1.669917
  82         V                 0.285054          1.332450
  83         V                 0.297723          1.682478
  84         V                 0.308930          1.875142
  85         V                 0.324454          1.279659
  86         V                 0.341403          1.911108
  87         V                 0.355331          2.317925
  88         V                 0.360290          1.460387
  89         V                 0.376750          1.925437
  90         V                 0.382201          1.949750
  91         V                 0.408931          1.663343
  92         V                 0.423608          2.800335
  93         V                 0.431915          1.783932
  94         V                 0.441272          1.877289
  95         V                 0.449037          1.745952
  96         V                 0.452549          1.699169
  97         V                 0.459198          1.585919
  98         V                 0.472970          1.812153
  99         V                 0.479262          2.045695
 100         V                 0.497601          1.556924
 101         V                 0.504301          1.695031
 102         V                 0.511772          2.316287
 103         V                 0.521616          2.023877
 104         V                 0.522958          1.524939
 105         V                 0.540738          1.436709
 106         V                 0.547308          1.368551
 107         V                 0.549735          1.579387
 108         V                 0.568540          1.595123
 109         V                 0.583704          1.515453
 110         V                 0.602078          1.484424
 111         V                 0.609592          1.605680
 112         V                 0.622329          1.721920
 113         V                 0.655045          1.546250
 114         V                 0.665697          1.983157
 115         V                 0.711279          1.656355
 116         V                 0.728829          1.639708
 117         V                 0.740162          1.814352
 118         V                 0.769081          1.713198
 119         V                 0.801180          1.799499
 120         V                 0.815618          1.858525
 121         V                 0.826211          1.967088
 122         V                 0.857754          1.922205
 123         V                 0.901900          2.219294
 124         V                 0.908045          2.673472
 125         V                 0.941472          2.120960
 126         V                 0.947610          2.106992
 127         V                 0.960217          2.180303
 128         V                 0.973950          2.837447
 129         V                 0.995555          2.290616
 130         V                 1.024992          2.714300
 131         V                 1.045774          2.893764
 132         V                 1.065064          2.868437
 133         V                 1.070890          2.913239
 134         V                 1.107150          2.762514
 135         V                 1.110951          2.610935
 136         V                 1.119987          2.589218
 137         V                 1.140534          2.838619
 138         V                 1.149485          2.636031
 139         V                 1.157030          2.683360
 140         V                 1.171600          2.771488
 141         V                 1.172511          2.747779
 142         V                 1.220933          2.714068
 143         V                 1.259798          2.366415
 144         V                 1.283275          2.847987
 145         V                 1.305895          2.921027
 146         V                 1.314292          2.845443
 147         V                 1.326686          3.112597
 148         V                 1.349138          2.766058
 149         V                 1.364260          2.752799
 150         V                 1.379052          2.630675
 151         V                 1.387176          3.174908
 152         V                 1.413498          2.649806
 153         V                 1.423989          2.860411
 154         V                 1.443261          2.450333
 155         V                 1.460483          3.085651
 156         V                 1.465627          2.636920
 157         V                 1.486766          3.285918
 158         V                 1.508535          2.912532
 159         V                 1.527737          3.196268
 160         V                 1.534975          3.290701
 161         V                 1.579700          3.124976
 162         V                 1.595027          3.331104
 163         V                 1.605826          3.198573
 164         V                 1.620199          3.307761
 165         V                 1.634848          2.955827
 166         V                 1.669399          3.278927
 167         V                 1.685088          3.593298
 168         V                 1.692409          3.176544
 169         V                 1.703751          3.326899
 170         V                 1.722936          3.221358
 171         V                 1.733750          3.254731
 172         V                 1.745318          3.269310
 173         V                 1.760433          3.452597
 174         V                 1.774360          3.540263
 175         V                 1.783417          3.264797
 176         V                 1.807751          3.496107
 177         V                 1.826264          3.297932
 178         V                 1.868660          3.408910
 179         V                 1.873422          3.801814
 180         V                 1.899756          3.538874
 181         V                 1.917002          3.576889
 182         V                 1.951254          3.828800
 183         V                 1.966165          3.765829
 184         V                 2.024098          3.464716
 185         V                 2.047031          3.867683
 186         V                 2.063160          4.237320
 187         V                 2.094274          3.948178
 188         V                 2.114460          4.145384
 189         V                 2.135136          3.854744
 190         V                 2.148772          4.050263
 191         V                 2.162611          3.717474
 192         V                 2.173912          3.922148
 193         V                 2.198749          3.810787
 194         V                 2.207387          3.880193
 195         V                 2.223805          4.723022
 196         V                 2.252361          4.164195
 197         V                 2.257598          3.965524
 198         V                 2.275120          3.845204
 199         V                 2.328379          5.230512
 200         V                 2.341799          5.391782
 201         V                 2.379341          4.639834
 202         V                 2.437127          4.673406
 203         V                 2.466283          4.453144
 204         V                 2.497457          5.060667
 205         V                 2.505841          5.263168
 206         V                 2.513679          6.035825
 207         V                 2.556430          5.786074
 208         V                 2.593195          6.410145
 209         V                 2.601556          6.475389
 210         V                 2.607034          6.497551
 211         V                 2.632206          6.718724
 212         V                 2.638699          6.450529
 213         V                 2.650708          6.487296
 214         V                 2.670609          6.355702
 215         V                 2.685553          6.521748
 216         V                 2.691632          6.387073
 217         V                 2.699495          6.554612
 218         V                 2.741193          6.813459
 219         V                 2.757688          6.609546
 220         V                 2.775631          6.461207
 221         V                 2.897746          6.959384
 222         V                 2.916239          6.851550
 223         V                 2.976233          7.223672
 224         V                 3.004806          6.618293
 225         V                 3.055106          6.719709
 226         V                 3.077658          6.804455
 227         V                 3.106396          6.882310
 228         V                 3.153930          7.466815
 229         V                 3.436661          8.355796
 230         V                 3.451927          7.217689
 231         V                 3.482855          8.372257
 232         V                 3.552576          7.806914
 233         V                 3.586516          7.879051
 234         V                 3.645475          7.043503
 235         V                 3.672535          8.358983
 236         V                 3.682842          7.191975
 237         V                 3.707361          7.671519
 238         V                 3.752081          6.356526
 239         V                 3.755706          5.888268
 240         V                 3.781979          6.457028
 241         V                 3.810016          8.679899
 242         V                 3.859026          8.896200
 243         V                 3.905651          8.790666
 244         V                 3.929106          8.630532
 245         V                 4.029573          9.115562
 246         V                 4.039524          5.565618
 247         V                 4.083485          9.307621
 248         V                 4.089790          6.251962
 249         V                 4.138762          9.325469
 250         V                 4.196986          9.102890
 251         V                 4.403268          6.655091
 252         V                 4.467218          6.623619
 253         V                 4.475577          6.944984
 254         V                 4.508583          6.560225
 255         V                 4.539961          6.714943
 256         V                 4.833942          6.885893
 257         V                 4.944454          6.786926
 258         V                 4.959628          6.475031
 259         V                 4.993041          6.443138
 260         V                 4.994000          6.482798
 261         V                 4.997419          6.481957
 262         V                 4.999344          6.490195
 263         V                 5.000070          6.494280
 264         V                 5.003218          6.464672
 265         V                 5.005325          6.467689
 266         V                 5.008137          6.521272
 267         V                 5.010908          6.701373
 268         V                 5.015435          6.467617
 269         V                 5.019332          6.569615
 270         V                 5.025803          6.578439
 271         V                 5.031540          6.576826
 272         V                 5.040807          6.625781
 273         V                 5.061638          6.689763
 274         V                 5.071481          6.707674
 275         V                 5.086386          6.766339
 276         V                 5.094658          6.704007
 277         V                 5.109141          6.813328
 278         V                 5.120619          6.892047
 279         V                 5.129477          6.797965
 280         V                 5.138848          6.936216
 281         V                 5.158371          6.903289
 282         V                 5.284437          7.218484
 283         V                 5.300141          6.939880
 284         V                 5.314119          7.057765
 285         V                 5.321825          7.042977
 286         V                 5.332695          7.032027
 287         V                 5.347307          7.697809
 288         V                 5.359554          7.212571
 289         V                 5.381008          7.069926
 290         V                 5.402374          7.157789
 291         V                 5.416303          7.275499
 292         V                 5.429076          7.227574
 293         V                 5.435312          7.224423
 294         V                 5.497531          7.555152
 295         V                 5.794782          8.222094
 296         V                 5.798996          8.165520
 297         V                 5.967861          8.438383
 298         V                 5.999354         10.366924
 299         V                 6.082901          9.193587
 300         V                 6.089582          9.122034
 301         V                 6.094548          9.194735
 302         V                 6.114452          9.256859
 303         V                 6.135381          9.292382
 304         V                 6.141587          9.227459
 305         V                 6.158916          9.315295
 306         V                 6.171666          9.164112
 307         V                 6.188950          9.241906
 308         V                 6.195068          9.251424
 309         V                 6.201477          9.159394
 310         V                 6.234518          9.266198
 311         V                 6.234952          9.333995
 312         V                 6.241088          9.236979
 313         V                 6.268380          9.184154
 314         V                 6.289056          9.311475
 315         V                 6.310185          9.428772
 316         V                 6.375184          9.583038
 317         V                 6.392096          9.363245
 318         V                 6.421706          9.742745
 319         V                 6.428374          9.610082
 320         V                 6.442015          9.642099
 321         V                 6.481546          9.710289
 322         V                 6.493667          9.745225
 323         V                 6.503953          9.691016
 324         V                 6.594154          9.985574
 325         V                 6.618685         10.041187
 326         V                 6.654652          9.074009
 327         V                 6.672120          9.279051
 328         V                 6.685655         10.068594
 329         V                 6.706521          9.919572
 330         V                 6.737057          8.916058
 331         V                 6.749277         10.086008
 332         V                 6.791458         10.293814
 333         V                 6.948266         10.113428
 334         V                 6.974220         10.239950
 335         V                 6.992316          9.979555
 336         V                 7.001664         10.058961
 337         V                 7.022836         10.090363
 338         V                 7.093986         10.878609
 339         V                 7.121485         10.427474
 340         V                 7.137072         10.460397
 341         V                 7.306423         11.847581
 342         V                 7.324766         10.008180
 343         V                 7.417893         11.104265
 344         V                 7.446334         13.564507
 345         V                 7.448707         10.952205
 346         V                 7.508111         13.225605
 347         V                 8.153227         15.794343
 348         V                 8.202046         15.802827
 349         V                 8.318147         15.803108
 350         V                 8.606381         16.087810
 351         V                 8.892510         16.304691
 352         V                29.340155         36.088328
 353         V                29.438979         36.187338
 354         V                29.450504         36.194488
 355         V                31.830084         80.259330
 356         V                43.241739        108.616992
 357         V                43.336534        108.676010
 358         V                43.372790        108.754958
 359         V                43.409573        108.778014
 360         V                43.492492        108.921900
 361         V                43.603868        109.003079
 362         V                43.650664        109.078400
 363         V                54.080509         40.000040
 364         V                70.218974         84.017530
 365         V                70.276360         84.124521
 366         V                70.283065         84.136482
 367         V               142.640572        242.520368
 368         V               142.750870        242.659255
 369         V               142.763187        242.674799
 370         V               202.571013        130.099675
 371         V               626.076620       1034.525244
 Total kinetic energy from orbitals= 7.452925514531D+02
 No NMR shielding tensors so no spin-rotation constants.
 Leave Link  601 at Tue Jul  4 11:38:08 2023, MaxMem=  2147483648 cpu:               3.9 elap:               0.5
 (Enter /home/pcmt/gaussian/g16.C.01/g16/l9999.exe)

 Test job not archived.
 1\1\GINC-U-0-13\SP\RBP86\Gen\H4N1O7Pa1\ROOT\04-Jul-2023\0\\#p BP86/GEN
  Pseudo=Read GFInput GFPrint IOP(6/7=3) Symm=(Loose) Int=(UltraFine) G
 uess=(Harris) Scf=(NoVarAcc,MaxCycle=100,conver=8)\\pa_oh4_no3-bp86-co
 smors-deftzvp-gp.com SGP in PCM calculation\\0,1\Pa,0,0.4167124446,-0.
 0690502318,0.0773460286\O,0,1.2349656509,1.5489459368,-0.9655724891\H,
 0,1.3468693198,1.9037911011,-1.8567529221\O,0,-1.4044436141,0.94125687
 68,0.4134184959\H,0,-1.8226503428,1.769461913,0.1502523864\O,0,0.00099
 96409,-1.0925440728,-1.6908153065\H,0,-0.2490650309,-1.9004383593,-2.1
 512608542\O,0,-0.1429170305,-1.6684360585,1.2971571634\H,0,-0.88791364
 57,-2.1656811482,1.6571943638\O,0,2.4814211704,0.0993756991,1.51692504
 23\O,0,2.66343962,-1.2061114366,-0.1936812042\N,0,3.2212520042,-0.6933
 426792,0.836434661\O,0,4.3635032074,-0.9379527434,1.1452283407\\Versio
 n=ES64L-G16RevC.01\State=1-A\HF=-1025.8255958\RMSD=5.506e-09\Dipole=-1
 .9358236,0.3448527,-0.7735892\Quadrupole=-6.860576,5.0373635,1.8232125
 ,3.0494806,-2.7119906,-1.7949892\PG=C01 [X(H4N1O7Pa1)]\\@


 THE ONLY EXISTING THINGS ARE ATOMS AND EMPTY SPACE;
 ALL ELSE IS MERE OPINION. -- DEMOCRITUS OF ABDERA D. 370 B.C.
 EXPERIMENTS ARE THE ONLY MEANS OF KNOWLEDGE AT OUR DISPOSAL
 THE REST IS POETRY, IMAGINATION. -- MAX PLANCK
 Job cpu time:       0 days  0 hours 31 minutes 56.9 seconds.
 Elapsed time:       0 days  0 hours  4 minutes  4.1 seconds.
 File lengths (MBytes):  RWF=     75 Int=      0 D2E=      0 Chk=      9 Scr=      1
 Normal termination of Gaussian 16 at Tue Jul  4 11:38:08 2023.
