

 Parallel Execution: Process Information
 ==============================================================================
 Rank   Node Name                              NodeID   MyNodeRank  NodeMaster
    0   u-5-1.local                               0          0          0
    1   u-5-1.local                               0          1         -1
    2   u-5-1.local                               0          2         -1
    3   u-5-1.local                               0          3         -1
    4   u-5-1.local                               1          0          1
    5   u-5-1.local                               1          1         -1
    6   u-5-1.local                               1          2         -1
    7   u-5-1.local                               1          3         -1
 ==============================================================================


May use up to 31144MB of RAM as shared memory on node 0
May use up to 31250MB of RAM as shared memory on node 1

 *******************************************************************************
 *                                                                             *
 *  --------------------------------                                           *
 *   Amsterdam Modeling Suite (AMS)              2022.103                      *
 *  --------------------------------                                           *
 *                                               r104886 2022-06-17            *
 *                                                                             *
 *                                                                             *
 *                              =================                              *
 *                              |               |                              *
 *                              |     A M S     |                              *
 *                              |               |                              *
 *                              =================                              *
 *                                                                             *
 *                                                                             *
 *   Online information and documentation:  https://www.scm.com/support/       *
 *   E-mail:  support@scm.com   info@scm.com                                   *
 *                                                                             *
 *   Scientific publications using AMS results must be properly referenced     *
 *   See the User Manuals (or the web site) for recommended citations          *
 *   The terms and conditions of the End User License Agreement apply to       *
 *   the use of AMS, https://www.scm.com/license-terms/                        *
 *                                                                             *
 **********************  x86_64_linux_intel / intelmpi  ************************
 
 Licensed to: Dr. Val?rie Vallet / Laboratoire PhLAM UMR 8523 / Villeneuve d'Ascq Cedex / FRANCE 2023-02-21 11:49:39
 SCM User ID: u10325
  
 AMS 2022.103  RunTime: Feb27-2023 19:14:57  ShM Nodes: 2  Procs: 8

 AMS jobname: pa_oh4_cl.SR.b3lyp.tz2p.opt-freq-B21-solvation
 AMS jobid  : 633460526

 Start   directory: /home/shaaban/ams/PhD/chloride/pa_oh4_cl/solvation/B21/
 Results directory: /home/shaaban/ams/PhD/chloride/pa_oh4_cl/solvation/B21/pa_oh4_cl.SR.b3lyp.tz2p.opt-freq-B21-solvation.results/
 Scratch directory: /state/partition1/shaaban/929841.phlam-s-sakura/amstmp_pa_oh4_cl.SR.b3lyp.tz2p.opt-freq-B21-solvation_kid0.633460526/


 Communication costs MPI_COMM_WORLD:      1.754 usec per message,   0.0062 usec per 8-byte item
 Communication costs for intra-node:      0.883 usec per message,   0.0035 usec per 8-byte item

 RNG seed: -972484018 1298370106 -1647272353 118434902 883281101 -1711037644 -188777228 2146423363



                      ************************************************************************
                      *  ADF 2022.103  RunTime: Feb27-2023 19:14:57  ShM Nodes: 2  Procs: 8  *
                      ************************************************************************
  
       ***************************
       *  GEOMETRY OPTIMIZATION  *
       ***************************

Optimization Method                    Quasi Newton
Optimization Coordinates               Delocalized Coordinates
Optimize lattice                       F
 
 ------------------------------------------------------
 Convergence criteria (Hartree,Angstrom)
 ------------------------------------------------------
 Maximum gradient               0.000100000000
 Maximum rms gradient           0.000066666667
 Maximum step allowed           0.001000000000
 Maximum rms step allowed       0.000666666667
 Maximum energy change allowe   0.000010000000
 Maximum stress energy allowe   0.000500000000
 
Initial model Hessian                  Automatic Hessian
 
------------------------------------
Quasi-Newton Optimizer Parameters
------------------------------------
Hessian Update Method                  BFGS
Maximum number of steps                  250
First GDIIS cycle                          0
Maximum GDIIS vectors                      0
Trust radius (bohr)                        0.200000
Trust radius varies                        T
Constraints converged at all steps         T
Use projector                              T
 
 Rigid motions settings for: old optimizer
 Atomic rotations (x,y,z):     T T T
 Atomic translations (x,y,z):  T T T
 Tolerance:                   1.000000000000000E-006
 
--------
Geometry
--------
Formula: H4ClO4Pa
Atoms
  Index Symbol   x (angstrom)   y (angstrom)   z (angstrom)
      1     Pa     0.31601870    -0.03596975     0.02392912       adf.R=2.200
      2      O     0.99597286     1.57385139    -1.10393992       adf.R=1.517
      3      H     1.45791319     2.03173433    -1.81090750       adf.R=1.350
      4      O    -1.35292293     1.11112811     0.59658860       adf.R=1.517
      5      H    -1.74233192     1.98429424     0.50081291       adf.R=1.350
      6      O     0.38705724    -1.23691192    -1.70080400       adf.R=1.517
      7      H     0.23518854    -2.11947698    -2.04814618       adf.R=1.350
      8      O    -0.44677100    -1.64742926     1.09064091       adf.R=1.517
      9      H    -0.92220833    -2.15572125     1.75229521       adf.R=1.350
     10     Cl     2.44269163     0.03537004     1.52437945       adf.R=1.725
 
Total System Charge             0.00000
Bonding info available!
 
 
----------------
ADF Engine Input
----------------
 
 Basis
 Type TZ2P
 Core None
 End
 XC
 Hybrid B3LYP
 End
 Solvation
 Surf Delley
 Solv name=Water cav0=0.0 cav1=0.0067639
 Charged method=CONJ
 C-Mat POT
 SCF VAR ALL
 CSMRSP
 End
 NumericalQuality Good
 

 Title: *** (NO TITLE) ***

 Using automatic Hessian for delocalized coordinates.
 *** GO1_GOStep1 ***

 SOLVATION
-------------------------------------------

  The Delley construction of COSMO surface surface is calculated

       Division Level for Surface Triangles (NDIV)                  3
       Final Division Level for Triangles (NFDIV)                   1
       Radius of the Solvent (RSOL)                           1.93000 angstr
  Dielectric Constant (EPSL)                                 78.39000

       COSMO equation is solved iteratively-               conjugate-gradient

       Maximun of Iterations for Charges (NCIX)                  1000
       Criterion for Charge convergence (CCNV)                1.0E-08

  COSMO charges included variationally in SCF

       COSMO included at every SCF cycle

  Geometry-dependent empirical factor                         0.00000

  C-Matrix calculated in cspmtx

  In cspmtx, C-Matrix calculated using fitted potential

-------------------------------------------



 -------------------------------------------
  COSMO surface
  Area             =          517.898
  Volume           =          802.136
  Number of Points =         1330
 -------------------------------------------



 ======================
 RI Hartree-Fock Scheme
 ======================
  
 Fit Set Quality     : GOOD
 Threshold Quality   : GOOD
 Integration Quality : GOOD
 Response Quality    : DEFAULT
 Is Range Separated  :  F
 
 RIHartreeFock Dependency: number of modified vectors:           5
 cosmo_calcen: 0.5 (esolb+esolc) (Hartrees) =   -0.032160

 Solvation energy (screening term,uncorrected) =    -20.180398 kcal/mol

 Solvation energy (dispersion and cavitation terms) =      0.968430 kcal/mol
 Solvation Energy Contributions (Hartrees)
          esola   esolb+esolc
     0.03215951   -0.06431902
 esol last cycle   -0.03215951
  
 Hartree-Fock exchange energy:   -528.265506339208     
 cosmo_calcen: 0.5 (esolb+esolc) (Hartrees) =   -0.032159

 Solvation energy (screening term,uncorrected) =    -20.180388 kcal/mol

 Solvation energy (dispersion and cavitation terms) =      0.968430 kcal/mol
 Solvation Energy Contributions (Hartrees)
          esola   esolb+esolc
     0.03215949   -0.06431899
 esol last cycle   -0.03215949

 Energy gradients wrt nuclear displacements
 ==========================================

     Atom      Cartesian (a.u./angstrom)
                 X         Y         Z
 ----------------------------------------
     1 Pa    0.021374  0.001172  0.015423
     2 O    -0.000713 -0.001096 -0.005284
     3 H    -0.002471 -0.001629  0.005546
     4 O     0.002700  0.004688 -0.004816
     5 H     0.000304 -0.005259  0.002286
     6 O    -0.003420 -0.005115  0.003260
     7 H     0.001857  0.005532 -0.000274
     8 O    -0.005034  0.000000  0.001150
     9 H     0.004212  0.002318 -0.004051
    10 Cl   -0.018809 -0.000612 -0.013241
 ----------------------------------------
 Mulliken charges used for AMS results%charges...
 
----------------------------------------------------------------------
Geometry Convergence after Step   1       (Hartree/Angstrom,Angstrom)
----------------------------------------------------------------------
current energy                               -2.68347658 Hartree
energy change                      -2.68347658     0.00001000    F
constrained gradient max            0.02137202     0.00010000    F
constrained gradient rms            0.00713898     0.00006667    F
gradient max                        0.02137202
gradient rms                        0.00713898
cart. step max                      0.01843381     0.00100000    F
cart. step rms                      0.00754511     0.00066667    F
 
 
--------
Geometry
--------
Formula: H4ClO4Pa
Atoms
  Index Symbol   x (angstrom)   y (angstrom)   z (angstrom)
      1     Pa     0.30466310    -0.03590814     0.01601999       adf.R=2.200
      2      O     1.00557726     1.57645880    -1.09832303       adf.R=1.517
      3      H     1.47634700     2.03163798    -1.80545056       adf.R=1.350
      4      O    -1.36605767     1.10812464     0.59581856       adf.R=1.517
      5      H    -1.75159418     1.98540690     0.49556920       adf.R=1.350
      6      O     0.38163991    -1.23417753    -1.71199176       adf.R=1.517
      7      H     0.22726738    -2.12132489    -2.05405274       adf.R=1.350
      8      O    -0.43882866    -1.64887272     1.09687222       adf.R=1.517
      9      H    -0.91050351    -2.15559965     1.76693055       adf.R=1.350
     10     Cl     2.44209736     0.03512357     1.52345619       adf.R=1.725
 
Total System Charge             0.00000
Bonding info available!
 
 *** GO1_GOStep2 ***

 SOLVATION
-------------------------------------------

  The Delley construction of COSMO surface surface is calculated

       Division Level for Surface Triangles (NDIV)                  3
       Final Division Level for Triangles (NFDIV)                   1
       Radius of the Solvent (RSOL)                           1.93000 angstr
  Dielectric Constant (EPSL)                                 78.39000

       COSMO equation is solved iteratively-               conjugate-gradient

       Maximun of Iterations for Charges (NCIX)                  1000
       Criterion for Charge convergence (CCNV)                1.0E-08

  COSMO charges included variationally in SCF

       COSMO included at every SCF cycle

  Geometry-dependent empirical factor                         0.00000

  C-Matrix calculated in cspmtx

  In cspmtx, C-Matrix calculated using fitted potential

-------------------------------------------



 -------------------------------------------
  COSMO surface
  Area             =          518.892
  Volume           =          803.972
  Number of Points =         1331
 -------------------------------------------



 ======================
 RI Hartree-Fock Scheme
 ======================
  
 Fit Set Quality     : GOOD
 Threshold Quality   : GOOD
 Integration Quality : GOOD
 Response Quality    : DEFAULT
 Is Range Separated  :  F
 
 RIHartreeFock Dependency: number of modified vectors:           5
 cosmo_calcen: 0.5 (esolb+esolc) (Hartrees) =   -0.032934

 Solvation energy (screening term,uncorrected) =    -20.666135 kcal/mol

 Solvation energy (dispersion and cavitation terms) =      0.970289 kcal/mol
 Solvation Energy Contributions (Hartrees)
          esola   esolb+esolc
     0.03293358   -0.06586716
 esol last cycle   -0.03293358
  
 Hartree-Fock exchange energy:   -528.254476697738     
 cosmo_calcen: 0.5 (esolb+esolc) (Hartrees) =   -0.032934

 Solvation energy (screening term,uncorrected) =    -20.666137 kcal/mol

 Solvation energy (dispersion and cavitation terms) =      0.970289 kcal/mol
 Solvation Energy Contributions (Hartrees)
          esola   esolb+esolc
     0.03293358   -0.06586716
 esol last cycle   -0.03293358

 Energy gradients wrt nuclear displacements
 ==========================================

     Atom      Cartesian (a.u./angstrom)
                 X         Y         Z
 ----------------------------------------
     1 Pa    0.017637  0.001012  0.012722
     2 O    -0.001879 -0.002386 -0.001874
     3 H     0.000272  0.001176  0.001278
     4 O     0.003139  0.000999 -0.003419
     5 H    -0.001544 -0.000868  0.001746
     6 O    -0.002210 -0.001294  0.003512
     7 H     0.001058  0.000950 -0.001992
     8 O    -0.002422  0.001684 -0.001082
     9 H     0.001292 -0.000816 -0.000079
    10 Cl   -0.015343 -0.000457 -0.010813
 ----------------------------------------
 Mulliken charges used for AMS results%charges...

 dE(predicted):    -0.28064E-03, dE(actual):    -0.48156E-03, Trust radius:    0.200000, all in a.u.
 
----------------------------------------------------------------------
Geometry Convergence after Step   2       (Hartree/Angstrom,Angstrom)
----------------------------------------------------------------------
current energy                               -2.68395815 Hartree
energy change                      -0.00048156     0.00001000    F
constrained gradient max            0.01763574     0.00010000    F
constrained gradient rms            0.00550185     0.00006667    F
gradient max                        0.01763574
gradient rms                        0.00550185
cart. step max                      0.03983199     0.00100000    F
cart. step rms                      0.01897351     0.00066667    F
 
 
--------
Geometry
--------
Formula: H4ClO4Pa
Atoms
  Index Symbol   x (angstrom)   y (angstrom)   z (angstrom)
      1     Pa     0.27380226    -0.03528003    -0.00516386       adf.R=2.200
      2      O     1.02769744     1.58389829    -1.08003670       adf.R=1.517
      3      H     1.51617899     2.02390817    -1.78843953       adf.R=1.350
      4      O    -1.40156624     1.09880353     0.59458340       adf.R=1.517
      5      H    -1.76856295     1.98426194     0.47435801       adf.R=1.350
      6      O     0.36794013    -1.22433808    -1.74202698       adf.R=1.517
      7      H     0.20228623    -2.12134253    -2.05944876       adf.R=1.350
      8      O    -0.41549221    -1.65306077     1.10864700       adf.R=1.517
      9      H    -0.87853037    -2.14932691     1.79625663       adf.R=1.350
     10     Cl     2.44685471     0.03334534     1.52611941       adf.R=1.725
 
Total System Charge             0.00000
Bonding info available!
 
 *** GO1_GOStep3 ***

 SOLVATION
-------------------------------------------

  The Delley construction of COSMO surface surface is calculated

       Division Level for Surface Triangles (NDIV)                  3
       Final Division Level for Triangles (NFDIV)                   1
       Radius of the Solvent (RSOL)                           1.93000 angstr
  Dielectric Constant (EPSL)                                 78.39000

       COSMO equation is solved iteratively-               conjugate-gradient

       Maximun of Iterations for Charges (NCIX)                  1000
       Criterion for Charge convergence (CCNV)                1.0E-08

  COSMO charges included variationally in SCF

       COSMO included at every SCF cycle

  Geometry-dependent empirical factor                         0.00000

  C-Matrix calculated in cspmtx

  In cspmtx, C-Matrix calculated using fitted potential

-------------------------------------------



 -------------------------------------------
  COSMO surface
  Area             =          520.621
  Volume           =          807.805
  Number of Points =         1322
 -------------------------------------------



 ======================
 RI Hartree-Fock Scheme
 ======================
  
 Fit Set Quality     : GOOD
 Threshold Quality   : GOOD
 Integration Quality : GOOD
 Response Quality    : DEFAULT
 Is Range Separated  :  F
 
 RIHartreeFock Dependency: number of modified vectors:           5
 cosmo_calcen: 0.5 (esolb+esolc) (Hartrees) =   -0.035488

 Solvation energy (screening term,uncorrected) =    -22.269071 kcal/mol

 Solvation energy (dispersion and cavitation terms) =      0.973521 kcal/mol
 Solvation Energy Contributions (Hartrees)
          esola   esolb+esolc
     0.03548802   -0.07097604
 esol last cycle   -0.03548802
  
 Hartree-Fock exchange energy:   -528.237040372417     
 cosmo_calcen: 0.5 (esolb+esolc) (Hartrees) =   -0.035488

 Solvation energy (screening term,uncorrected) =    -22.269077 kcal/mol

 Solvation energy (dispersion and cavitation terms) =      0.973521 kcal/mol
 Solvation Energy Contributions (Hartrees)
          esola   esolb+esolc
     0.03548803   -0.07097606
 esol last cycle   -0.03548803

 Energy gradients wrt nuclear displacements
 ==========================================

     Atom      Cartesian (a.u./angstrom)
                 X         Y         Z
 ----------------------------------------
     1 Pa    0.005892  0.000249  0.003812
     2 O    -0.000255 -0.001316  0.000158
     3 H     0.002520  0.003356 -0.002159
     4 O     0.001314 -0.001271 -0.000630
     5 H    -0.002661  0.002860  0.001008
     6 O    -0.000500  0.001287  0.001656
     7 H     0.000271 -0.002962 -0.002947
     8 O    -0.000138  0.001204 -0.000302
     9 H    -0.001054 -0.003312  0.003187
    10 Cl   -0.005390 -0.000096 -0.003785
 ----------------------------------------
 Mulliken charges used for AMS results%charges...

 dE(predicted):    -0.62886E-03, dE(actual):    -0.84646E-03, Trust radius:    0.400000, all in a.u.
 
----------------------------------------------------------------------
Geometry Convergence after Step   3       (Hartree/Angstrom,Angstrom)
----------------------------------------------------------------------
current energy                               -2.68480461 Hartree
energy change                      -0.00084646     0.00001000    F
constrained gradient max            0.00589109     0.00010000    F
constrained gradient rms            0.00246824     0.00006667    F
gradient max                        0.00589109
gradient rms                        0.00246824
cart. step max                      0.01174745     0.00100000    F
cart. step rms                      0.00564533     0.00066667    F
 
 
--------
Geometry
--------
Formula: H4ClO4Pa
Atoms
  Index Symbol   x (angstrom)   y (angstrom)   z (angstrom)
      1     Pa     0.26786724    -0.03434352    -0.00819103       adf.R=2.200
      2      O     1.02749318     1.58762287    -1.07328761       adf.R=1.517
      3      H     1.51418983     2.01646466    -1.78865762       adf.R=1.350
      4      O    -1.40919731     1.09453441     0.59776341       adf.R=1.517
      5      H    -1.76374489     1.98238697     0.46261056       adf.R=1.350
      6      O     0.36848174    -1.21788374    -1.74840430       adf.R=1.517
      7      H     0.19366217    -2.11822932    -2.04938772       adf.R=1.350
      8      O    -0.40928399    -1.65633070     1.10496864       adf.R=1.517
      9      H    -0.87672043    -2.14571450     1.79336534       adf.R=1.350
     10     Cl     2.45786043     0.03236182     1.53406894       adf.R=1.725
 
Total System Charge             0.00000
Bonding info available!
 
 *** GO1_GOStep4 ***

 SOLVATION
-------------------------------------------

  The Delley construction of COSMO surface surface is calculated

       Division Level for Surface Triangles (NDIV)                  3
       Final Division Level for Triangles (NFDIV)                   1
       Radius of the Solvent (RSOL)                           1.93000 angstr
  Dielectric Constant (EPSL)                                 78.39000

       COSMO equation is solved iteratively-               conjugate-gradient

       Maximun of Iterations for Charges (NCIX)                  1000
       Criterion for Charge convergence (CCNV)                1.0E-08

  COSMO charges included variationally in SCF

       COSMO included at every SCF cycle

  Geometry-dependent empirical factor                         0.00000

  C-Matrix calculated in cspmtx

  In cspmtx, C-Matrix calculated using fitted potential

-------------------------------------------



 -------------------------------------------
  COSMO surface
  Area             =          520.691
  Volume           =          808.526
  Number of Points =         1324
 -------------------------------------------



 ======================
 RI Hartree-Fock Scheme
 ======================
  
 Fit Set Quality     : GOOD
 Threshold Quality   : GOOD
 Integration Quality : GOOD
 Response Quality    : DEFAULT
 Is Range Separated  :  F
 
 RIHartreeFock Dependency: number of modified vectors:           5
 cosmo_calcen: 0.5 (esolb+esolc) (Hartrees) =   -0.036603

 Solvation energy (screening term,uncorrected) =    -22.968695 kcal/mol

 Solvation energy (dispersion and cavitation terms) =      0.973651 kcal/mol
 Solvation Energy Contributions (Hartrees)
          esola   esolb+esolc
     0.03660294   -0.07320588
 esol last cycle   -0.03660294
  
 Hartree-Fock exchange energy:   -528.236523979656     
 cosmo_calcen: 0.5 (esolb+esolc) (Hartrees) =   -0.036603

 Solvation energy (screening term,uncorrected) =    -22.968693 kcal/mol

 Solvation energy (dispersion and cavitation terms) =      0.973651 kcal/mol
 Solvation Energy Contributions (Hartrees)
          esola   esolb+esolc
     0.03660294   -0.07320588
 esol last cycle   -0.03660294

 Energy gradients wrt nuclear displacements
 ==========================================

     Atom      Cartesian (a.u./angstrom)
                 X         Y         Z
 ----------------------------------------
     1 Pa    0.001056  0.000101  0.000402
     2 O     0.000985 -0.000515 -0.000914
     3 H     0.001640  0.002527 -0.000947
     4 O     0.000512 -0.000210 -0.000317
     5 H    -0.001888  0.001706  0.000965
     6 O    -0.000429  0.000210  0.000980
     7 H     0.000420 -0.001734 -0.002203
     8 O    -0.000612  0.000270  0.001081
     9 H    -0.000237 -0.002359  0.001940
    10 Cl   -0.001447  0.000004 -0.000987
 ----------------------------------------
 Mulliken charges used for AMS results%charges...

 dE(predicted):    -0.13679E-03, dE(actual):    -0.24289E-03, Trust radius:    0.400000, all in a.u.
 
----------------------------------------------------------------------
Geometry Convergence after Step   4       (Hartree/Angstrom,Angstrom)
----------------------------------------------------------------------
current energy                               -2.68504750 Hartree
energy change                      -0.00024289     0.00001000    F
constrained gradient max            0.00255010     0.00010000    F
constrained gradient rms            0.00121693     0.00006667    F
gradient max                        0.00255010
gradient rms                        0.00121693
cart. step max                      0.02667098     0.00100000    F
cart. step rms                      0.01305496     0.00066667    F
 
 
--------
Geometry
--------
Formula: H4ClO4Pa
Atoms
  Index Symbol   x (angstrom)   y (angstrom)   z (angstrom)
      1     Pa     0.27079599    -0.03293473    -0.00415772       adf.R=2.200
      2      O     1.01584308     1.59446819    -1.06519590       adf.R=1.517
      3      H     1.48803517     2.00382499    -1.79956805       adf.R=1.350
      4      O    -1.40904595     1.08768972     0.60666941       adf.R=1.517
      5      H    -1.74310374     1.97780230     0.44352914       adf.R=1.350
      6      O     0.37810962    -1.20666104    -1.74932902       adf.R=1.517
      7      H     0.18480683    -2.11094691    -2.02271674       adf.R=1.350
      8      O    -0.40619310    -1.66279558     1.09097289       adf.R=1.517
      9      H    -0.89190511    -2.14019401     1.77306377       adf.R=1.350
     10     Cl     2.48326518     0.03061602     1.55158084       adf.R=1.725
 
Total System Charge             0.00000
Bonding info available!
 
 *** GO1_GOStep5 ***

 SOLVATION
-------------------------------------------

  The Delley construction of COSMO surface surface is calculated

       Division Level for Surface Triangles (NDIV)                  3
       Final Division Level for Triangles (NFDIV)                   1
       Radius of the Solvent (RSOL)                           1.93000 angstr
  Dielectric Constant (EPSL)                                 78.39000

       COSMO equation is solved iteratively-               conjugate-gradient

       Maximun of Iterations for Charges (NCIX)                  1000
       Criterion for Charge convergence (CCNV)                1.0E-08

  COSMO charges included variationally in SCF

       COSMO included at every SCF cycle

  Geometry-dependent empirical factor                         0.00000

  C-Matrix calculated in cspmtx

  In cspmtx, C-Matrix calculated using fitted potential

-------------------------------------------



 -------------------------------------------
  COSMO surface
  Area             =          519.979
  Volume           =          808.576
  Number of Points =         1322
 -------------------------------------------



 ======================
 RI Hartree-Fock Scheme
 ======================
  
 Fit Set Quality     : GOOD
 Threshold Quality   : GOOD
 Integration Quality : GOOD
 Response Quality    : DEFAULT
 Is Range Separated  :  F
 
 RIHartreeFock Dependency: number of modified vectors:           5
 cosmo_calcen: 0.5 (esolb+esolc) (Hartrees) =   -0.037968

 Solvation energy (screening term,uncorrected) =    -23.825534 kcal/mol

 Solvation energy (dispersion and cavitation terms) =      0.972321 kcal/mol
 Solvation Energy Contributions (Hartrees)
          esola   esolb+esolc
     0.03796840   -0.07593680
 esol last cycle   -0.03796840
  
 Hartree-Fock exchange energy:   -528.240086014193     
 cosmo_calcen: 0.5 (esolb+esolc) (Hartrees) =   -0.037968

 Solvation energy (screening term,uncorrected) =    -23.825535 kcal/mol

 Solvation energy (dispersion and cavitation terms) =      0.972321 kcal/mol
 Solvation Energy Contributions (Hartrees)
          esola   esolb+esolc
     0.03796840   -0.07593680
 esol last cycle   -0.03796840

 Energy gradients wrt nuclear displacements
 ==========================================

     Atom      Cartesian (a.u./angstrom)
                 X         Y         Z
 ----------------------------------------
     1 Pa   -0.004415  0.000011 -0.003636
     2 O     0.001536 -0.000476 -0.002205
     3 H     0.000129  0.001082  0.001299
     4 O     0.000511  0.000950 -0.000554
     5 H    -0.000648 -0.000285  0.000958
     6 O    -0.000664 -0.001077  0.001121
     7 H     0.000697  0.000451 -0.001012
     8 O    -0.001553 -0.000050  0.001996
     9 H     0.001279 -0.000704 -0.000235
    10 Cl    0.003127  0.000098  0.002269
 ----------------------------------------
 Mulliken charges used for AMS results%charges...

 dE(predicted):    -0.17118E-03, dE(actual):    -0.22497E-03, Trust radius:    0.400000, all in a.u.
 
----------------------------------------------------------------------
Geometry Convergence after Step   5       (Hartree/Angstrom,Angstrom)
----------------------------------------------------------------------
current energy                               -2.68527246 Hartree
energy change                      -0.00022497     0.00001000    F
constrained gradient max            0.00441658     0.00010000    F
constrained gradient rms            0.00157066     0.00006667    F
gradient max                        0.00441658
gradient rms                        0.00157066
cart. step max                      0.03322126     0.00100000    F
cart. step rms                      0.01392269     0.00066667    F
 
 
--------
Geometry
--------
Formula: H4ClO4Pa
Atoms
  Index Symbol   x (angstrom)   y (angstrom)   z (angstrom)
      1     Pa     0.28208302    -0.03193205     0.00564914       adf.R=2.200
      2      O     1.00136879     1.59997936    -1.06094205       adf.R=1.517
      3      H     1.45481391     1.99327887    -1.81515535       adf.R=1.350
      4      O    -1.40108409     1.08260299     0.61575243       adf.R=1.517
      5      H    -1.72135287     1.97300614     0.42993840       adf.R=1.350
      6      O     0.39110712    -1.19740456    -1.74408795       adf.R=1.517
      7      H     0.18162162    -2.10338867    -1.99818625       adf.R=1.350
      8      O    -0.40792189    -1.66850571     1.07676109       adf.R=1.517
      9      H    -0.91534049    -2.13619559     1.74912404       adf.R=1.350
     10     Cl     2.50531286     0.02942819     1.56599512       adf.R=1.725
 
Total System Charge             0.00000
Bonding info available!
 
 *** GO1_GOStep6 ***

 SOLVATION
-------------------------------------------

  The Delley construction of COSMO surface surface is calculated

       Division Level for Surface Triangles (NDIV)                  3
       Final Division Level for Triangles (NFDIV)                   1
       Radius of the Solvent (RSOL)                           1.93000 angstr
  Dielectric Constant (EPSL)                                 78.39000

       COSMO equation is solved iteratively-               conjugate-gradient

       Maximun of Iterations for Charges (NCIX)                  1000
       Criterion for Charge convergence (CCNV)                1.0E-08

  COSMO charges included variationally in SCF

       COSMO included at every SCF cycle

  Geometry-dependent empirical factor                         0.00000

  C-Matrix calculated in cspmtx

  In cspmtx, C-Matrix calculated using fitted potential

-------------------------------------------



 -------------------------------------------
  COSMO surface
  Area             =          519.462
  Volume           =          809.011
  Number of Points =         1312
 -------------------------------------------



 ======================
 RI Hartree-Fock Scheme
 ======================
  
 Fit Set Quality     : GOOD
 Threshold Quality   : GOOD
 Integration Quality : GOOD
 Response Quality    : DEFAULT
 Is Range Separated  :  F
 
 RIHartreeFock Dependency: number of modified vectors:           5
 cosmo_calcen: 0.5 (esolb+esolc) (Hartrees) =   -0.038542

 Solvation energy (screening term,uncorrected) =    -24.185463 kcal/mol

 Solvation energy (dispersion and cavitation terms) =      0.971353 kcal/mol
 Solvation Energy Contributions (Hartrees)
          esola   esolb+esolc
     0.03854198   -0.07708397
 esol last cycle   -0.03854198
  
 Hartree-Fock exchange energy:   -528.243661686893     
 cosmo_calcen: 0.5 (esolb+esolc) (Hartrees) =   -0.038542

 Solvation energy (screening term,uncorrected) =    -24.185458 kcal/mol

 Solvation energy (dispersion and cavitation terms) =      0.971353 kcal/mol
 Solvation Energy Contributions (Hartrees)
          esola   esolb+esolc
     0.03854198   -0.07708395
 esol last cycle   -0.03854198

 Energy gradients wrt nuclear displacements
 ==========================================

     Atom      Cartesian (a.u./angstrom)
                 X         Y         Z
 ----------------------------------------
     1 Pa   -0.006327 -0.000050 -0.005142
     2 O     0.000464 -0.001539 -0.001978
     3 H    -0.000314  0.000566  0.002078
     4 O     0.001254  0.000998 -0.001003
     5 H    -0.000071 -0.001095  0.000874
     6 O    -0.000764 -0.001039  0.001974
     7 H     0.000753  0.001262 -0.000469
     8 O    -0.001774  0.000870  0.001037
     9 H     0.001862 -0.000121 -0.000921
    10 Cl    0.004918  0.000148  0.003550
 ----------------------------------------
 Mulliken charges used for AMS results%charges...

 dE(predicted):    -0.87071E-04, dE(actual):    -0.91475E-04, Trust radius:    0.400000, all in a.u.
 
----------------------------------------------------------------------
Geometry Convergence after Step   6       (Hartree/Angstrom,Angstrom)
----------------------------------------------------------------------
current energy                               -2.68536394 Hartree
energy change                      -0.00009147     0.00001000    F
constrained gradient max            0.00632800     0.00010000    F
constrained gradient rms            0.00213937     0.00006667    F
gradient max                        0.00632800
gradient rms                        0.00213937
cart. step max                      0.03839847     0.00100000    F
cart. step rms                      0.01567426     0.00066667    F
 
 
--------
Geometry
--------
Formula: H4ClO4Pa
Atoms
  Index Symbol   x (angstrom)   y (angstrom)   z (angstrom)
      1     Pa     0.29921006    -0.03071179     0.01995740       adf.R=2.200
      2      O     0.98693552     1.60566096    -1.05710809       adf.R=1.517
      3      H     1.41641544     1.98020468    -1.83485655       adf.R=1.350
      4      O    -1.39001124     1.07662500     0.62617107       adf.R=1.517
      5      H    -1.69945047     1.96585687     0.41712778       adf.R=1.350
      6      O     0.40673837    -1.18666792    -1.73653120       adf.R=1.517
      7      H     0.17960270    -2.09319113    -1.97361049       adf.R=1.350
      8      O    -0.41035680    -1.67448994     1.06273912       adf.R=1.517
      9      H    -0.94495555    -2.13076285     1.72208001       adf.R=1.350
     10     Cl     2.52647996     0.02834507     1.57887958       adf.R=1.725
 
Total System Charge             0.00000
Bonding info available!
 
 *** GO1_GOStep7 ***

 SOLVATION
-------------------------------------------

  The Delley construction of COSMO surface surface is calculated

       Division Level for Surface Triangles (NDIV)                  3
       Final Division Level for Triangles (NFDIV)                   1
       Radius of the Solvent (RSOL)                           1.93000 angstr
  Dielectric Constant (EPSL)                                 78.39000

       COSMO equation is solved iteratively-               conjugate-gradient

       Maximun of Iterations for Charges (NCIX)                  1000
       Criterion for Charge convergence (CCNV)                1.0E-08

  COSMO charges included variationally in SCF

       COSMO included at every SCF cycle

  Geometry-dependent empirical factor                         0.00000

  C-Matrix calculated in cspmtx

  In cspmtx, C-Matrix calculated using fitted potential

-------------------------------------------



 -------------------------------------------
  COSMO surface
  Area             =          520.012
  Volume           =          811.450
  Number of Points =         1318
 -------------------------------------------



 ======================
 RI Hartree-Fock Scheme
 ======================
  
 Fit Set Quality     : GOOD
 Threshold Quality   : GOOD
 Integration Quality : GOOD
 Response Quality    : DEFAULT
 Is Range Separated  :  F
 
 RIHartreeFock Dependency: number of modified vectors:           5
 cosmo_calcen: 0.5 (esolb+esolc) (Hartrees) =   -0.038735

 Solvation energy (screening term,uncorrected) =    -24.306810 kcal/mol

 Solvation energy (dispersion and cavitation terms) =      0.972382 kcal/mol
 Solvation Energy Contributions (Hartrees)
          esola   esolb+esolc
     0.03873536   -0.07747073
 esol last cycle   -0.03873536
  
 Hartree-Fock exchange energy:   -528.246309917830     
 cosmo_calcen: 0.5 (esolb+esolc) (Hartrees) =   -0.038735

 Solvation energy (screening term,uncorrected) =    -24.306807 kcal/mol

 Solvation energy (dispersion and cavitation terms) =      0.972382 kcal/mol
 Solvation Energy Contributions (Hartrees)
          esola   esolb+esolc
     0.03873536   -0.07747072
 esol last cycle   -0.03873536

 Energy gradients wrt nuclear displacements
 ==========================================

     Atom      Cartesian (a.u./angstrom)
                 X         Y         Z
 ----------------------------------------
     1 Pa   -0.006245  0.000054 -0.004960
     2 O    -0.001089 -0.002886 -0.001127
     3 H    -0.000195  0.000541  0.001931
     4 O     0.002078  0.000394 -0.001287
     5 H     0.000145 -0.001078  0.000621
     6 O    -0.000808 -0.000350  0.002703
     7 H     0.000613  0.001174 -0.000259
     8 O    -0.001571  0.002149 -0.000650
     9 H     0.001830 -0.000154 -0.000740
    10 Cl    0.005241  0.000156  0.003768
 ----------------------------------------
 Mulliken charges used for AMS results%charges...

 dE(predicted):    -0.78160E-04, dE(actual):    -0.72234E-04, Trust radius:    0.400000, all in a.u.
 
----------------------------------------------------------------------
Geometry Convergence after Step   7       (Hartree/Angstrom,Angstrom)
----------------------------------------------------------------------
current energy                               -2.68543617 Hartree
energy change                      -0.00007223     0.00001000    F
constrained gradient max            0.00624579     0.00010000    F
constrained gradient rms            0.00222973     0.00006667    F
gradient max                        0.00624579
gradient rms                        0.00222973
cart. step max                      0.04168749     0.00100000    F
cart. step rms                      0.01702692     0.00066667    F
 
 
--------
Geometry
--------
Formula: H4ClO4Pa
Atoms
  Index Symbol   x (angstrom)   y (angstrom)   z (angstrom)
      1     Pa     0.32062395    -0.02933947     0.03730517       adf.R=2.200
      2      O     0.97598574     1.61267121    -1.05103178       adf.R=1.517
      3      H     1.37472795     1.96232441    -1.85703633       adf.R=1.350
      4      O    -1.37889032     1.06786709     0.63781125       adf.R=1.517
      5      H    -1.67914236     1.95434717     0.40318774       adf.R=1.350
      6      O     0.42461111    -1.17317293    -1.72958357       adf.R=1.517
      7      H     0.17632235    -2.07900845    -1.94934918       adf.R=1.350
      8      O    -0.41051597    -1.68087525     1.05106497       adf.R=1.517
      9      H    -0.97930755    -2.12067629     1.69367812       adf.R=1.350
     10     Cl     2.54619309     0.02673147     1.58880222       adf.R=1.725
 
Total System Charge             0.00000
Bonding info available!
 
 *** GO1_GOStep8 ***

 SOLVATION
-------------------------------------------

  The Delley construction of COSMO surface surface is calculated

       Division Level for Surface Triangles (NDIV)                  3
       Final Division Level for Triangles (NFDIV)                   1
       Radius of the Solvent (RSOL)                           1.93000 angstr
  Dielectric Constant (EPSL)                                 78.39000

       COSMO equation is solved iteratively-               conjugate-gradient

       Maximun of Iterations for Charges (NCIX)                  1000
       Criterion for Charge convergence (CCNV)                1.0E-08

  COSMO charges included variationally in SCF

       COSMO included at every SCF cycle

  Geometry-dependent empirical factor                         0.00000

  C-Matrix calculated in cspmtx

  In cspmtx, C-Matrix calculated using fitted potential

-------------------------------------------



 -------------------------------------------
  COSMO surface
  Area             =          519.044
  Volume           =          811.329
  Number of Points =         1315
 -------------------------------------------



 ======================
 RI Hartree-Fock Scheme
 ======================
  
 Fit Set Quality     : GOOD
 Threshold Quality   : GOOD
 Integration Quality : GOOD
 Response Quality    : DEFAULT
 Is Range Separated  :  F
 
 RIHartreeFock Dependency: number of modified vectors:           5
 cosmo_calcen: 0.5 (esolb+esolc) (Hartrees) =   -0.038697

 Solvation energy (screening term,uncorrected) =    -24.282614 kcal/mol

 Solvation energy (dispersion and cavitation terms) =      0.970572 kcal/mol
 Solvation Energy Contributions (Hartrees)
          esola   esolb+esolc
     0.03869680   -0.07739361
 esol last cycle   -0.03869680
  
 Hartree-Fock exchange energy:   -528.247504220486     
 cosmo_calcen: 0.5 (esolb+esolc) (Hartrees) =   -0.038697

 Solvation energy (screening term,uncorrected) =    -24.282610 kcal/mol

 Solvation energy (dispersion and cavitation terms) =      0.970572 kcal/mol
 Solvation Energy Contributions (Hartrees)
          esola   esolb+esolc
     0.03869680   -0.07739360
 esol last cycle   -0.03869680

 Energy gradients wrt nuclear displacements
 ==========================================

     Atom      Cartesian (a.u./angstrom)
                 X         Y         Z
 ----------------------------------------
     1 Pa   -0.004243  0.000101 -0.003407
     2 O    -0.002470 -0.003849 -0.000124
     3 H     0.000148  0.000748  0.001144
     4 O     0.002344 -0.000382 -0.001222
     5 H     0.000200 -0.000582  0.000266
     6 O    -0.000709  0.000498  0.002743
     7 H     0.000304  0.000602 -0.000119
     8 O    -0.001204  0.003290 -0.002273
     9 H     0.001324 -0.000558 -0.000078
    10 Cl    0.004305  0.000133  0.003069
 ----------------------------------------
 Mulliken charges used for AMS results%charges...

 dE(predicted):    -0.86723E-04, dE(actual):    -0.52696E-04, Trust radius:    0.400000, all in a.u.
 
----------------------------------------------------------------------
Geometry Convergence after Step   8       (Hartree/Angstrom,Angstrom)
----------------------------------------------------------------------
current energy                               -2.68548887 Hartree
energy change                      -0.00005270     0.00001000    F
constrained gradient max            0.00427315     0.00010000    F
constrained gradient rms            0.00196838     0.00006667    F
gradient max                        0.00427315
gradient rms                        0.00196838
cart. step max                      0.03638088     0.00100000    F
cart. step rms                      0.01571721     0.00066667    F
 
 
--------
Geometry
--------
Formula: H4ClO4Pa
Atoms
  Index Symbol   x (angstrom)   y (angstrom)   z (angstrom)
      1     Pa     0.34087415    -0.02788993     0.05364597       adf.R=2.200
      2      O     0.97470349     1.62135482    -1.04061658       adf.R=1.517
      3      H     1.33834707     1.94022270    -1.87639751       adf.R=1.350
      4      O    -1.37267226     1.05646374     0.64849939       adf.R=1.517
      5      H    -1.66562142     1.93867169     0.38741883       adf.R=1.350
      6      O     0.44095697    -1.15779686    -1.72685749       adf.R=1.517
      7      H     0.16913457    -2.06159001    -1.92933877       adf.R=1.350
      8      O    -0.40432033    -1.68760893     1.04627641       adf.R=1.517
      9      H    -1.01098209    -2.10532471     1.66975745       adf.R=1.350
     10     Cl     2.56018783     0.02436643     1.59246093       adf.R=1.725
 
Total System Charge             0.00000
Bonding info available!
 
 *** GO1_GOStep9 ***

 SOLVATION
-------------------------------------------

  The Delley construction of COSMO surface surface is calculated

       Division Level for Surface Triangles (NDIV)                  3
       Final Division Level for Triangles (NFDIV)                   1
       Radius of the Solvent (RSOL)                           1.93000 angstr
  Dielectric Constant (EPSL)                                 78.39000

       COSMO equation is solved iteratively-               conjugate-gradient

       Maximun of Iterations for Charges (NCIX)                  1000
       Criterion for Charge convergence (CCNV)                1.0E-08

  COSMO charges included variationally in SCF

       COSMO included at every SCF cycle

  Geometry-dependent empirical factor                         0.00000

  C-Matrix calculated in cspmtx

  In cspmtx, C-Matrix calculated using fitted potential

-------------------------------------------



 -------------------------------------------
  COSMO surface
  Area             =          517.667
  Volume           =          810.817
  Number of Points =         1308
 -------------------------------------------



 ======================
 RI Hartree-Fock Scheme
 ======================
  
 Fit Set Quality     : GOOD
 Threshold Quality   : GOOD
 Integration Quality : GOOD
 Response Quality    : DEFAULT
 Is Range Separated  :  F
 
 RIHartreeFock Dependency: number of modified vectors:           5
 cosmo_calcen: 0.5 (esolb+esolc) (Hartrees) =   -0.038652

 Solvation energy (screening term,uncorrected) =    -24.254500 kcal/mol

 Solvation energy (dispersion and cavitation terms) =      0.967998 kcal/mol
 Solvation Energy Contributions (Hartrees)
          esola   esolb+esolc
     0.03865200   -0.07730400
 esol last cycle   -0.03865200
  
 Hartree-Fock exchange energy:   -528.246722170535     
 cosmo_calcen: 0.5 (esolb+esolc) (Hartrees) =   -0.038652

 Solvation energy (screening term,uncorrected) =    -24.254495 kcal/mol

 Solvation energy (dispersion and cavitation terms) =      0.967998 kcal/mol
 Solvation Energy Contributions (Hartrees)
          esola   esolb+esolc
     0.03865199   -0.07730399
 esol last cycle   -0.03865199

 Energy gradients wrt nuclear displacements
 ==========================================

     Atom      Cartesian (a.u./angstrom)
                 X         Y         Z
 ----------------------------------------
     1 Pa   -0.000921  0.000185 -0.000772
     2 O    -0.002961 -0.003764  0.000658
     3 H     0.000500  0.000965  0.000050
     4 O     0.001660 -0.001098 -0.000575
     5 H     0.000205  0.000205 -0.000245
     6 O    -0.000263  0.001094  0.001636
     7 H    -0.000157 -0.000205  0.000067
     8 O    -0.000863  0.003495 -0.002991
     9 H     0.000598 -0.000981  0.000602
    10 Cl    0.002202  0.000104  0.001570
 ----------------------------------------
 Mulliken charges used for AMS results%charges...

 dE(predicted):    -0.96549E-04, dE(actual):    -0.76545E-04, Trust radius:    0.400000, all in a.u.
 
----------------------------------------------------------------------
Geometry Convergence after Step   9       (Hartree/Angstrom,Angstrom)
----------------------------------------------------------------------
current energy                               -2.68556541 Hartree
energy change                      -0.00007654     0.00001000    F
constrained gradient max            0.00375601     0.00010000    F
constrained gradient rms            0.00147628     0.00006667    F
gradient max                        0.00375601
gradient rms                        0.00147628
cart. step max                      0.01938229     0.00100000    F
cart. step rms                      0.01076663     0.00066667    F
 
 
--------
Geometry
--------
Formula: H4ClO4Pa
Atoms
  Index Symbol   x (angstrom)   y (angstrom)   z (angstrom)
      1     Pa     0.35118941    -0.02678840     0.06211369       adf.R=2.200
      2      O     0.98656312     1.63000575    -1.02746866       adf.R=1.517
      3      H     1.32114825     1.92084041    -1.88583898       adf.R=1.350
      4      O    -1.37554324     1.04587386     0.65423973       adf.R=1.517
      5      H    -1.66519106     1.92375590     0.37398074       adf.R=1.350
      6      O     0.44938960    -1.14524032    -1.73086677       adf.R=1.517
      7      H     0.15946290    -2.04662824    -1.92079272       adf.R=1.350
      8      O    -0.39109828    -1.69322731     1.05220446       adf.R=1.517
      9      H    -1.02849567    -2.08900152     1.65977483       adf.R=1.350
     10     Cl     2.56318294     0.02127880     1.58750229       adf.R=1.725
 
Total System Charge             0.00000
Bonding info available!
 
 *** GO1_GOStep10 ***

 SOLVATION
-------------------------------------------

  The Delley construction of COSMO surface surface is calculated

       Division Level for Surface Triangles (NDIV)                  3
       Final Division Level for Triangles (NFDIV)                   1
       Radius of the Solvent (RSOL)                           1.93000 angstr
  Dielectric Constant (EPSL)                                 78.39000

       COSMO equation is solved iteratively-               conjugate-gradient

       Maximun of Iterations for Charges (NCIX)                  1000
       Criterion for Charge convergence (CCNV)                1.0E-08

  COSMO charges included variationally in SCF

       COSMO included at every SCF cycle

  Geometry-dependent empirical factor                         0.00000

  C-Matrix calculated in cspmtx

  In cspmtx, C-Matrix calculated using fitted potential

-------------------------------------------



 -------------------------------------------
  COSMO surface
  Area             =          516.860
  Volume           =          810.947
  Number of Points =         1305
 -------------------------------------------



 ======================
 RI Hartree-Fock Scheme
 ======================
  
 Fit Set Quality     : GOOD
 Threshold Quality   : GOOD
 Integration Quality : GOOD
 Response Quality    : DEFAULT
 Is Range Separated  :  F
 
 RIHartreeFock Dependency: number of modified vectors:           5
 cosmo_calcen: 0.5 (esolb+esolc) (Hartrees) =   -0.038755

 Solvation energy (screening term,uncorrected) =    -24.319227 kcal/mol

 Solvation energy (dispersion and cavitation terms) =      0.966488 kcal/mol
 Solvation Energy Contributions (Hartrees)
          esola   esolb+esolc
     0.03875515   -0.07751030
 esol last cycle   -0.03875515
  
 Hartree-Fock exchange energy:   -528.244414044983     
 cosmo_calcen: 0.5 (esolb+esolc) (Hartrees) =   -0.038755

 Solvation energy (screening term,uncorrected) =    -24.319224 kcal/mol

 Solvation energy (dispersion and cavitation terms) =      0.966488 kcal/mol
 Solvation Energy Contributions (Hartrees)
          esola   esolb+esolc
     0.03875515   -0.07751029
 esol last cycle   -0.03875515

 Energy gradients wrt nuclear displacements
 ==========================================

     Atom      Cartesian (a.u./angstrom)
                 X         Y         Z
 ----------------------------------------
     1 Pa    0.002294  0.000175  0.001529
     2 O    -0.002092 -0.002358  0.000555
     3 H     0.000548  0.000899 -0.000589
     4 O    -0.000009 -0.001016  0.000537
     5 H     0.000306  0.000642 -0.000661
     6 O     0.000336  0.001000 -0.000353
     7 H    -0.000523 -0.000708  0.000352
     8 O    -0.000857  0.002477 -0.002157
     9 H     0.000109 -0.001118  0.000892
    10 Cl   -0.000112  0.000008 -0.000105
 ----------------------------------------
 Mulliken charges used for AMS results%charges...

 dE(predicted):    -0.88275E-04, dE(actual):    -0.82105E-04, Trust radius:    0.400000, all in a.u.
 
----------------------------------------------------------------------
Geometry Convergence after Step  10       (Hartree/Angstrom,Angstrom)
----------------------------------------------------------------------
current energy                               -2.68564752 Hartree
energy change                      -0.00008210     0.00001000    F
constrained gradient max            0.00246833     0.00010000    F
constrained gradient rms            0.00111538     0.00006667    F
gradient max                        0.00246833
gradient rms                        0.00111538
cart. step max                      0.01592423     0.00100000    F
cart. step rms                      0.00700124     0.00066667    F
 
 
--------
Geometry
--------
Formula: H4ClO4Pa
Atoms
  Index Symbol   x (angstrom)   y (angstrom)   z (angstrom)
      1     Pa     0.34764189    -0.02634209     0.05989484       adf.R=2.200
      2      O     1.00248735     1.63449950    -1.01791059       adf.R=1.517
      3      H     1.32855638     1.91242790    -1.88368926       adf.R=1.350
      4      O    -1.38449907     1.04140364     0.65298576       adf.R=1.517
      5      H    -1.67550096     1.91783679     0.36958783       adf.R=1.350
      6      O     0.44672730    -1.14100780    -1.73791824       adf.R=1.517
      7      H     0.15230230    -2.04144460    -1.92541865       adf.R=1.350
      8      O    -0.37756171    -1.69600148     1.06262997       adf.R=1.517
      9      H    -1.02623642    -2.08042787     1.66537829       adf.R=1.350
     10     Cl     2.55669092     0.01992497     1.57930866       adf.R=1.725
 
Total System Charge             0.00000
Bonding info available!
 
 *** GO1_GOStep11 ***

 SOLVATION
-------------------------------------------

  The Delley construction of COSMO surface surface is calculated

       Division Level for Surface Triangles (NDIV)                  3
       Final Division Level for Triangles (NFDIV)                   1
       Radius of the Solvent (RSOL)                           1.93000 angstr
  Dielectric Constant (EPSL)                                 78.39000

       COSMO equation is solved iteratively-               conjugate-gradient

       Maximun of Iterations for Charges (NCIX)                  1000
       Criterion for Charge convergence (CCNV)                1.0E-08

  COSMO charges included variationally in SCF

       COSMO included at every SCF cycle

  Geometry-dependent empirical factor                         0.00000

  C-Matrix calculated in cspmtx

  In cspmtx, C-Matrix calculated using fitted potential

-------------------------------------------



 -------------------------------------------
  COSMO surface
  Area             =          517.111
  Volume           =          811.843
  Number of Points =         1304
 -------------------------------------------



 ======================
 RI Hartree-Fock Scheme
 ======================
  
 Fit Set Quality     : GOOD
 Threshold Quality   : GOOD
 Integration Quality : GOOD
 Response Quality    : DEFAULT
 Is Range Separated  :  F
 
 RIHartreeFock Dependency: number of modified vectors:           5
 cosmo_calcen: 0.5 (esolb+esolc) (Hartrees) =   -0.039031

 Solvation energy (screening term,uncorrected) =    -24.492218 kcal/mol

 Solvation energy (dispersion and cavitation terms) =      0.966957 kcal/mol
 Solvation Energy Contributions (Hartrees)
          esola   esolb+esolc
     0.03903083   -0.07806166
 esol last cycle   -0.03903083
  
 Hartree-Fock exchange energy:   -528.242596096801     
 cosmo_calcen: 0.5 (esolb+esolc) (Hartrees) =   -0.039031

 Solvation energy (screening term,uncorrected) =    -24.492216 kcal/mol

 Solvation energy (dispersion and cavitation terms) =      0.966957 kcal/mol
 Solvation Energy Contributions (Hartrees)
          esola   esolb+esolc
     0.03903083   -0.07806165
 esol last cycle   -0.03903083

 Energy gradients wrt nuclear displacements
 ==========================================

     Atom      Cartesian (a.u./angstrom)
                 X         Y         Z
 ----------------------------------------
     1 Pa    0.003073  0.000027  0.002071
     2 O    -0.000651 -0.000868 -0.000149
     3 H     0.000352  0.000673 -0.000359
     4 O    -0.001367 -0.000406  0.001263
     5 H     0.000471  0.000544 -0.000739
     6 O     0.000631  0.000314 -0.001767
     7 H    -0.000553 -0.000570  0.000571
     8 O    -0.001054  0.001191 -0.000704
     9 H     0.000243 -0.000930  0.000673
    10 Cl   -0.001145  0.000024 -0.000858
 ----------------------------------------
 Mulliken charges used for AMS results%charges...

 dE(predicted):    -0.47217E-04, dE(actual):    -0.73925E-04, Trust radius:    0.400000, all in a.u.
 
----------------------------------------------------------------------
Geometry Convergence after Step  11       (Hartree/Angstrom,Angstrom)
----------------------------------------------------------------------
current energy                               -2.68572144 Hartree
energy change                      -0.00007393     0.00001000    F
constrained gradient max            0.00306944     0.00010000    F
constrained gradient rms            0.00102210     0.00006667    F
gradient max                        0.00306944
gradient rms                        0.00102210
cart. step max                      0.00951501     0.00100000    F
cart. step rms                      0.00454797     0.00066667    F
 
 
--------
Geometry
--------
Formula: H4ClO4Pa
Atoms
  Index Symbol   x (angstrom)   y (angstrom)   z (angstrom)
      1     Pa     0.34266492    -0.02589744     0.05655063       adf.R=2.200
      2      O     1.01200236     1.63638174    -1.01254974       adf.R=1.517
      3      H     1.33545701     1.90746301    -1.88122459       adf.R=1.350
      4      O    -1.39046228     1.04014655     0.65083468       adf.R=1.517
      5      H    -1.68375956     1.91639231     0.36987215       adf.R=1.350
      6      O     0.44314165    -1.13994462    -1.74166675       adf.R=1.517
      7      H     0.14951043    -2.04022454    -1.93022746       adf.R=1.350
      8      O    -0.36819888    -1.69727328     1.06879612       adf.R=1.517
      9      H    -1.02264441    -2.07523149     1.66902443       adf.R=1.350
     10     Cl     2.55289674     0.01905670     1.57543916       adf.R=1.725
 
Total System Charge             0.00000
Bonding info available!
 
 *** GO1_GOStep12 ***

 SOLVATION
-------------------------------------------

  The Delley construction of COSMO surface surface is calculated

       Division Level for Surface Triangles (NDIV)                  3
       Final Division Level for Triangles (NFDIV)                   1
       Radius of the Solvent (RSOL)                           1.93000 angstr
  Dielectric Constant (EPSL)                                 78.39000

       COSMO equation is solved iteratively-               conjugate-gradient

       Maximun of Iterations for Charges (NCIX)                  1000
       Criterion for Charge convergence (CCNV)                1.0E-08

  COSMO charges included variationally in SCF

       COSMO included at every SCF cycle

  Geometry-dependent empirical factor                         0.00000

  C-Matrix calculated in cspmtx

  In cspmtx, C-Matrix calculated using fitted potential

-------------------------------------------



 -------------------------------------------
  COSMO surface
  Area             =          517.524
  Volume           =          812.443
  Number of Points =         1309
 -------------------------------------------



 ======================
 RI Hartree-Fock Scheme
 ======================
  
 Fit Set Quality     : GOOD
 Threshold Quality   : GOOD
 Integration Quality : GOOD
 Response Quality    : DEFAULT
 Is Range Separated  :  F
 
 RIHartreeFock Dependency: number of modified vectors:           5
 cosmo_calcen: 0.5 (esolb+esolc) (Hartrees) =   -0.039357

 Solvation energy (screening term,uncorrected) =    -24.697089 kcal/mol

 Solvation energy (dispersion and cavitation terms) =      0.967731 kcal/mol
 Solvation Energy Contributions (Hartrees)
          esola   esolb+esolc
     0.03935731   -0.07871462
 esol last cycle   -0.03935731
  
 Hartree-Fock exchange energy:   -528.242309492817     
 cosmo_calcen: 0.5 (esolb+esolc) (Hartrees) =   -0.039357

 Solvation energy (screening term,uncorrected) =    -24.697088 kcal/mol

 Solvation energy (dispersion and cavitation terms) =      0.967731 kcal/mol
 Solvation Energy Contributions (Hartrees)
          esola   esolb+esolc
     0.03935731   -0.07871462
 esol last cycle   -0.03935731

 Energy gradients wrt nuclear displacements
 ==========================================

     Atom      Cartesian (a.u./angstrom)
                 X         Y         Z
 ----------------------------------------
     1 Pa    0.002251 -0.000077  0.001456
     2 O     0.000238 -0.000212 -0.000563
     3 H     0.000134  0.000438  0.000089
     4 O    -0.001887  0.000126  0.001443
     5 H     0.000638  0.000218 -0.000659
     6 O     0.000675 -0.000192 -0.002157
     7 H    -0.000458 -0.000223  0.000721
     8 O    -0.001067  0.000558  0.000164
     9 H     0.000556 -0.000662  0.000319
    10 Cl   -0.001080  0.000026 -0.000814
 ----------------------------------------
 Mulliken charges used for AMS results%charges...

 dE(predicted):    -0.19162E-04, dE(actual):    -0.48804E-04, Trust radius:    0.400000, all in a.u.
 
----------------------------------------------------------------------
Geometry Convergence after Step  12       (Hartree/Angstrom,Angstrom)
----------------------------------------------------------------------
current energy                               -2.68577025 Hartree
energy change                      -0.00004880     0.00001000    F
constrained gradient max            0.00224793     0.00010000    F
constrained gradient rms            0.00090262     0.00006667    F
gradient max                        0.00224793
gradient rms                        0.00090262
cart. step max                      0.00867003     0.00100000    F
cart. step rms                      0.00367381     0.00066667    F
 
 
--------
Geometry
--------
Formula: H4ClO4Pa
Atoms
  Index Symbol   x (angstrom)   y (angstrom)   z (angstrom)
      1     Pa     0.34002250    -0.02529790     0.05491588       adf.R=2.200
      2      O     1.01874525     1.63798809    -1.00825485       adf.R=1.517
      3      H     1.33604556     1.89986156    -1.88180713       adf.R=1.350
      4      O    -1.39324894     1.03909774     0.64937780       adf.R=1.517
      5      H    -1.69088003     1.91524168     0.37353016       adf.R=1.350
      6      O     0.44133886    -1.13896306    -1.74250515       adf.R=1.517
      7      H     0.15030621    -2.03911707    -1.93447056       adf.R=1.350
      8      O    -0.35952885    -1.69848637     1.07328851       adf.R=1.517
      9      H    -1.02470893    -2.06751192     1.66692734       adf.R=1.350
     10     Cl     2.55251635     0.01805622     1.57384662       adf.R=1.725
 
Total System Charge             0.00000
Bonding info available!
 
 *** GO1_GOStep13 ***

 SOLVATION
-------------------------------------------

  The Delley construction of COSMO surface surface is calculated

       Division Level for Surface Triangles (NDIV)                  3
       Final Division Level for Triangles (NFDIV)                   1
       Radius of the Solvent (RSOL)                           1.93000 angstr
  Dielectric Constant (EPSL)                                 78.39000

       COSMO equation is solved iteratively-               conjugate-gradient

       Maximun of Iterations for Charges (NCIX)                  1000
       Criterion for Charge convergence (CCNV)                1.0E-08

  COSMO charges included variationally in SCF

       COSMO included at every SCF cycle

  Geometry-dependent empirical factor                         0.00000

  C-Matrix calculated in cspmtx

  In cspmtx, C-Matrix calculated using fitted potential

-------------------------------------------



 -------------------------------------------
  COSMO surface
  Area             =          516.002
  Volume           =          810.569
  Number of Points =         1304
 -------------------------------------------



 ======================
 RI Hartree-Fock Scheme
 ======================
  
 Fit Set Quality     : GOOD
 Threshold Quality   : GOOD
 Integration Quality : GOOD
 Response Quality    : DEFAULT
 Is Range Separated  :  F
 
 RIHartreeFock Dependency: number of modified vectors:           5
 cosmo_calcen: 0.5 (esolb+esolc) (Hartrees) =   -0.039673

 Solvation energy (screening term,uncorrected) =    -24.895467 kcal/mol

 Solvation energy (dispersion and cavitation terms) =      0.964884 kcal/mol
 Solvation Energy Contributions (Hartrees)
          esola   esolb+esolc
     0.03967345   -0.07934689
 esol last cycle   -0.03967345
  
 Hartree-Fock exchange energy:   -528.242928884985     
 cosmo_calcen: 0.5 (esolb+esolc) (Hartrees) =   -0.039673

 Solvation energy (screening term,uncorrected) =    -24.895479 kcal/mol

 Solvation energy (dispersion and cavitation terms) =      0.964884 kcal/mol
 Solvation Energy Contributions (Hartrees)
          esola   esolb+esolc
     0.03967347   -0.07934693
 esol last cycle   -0.03967347

 Energy gradients wrt nuclear displacements
 ==========================================

     Atom      Cartesian (a.u./angstrom)
                 X         Y         Z
 ----------------------------------------
     1 Pa    0.001149 -0.000143  0.000671
     2 O     0.000743  0.000097 -0.000739
     3 H    -0.000061  0.000209  0.000495
     4 O    -0.001962  0.000526  0.001366
     5 H     0.000764 -0.000132 -0.000528
     6 O     0.000611 -0.000548 -0.002053
     7 H    -0.000333  0.000152  0.000822
     8 O    -0.000894  0.000227  0.000627
     9 H     0.000849 -0.000392 -0.000022
    10 Cl   -0.000866  0.000004 -0.000640
 ----------------------------------------
 Mulliken charges used for AMS results%charges...

 dE(predicted):    -0.17346E-04, dE(actual):    -0.40072E-04, Trust radius:    0.400000, all in a.u.
 
----------------------------------------------------------------------
Geometry Convergence after Step  13       (Hartree/Angstrom,Angstrom)
----------------------------------------------------------------------
current energy                               -2.68581032 Hartree
energy change                      -0.00004007     0.00001000    F
constrained gradient max            0.00205325     0.00010000    F
constrained gradient rms            0.00079637     0.00006667    F
gradient max                        0.00205325
gradient rms                        0.00079637
cart. step max                      0.02048850     0.00100000    F
cart. step rms                      0.00901296     0.00066667    F
 
 
--------
Geometry
--------
Formula: H4ClO4Pa
Atoms
  Index Symbol   x (angstrom)   y (angstrom)   z (angstrom)
      1     Pa     0.34088752    -0.02418591     0.05592733       adf.R=2.200
      2      O     1.02796532     1.64088104    -1.00175981       adf.R=1.517
      3      H     1.32409512     1.88010662    -1.88895994       adf.R=1.350
      4      O    -1.39252623     1.03629749     0.64873068       adf.R=1.517
      5      H    -1.70253268     1.91179688     0.38625217       adf.R=1.350
      6      O     0.44226615    -1.13663553    -1.73931619       adf.R=1.517
      7      H     0.15836434    -2.03634152    -1.94182242       adf.R=1.350
      8      O    -0.34496148    -1.70031951     1.08091263       adf.R=1.517
      9      H    -1.04143353    -2.04702342     1.65141160       adf.R=1.350
     10     Cl     2.55848347     0.01629280     1.57347257       adf.R=1.725
 
Total System Charge             0.00000
Bonding info available!
 
 *** GO1_GOStep14 ***

 SOLVATION
-------------------------------------------

  The Delley construction of COSMO surface surface is calculated

       Division Level for Surface Triangles (NDIV)                  3
       Final Division Level for Triangles (NFDIV)                   1
       Radius of the Solvent (RSOL)                           1.93000 angstr
  Dielectric Constant (EPSL)                                 78.39000

       COSMO equation is solved iteratively-               conjugate-gradient

       Maximun of Iterations for Charges (NCIX)                  1000
       Criterion for Charge convergence (CCNV)                1.0E-08

  COSMO charges included variationally in SCF

       COSMO included at every SCF cycle

  Geometry-dependent empirical factor                         0.00000

  C-Matrix calculated in cspmtx

  In cspmtx, C-Matrix calculated using fitted potential

-------------------------------------------



 -------------------------------------------
  COSMO surface
  Area             =          515.332
  Volume           =          810.126
  Number of Points =         1298
 -------------------------------------------



 ======================
 RI Hartree-Fock Scheme
 ======================
  
 Fit Set Quality     : GOOD
 Threshold Quality   : GOOD
 Integration Quality : GOOD
 Response Quality    : DEFAULT
 Is Range Separated  :  F
 
 RIHartreeFock Dependency: number of modified vectors:           5
 cosmo_calcen: 0.5 (esolb+esolc) (Hartrees) =   -0.040208

 Solvation energy (screening term,uncorrected) =    -25.230841 kcal/mol

 Solvation energy (dispersion and cavitation terms) =      0.963631 kcal/mol
 Solvation Energy Contributions (Hartrees)
          esola   esolb+esolc
     0.04020790   -0.08041580
 esol last cycle   -0.04020790
  
 Hartree-Fock exchange energy:   -528.244881852466     
 cosmo_calcen: 0.5 (esolb+esolc) (Hartrees) =   -0.040208

 Solvation energy (screening term,uncorrected) =    -25.230841 kcal/mol

 Solvation energy (dispersion and cavitation terms) =      0.963631 kcal/mol
 Solvation Energy Contributions (Hartrees)
          esola   esolb+esolc
     0.04020790   -0.08041580
 esol last cycle   -0.04020790

 Energy gradients wrt nuclear displacements
 ==========================================

     Atom      Cartesian (a.u./angstrom)
                 X         Y         Z
 ----------------------------------------
     1 Pa   -0.000571 -0.000508 -0.000638
     2 O     0.001110  0.000226 -0.000662
     3 H    -0.000366 -0.000185  0.001005
     4 O    -0.001546  0.000959  0.000989
     5 H     0.000850 -0.000618 -0.000270
     6 O     0.000418 -0.000861 -0.001327
     7 H    -0.000134  0.000683  0.000909
     8 O    -0.000448  0.000311  0.000774
     9 H     0.001218  0.000041 -0.000445
    10 Cl   -0.000531 -0.000047 -0.000335
 ----------------------------------------
 Mulliken charges used for AMS results%charges...

 dE(predicted):    -0.37016E-04, dE(actual):    -0.50270E-04, Trust radius:    0.400000, all in a.u.
 
----------------------------------------------------------------------
Geometry Convergence after Step  14       (Hartree/Angstrom,Angstrom)
----------------------------------------------------------------------
current energy                               -2.68586059 Hartree
energy change                      -0.00005027     0.00001000    F
constrained gradient max            0.00156899     0.00010000    F
constrained gradient rms            0.00073715     0.00006667    F
gradient max                        0.00156899
gradient rms                        0.00073715
cart. step max                      0.03225428     0.00100000    F
cart. step rms                      0.01448861     0.00066667    F
 
 
--------
Geometry
--------
Formula: H4ClO4Pa
Atoms
  Index Symbol   x (angstrom)   y (angstrom)   z (angstrom)
      1     Pa     0.34847780    -0.02275779     0.06246308       adf.R=2.200
      2      O     1.03477474     1.64311146    -0.99804089       adf.R=1.517
      3      H     1.29794315     1.85216287    -1.90326804       adf.R=1.350
      4      O    -1.38506846     1.03301856     0.65057612       adf.R=1.517
      5      H    -1.71454549     1.90680767     0.40803048       adf.R=1.350
      6      O     0.44742392    -1.13384176    -1.72975176       adf.R=1.517
      7      H     0.17495867    -2.03258944    -1.95026495       adf.R=1.350
      8      O    -0.33220140    -1.70150048     1.09026424       adf.R=1.517
      9      H    -1.07368781    -2.01948095     1.61963785       adf.R=1.350
     10     Cl     2.57253286     0.01593882     1.57520249       adf.R=1.725
 
Total System Charge             0.00000
Bonding info available!
 
 *** GO1_GOStep15 ***

 SOLVATION
-------------------------------------------

  The Delley construction of COSMO surface surface is calculated

       Division Level for Surface Triangles (NDIV)                  3
       Final Division Level for Triangles (NFDIV)                   1
       Radius of the Solvent (RSOL)                           1.93000 angstr
  Dielectric Constant (EPSL)                                 78.39000

       COSMO equation is solved iteratively-               conjugate-gradient

       Maximun of Iterations for Charges (NCIX)                  1000
       Criterion for Charge convergence (CCNV)                1.0E-08

  COSMO charges included variationally in SCF

       COSMO included at every SCF cycle

  Geometry-dependent empirical factor                         0.00000

  C-Matrix calculated in cspmtx

  In cspmtx, C-Matrix calculated using fitted potential

-------------------------------------------



 -------------------------------------------
  COSMO surface
  Area             =          515.880
  Volume           =          811.149
  Number of Points =         1296
 -------------------------------------------



 ======================
 RI Hartree-Fock Scheme
 ======================
  
 Fit Set Quality     : GOOD
 Threshold Quality   : GOOD
 Integration Quality : GOOD
 Response Quality    : DEFAULT
 Is Range Separated  :  F
 
 RIHartreeFock Dependency: number of modified vectors:           5
 cosmo_calcen: 0.5 (esolb+esolc) (Hartrees) =   -0.040646

 Solvation energy (screening term,uncorrected) =    -25.505618 kcal/mol

 Solvation energy (dispersion and cavitation terms) =      0.964656 kcal/mol
 Solvation Energy Contributions (Hartrees)
          esola   esolb+esolc
     0.04064579   -0.08129157
 esol last cycle   -0.04064579
  
 Hartree-Fock exchange energy:   -528.246883150440     
 cosmo_calcen: 0.5 (esolb+esolc) (Hartrees) =   -0.040646

 Solvation energy (screening term,uncorrected) =    -25.505614 kcal/mol

 Solvation energy (dispersion and cavitation terms) =      0.964656 kcal/mol
 Solvation Energy Contributions (Hartrees)
          esola   esolb+esolc
     0.04064578   -0.08129156
 esol last cycle   -0.04064578

 Energy gradients wrt nuclear displacements
 ==========================================

     Atom      Cartesian (a.u./angstrom)
                 X         Y         Z
 ----------------------------------------
     1 Pa   -0.001913 -0.000870 -0.001492
     2 O     0.000982  0.000160 -0.000210
     3 H    -0.000515 -0.000522  0.001037
     4 O    -0.000568  0.001011  0.000443
     5 H     0.000711 -0.000804 -0.000019
     6 O     0.000207 -0.000690 -0.000135
     7 H     0.000014  0.000810  0.000766
     8 O     0.000148  0.000603  0.000342
     9 H     0.001225  0.000386 -0.000626
    10 Cl   -0.000292 -0.000085 -0.000106
 ----------------------------------------
 Mulliken charges used for AMS results%charges...

 dE(predicted):    -0.42538E-04, dE(actual):    -0.75221E-05, Trust radius:    0.400000, all in a.u.
 
----------------------------------------------------------------------
Geometry Convergence after Step  15       (Hartree/Angstrom,Angstrom)
----------------------------------------------------------------------
current energy                               -2.68586811 Hartree
energy change                      -0.00000752     0.00001000    T
constrained gradient max            0.00191669     0.00010000    F
constrained gradient rms            0.00073907     0.00006667    F
gradient max                        0.00191669
gradient rms                        0.00073907
cart. step max                      0.02181952     0.00100000    F
cart. step rms                      0.00896596     0.00066667    F
 
 
--------
Geometry
--------
Formula: H4ClO4Pa
Atoms
  Index Symbol   x (angstrom)   y (angstrom)   z (angstrom)
      1     Pa     0.35619174    -0.02272698     0.06837361       adf.R=2.200
      2      O     1.03269698     1.64231240    -1.00142010       adf.R=1.517
      3      H     1.28392767     1.83984500    -1.91301631       adf.R=1.350
      4      O    -1.37699379     1.03131131     0.65219975       adf.R=1.517
      5      H    -1.72063313     1.90382855     0.42505359       adf.R=1.350
      6      O     0.45162388    -1.13358152    -1.72193580       adf.R=1.517
      7      H     0.18927190    -2.03135175    -1.95835347       adf.R=1.350
      8      O    -0.33323879    -1.70078777     1.09448704       adf.R=1.517
      9      H    -1.09550733    -2.00536553     1.60272359       adf.R=1.350
     10     Cl     2.58326886     0.01738525     1.57673672       adf.R=1.725
 
Total System Charge             0.00000
Bonding info available!
 
 *** GO1_GOStep16 ***

 SOLVATION
-------------------------------------------

  The Delley construction of COSMO surface surface is calculated

       Division Level for Surface Triangles (NDIV)                  3
       Final Division Level for Triangles (NFDIV)                   1
       Radius of the Solvent (RSOL)                           1.93000 angstr
  Dielectric Constant (EPSL)                                 78.39000

       COSMO equation is solved iteratively-               conjugate-gradient

       Maximun of Iterations for Charges (NCIX)                  1000
       Criterion for Charge convergence (CCNV)                1.0E-08

  COSMO charges included variationally in SCF

       COSMO included at every SCF cycle

  Geometry-dependent empirical factor                         0.00000

  C-Matrix calculated in cspmtx

  In cspmtx, C-Matrix calculated using fitted potential

-------------------------------------------



 -------------------------------------------
  COSMO surface
  Area             =          515.734
  Volume           =          810.916
  Number of Points =         1290
 -------------------------------------------



 ======================
 RI Hartree-Fock Scheme
 ======================
  
 Fit Set Quality     : GOOD
 Threshold Quality   : GOOD
 Integration Quality : GOOD
 Response Quality    : DEFAULT
 Is Range Separated  :  F
 
 RIHartreeFock Dependency: number of modified vectors:           5
 cosmo_calcen: 0.5 (esolb+esolc) (Hartrees) =   -0.040503

 Solvation energy (screening term,uncorrected) =    -25.416008 kcal/mol

 Solvation energy (dispersion and cavitation terms) =      0.964382 kcal/mol
 Solvation Energy Contributions (Hartrees)
          esola   esolb+esolc
     0.04050298   -0.08100596
 esol last cycle   -0.04050298
  
 Hartree-Fock exchange energy:   -528.246890383248     
 cosmo_calcen: 0.5 (esolb+esolc) (Hartrees) =   -0.040503

 Solvation energy (screening term,uncorrected) =    -25.416002 kcal/mol

 Solvation energy (dispersion and cavitation terms) =      0.964382 kcal/mol
 Solvation Energy Contributions (Hartrees)
          esola   esolb+esolc
     0.04050297   -0.08100595
 esol last cycle   -0.04050297

 Energy gradients wrt nuclear displacements
 ==========================================

     Atom      Cartesian (a.u./angstrom)
                 X         Y         Z
 ----------------------------------------
     1 Pa   -0.001551 -0.000788 -0.001198
     2 O     0.000432 -0.000037  0.000291
     3 H    -0.000378 -0.000440  0.000416
     4 O     0.000205  0.000563  0.000095
     5 H     0.000325 -0.000465  0.000098
     6 O     0.000096 -0.000209  0.000529
     7 H     0.000011  0.000431  0.000396
     8 O     0.000571  0.000813 -0.000287
     9 H     0.000573  0.000195 -0.000245
[...]
    30          3820.6494             346.6917

 Zero-point energy (Hartree):     0.0468

 ------------
 Normal Modes
 ------------

 Number of removed rigid normal modes: 6
 
 Mode:     7      Frequency (cm-1):       58.3162     Intensity (km/mol):        2.9675
 Index  Atom      ---- Displacements (x/y/z) ----
     1    Pa       0.007997  -0.010757  -0.030535
     2     O      -0.014485  -0.101612  -0.194140
     3     H      -0.233419  -0.128318  -0.218761
     4     O       0.064138   0.188533   0.380573
     5     H      -0.022406   0.251438   0.562675
     6     O      -0.161585   0.031287  -0.070501
     7     H       0.027816  -0.209982   0.226567
     8     O       0.062708  -0.140009  -0.181746
     9     H       0.059025  -0.096953  -0.115668
    10    Cl      -0.025453   0.086343   0.218735
 
 Mode:     8      Frequency (cm-1):       86.0574     Intensity (km/mol):       16.2974
 Index  Atom      ---- Displacements (x/y/z) ----
     1    Pa      -0.004284   0.026463   0.047682
     2     O       0.020530  -0.129585  -0.196915
     3     H       0.138766  -0.444073  -0.338434
     4     O      -0.016417  -0.013428  -0.093597
     5     H      -0.014808  -0.103955  -0.224557
     6     O       0.059350  -0.001648   0.054249
     7     H       0.096060  -0.133740   0.285299
     8     O      -0.052089  -0.156386  -0.228883
     9     H      -0.044094  -0.314379  -0.487047
    10    Cl       0.018034  -0.008429  -0.080232
 
 Mode:     9      Frequency (cm-1):      100.9552     Intensity (km/mol):      140.4579
 Index  Atom      ---- Displacements (x/y/z) ----
     1    Pa       0.002415  -0.010415   0.008986
     2     O       0.113084  -0.038984   0.026354
     3     H      -0.601421   0.328027   0.160878
     4     O       0.064407   0.040660  -0.120918
     5     H      -0.286337  -0.351631  -0.305667
     6     O      -0.184339   0.034054  -0.020127
     7     H      -0.321743   0.077885   0.031387
     8     O      -0.007949  -0.026518  -0.012277
     9     H       0.002389  -0.094015  -0.096160
    10    Cl       0.025603   0.065744   0.004743
 
 Mode:    10      Frequency (cm-1):      111.6394     Intensity (km/mol):       14.4512
 Index  Atom      ---- Displacements (x/y/z) ----
     1    Pa      -0.003124  -0.029106   0.007107
     2     O      -0.064081   0.018425   0.055092
     3     H      -0.359782   0.260032   0.152797
     4     O       0.079154   0.212001  -0.006766
     5     H       0.365070   0.504212   0.105591
     6     O       0.106160  -0.079383   0.027343
     7     H       0.327067  -0.248843   0.146503
     8     O      -0.195362   0.026209  -0.046270
     9     H      -0.214854   0.094176   0.001490
    10    Cl       0.051159   0.093655  -0.072114
 
 Mode:    11      Frequency (cm-1):      127.6399     Intensity (km/mol):       18.7768
 Index  Atom      ---- Displacements (x/y/z) ----
     1    Pa       0.033811   0.007683   0.003926
     2     O      -0.232054   0.078805  -0.089002
     3     H      -0.754626   0.188981  -0.065427
     4     O      -0.010022  -0.095382  -0.020486
     5     H       0.101385   0.026735   0.034647
     6     O      -0.033503  -0.007140   0.018113
     7     H      -0.342065   0.212761  -0.113592
     8     O      -0.115511   0.042253  -0.034267
     9     H      -0.166033   0.025078  -0.266691
    10    Cl      -0.011030  -0.072309   0.043380
 
 Mode:    12      Frequency (cm-1):      151.0150     Intensity (km/mol):       64.8535
 Index  Atom      ---- Displacements (x/y/z) ----
     1    Pa      -0.003006   0.021060  -0.008256
     2     O       0.001170   0.051681   0.060388
     3     H      -0.335867   0.456188   0.232410
     4     O       0.009682   0.014288  -0.024145
     5     H      -0.094361   0.030368   0.110237
     6     O       0.010506  -0.160356   0.080134
     7     H       0.175746  -0.446342   0.493219
     8     O       0.131280  -0.066381  -0.048764
     9     H       0.180330  -0.161872  -0.029489
    10    Cl      -0.047823  -0.062102   0.000380
 
 Mode:    13      Frequency (cm-1):      156.5408     Intensity (km/mol):      102.6451
 Index  Atom      ---- Displacements (x/y/z) ----
     1    Pa      -0.000545   0.000835   0.004748
     2     O       0.015130  -0.032394  -0.050670
     3     H      -0.400444   0.090404  -0.014844
     4     O       0.015266  -0.018334   0.039223
     5     H      -0.319955  -0.354264  -0.082628
     6     O       0.082879   0.081916  -0.074294
     7     H       0.409097  -0.223953   0.212664
     8     O      -0.016862   0.008823   0.022319
     9     H      -0.143689   0.436039   0.309248
    10    Cl      -0.027388  -0.022329  -0.014592
 
 Mode:    14      Frequency (cm-1):      174.4112     Intensity (km/mol):       10.3272
 Index  Atom      ---- Displacements (x/y/z) ----
     1    Pa      -0.013197  -0.009586   0.011821
     2     O      -0.077914  -0.024135  -0.085917
     3     H      -0.409391  -0.047198  -0.113954
     4     O       0.042457   0.146590  -0.120301
     5     H       0.320248   0.357468  -0.115854
     6     O       0.068246   0.109111  -0.046174
     7     H       0.149086   0.218797  -0.351148
     8     O       0.187870  -0.027774   0.082975
     9     H       0.351270  -0.344075   0.149513
    10    Cl      -0.025594  -0.035214   0.011824
 
 Mode:    15      Frequency (cm-1):      191.6742     Intensity (km/mol):      364.8709
 Index  Atom      ---- Displacements (x/y/z) ----
     1    Pa      -0.011555   0.004700  -0.004732
     2     O       0.102908  -0.038018  -0.025120
     3     H      -0.368347   0.137075   0.032215
     4     O       0.018253   0.001317   0.082825
     5     H      -0.329919  -0.115054   0.289244
     6     O       0.148967  -0.061116   0.058833
     7     H      -0.286317   0.421896  -0.477923
     8     O      -0.012763   0.007869   0.018529
     9     H       0.015361  -0.195665  -0.247590
    10    Cl      -0.013447   0.002933  -0.018874
 
 Mode:    16      Frequency (cm-1):      227.4710     Intensity (km/mol):      236.4757
 Index  Atom      ---- Displacements (x/y/z) ----
     1    Pa      -0.081260   0.027889  -0.016945
     2     O      -0.015032  -0.064264  -0.015247
     3     H      -0.285917   0.231371   0.107461
     4     O      -0.034592  -0.028324  -0.039951
     5     H      -0.229430   0.109802   0.366295
     6     O       0.040491   0.017638  -0.000995
     7     H      -0.017990  -0.025353   0.140752
     8     O       0.019368   0.028805  -0.067754
     9     H       0.076440   0.192891   0.467919
    10    Cl       0.545362  -0.177815   0.137449
 
 Mode:    17      Frequency (cm-1):      236.2378     Intensity (km/mol):      617.4451
 Index  Atom      ---- Displacements (x/y/z) ----
     1    Pa       0.000571   0.002001   0.006779
     2     O       0.056173  -0.038981  -0.010796
     3     H      -0.120294   0.046966   0.019884
     4     O      -0.021334  -0.067041  -0.053779
     5     H       0.205433   0.454227   0.449107
     6     O       0.018746   0.002546  -0.049886
     7     H      -0.453533   0.100748   0.229492
     8     O       0.015249  -0.027503  -0.032341
     9     H      -0.042793   0.318897   0.376933
    10    Cl      -0.023404   0.020149  -0.008636
 
 Mode:    18      Frequency (cm-1):      250.8742     Intensity (km/mol):       66.3737
 Index  Atom      ---- Displacements (x/y/z) ----
     1    Pa      -0.001054  -0.000671   0.000655
     2     O      -0.082402   0.043701   0.010401
     3     H       0.236023  -0.096271  -0.037638
     4     O       0.062903   0.092878  -0.002028
     5     H      -0.200002  -0.319934  -0.310404
     6     O       0.041589  -0.061940   0.030144
     7     H      -0.471141   0.245498  -0.072720
     8     O       0.031775  -0.075759  -0.057655
     9     H      -0.062080   0.402773   0.450906
    10    Cl      -0.003347  -0.001742   0.003559
 
 Mode:    19      Frequency (cm-1):      284.3456     Intensity (km/mol):       40.0160
 Index  Atom      ---- Displacements (x/y/z) ----
     1    Pa       0.000170   0.000490  -0.001694
     2     O       0.032296   0.071088   0.018797
     3     H      -0.209799  -0.414764  -0.224076
     4     O       0.028109  -0.014838  -0.054519
     5     H      -0.152373   0.129248   0.346725
     6     O      -0.072214  -0.012129   0.092394
     7     H       0.437129  -0.004503  -0.437022
     8     O       0.015034  -0.060276  -0.014073
     9     H      -0.169289   0.364327   0.041538
    10    Cl       0.000122   0.002008  -0.000432
 
 Mode:    20      Frequency (cm-1):      306.2306     Intensity (km/mol):      253.0463
 Index  Atom      ---- Displacements (x/y/z) ----
     1    Pa      -0.003546  -0.004943   0.000696
     2     O      -0.033431   0.059162   0.028508
     3     H       0.031154  -0.426359  -0.197643
     4     O       0.087696   0.029141  -0.045548
     5     H      -0.438072  -0.049066   0.409437
     6     O       0.029321   0.008703  -0.071267
     7     H      -0.246359  -0.105522   0.436143
     8     O       0.001167   0.024959   0.056253
     9     H      -0.006432  -0.164074  -0.318307
    10    Cl       0.003676  -0.001658   0.000565
 
 Mode:    21      Frequency (cm-1):      318.3029     Intensity (km/mol):      281.6420
 Index  Atom      ---- Displacements (x/y/z) ----
     1    Pa       0.002842   0.003599   0.002829
     2     O      -0.077686  -0.081796  -0.044912
     3     H       0.475399   0.546327   0.283688
     4     O       0.063217   0.001124  -0.056258
     5     H      -0.298251   0.036939   0.385671
     6     O      -0.022685   0.022101   0.002711
     7     H       0.150046   0.028190  -0.182198
     8     O      -0.001825  -0.046961   0.039708
     9     H      -0.144891   0.141852  -0.177728
    10    Cl      -0.006200   0.002782  -0.000736
 
 Mode:    22      Frequency (cm-1):      350.3812     Intensity (km/mol):      325.4679
 Index  Atom      ---- Displacements (x/y/z) ----
     1    Pa      -0.005314   0.003647  -0.004585
     2     O       0.010557  -0.017757   0.020161
     3     H      -0.093311  -0.031718   0.006763
     4     O      -0.023785   0.015021   0.021811
     5     H       0.290401   0.063600  -0.248749
     6     O       0.020336  -0.005539  -0.016413
     7     H      -0.135126   0.010349   0.107790
     8     O       0.058936  -0.074110   0.082475
     9     H      -0.388601   0.486874  -0.634889
    10    Cl       0.014312  -0.001660   0.003045
 
 Mode:    23      Frequency (cm-1):      497.9369     Intensity (km/mol):       76.2473
 Index  Atom      ---- Displacements (x/y/z) ----
     1    Pa       0.023504  -0.003645   0.007836
     2     O      -0.097455  -0.206703   0.148057
     3     H      -0.160284  -0.320200   0.087725
     4     O      -0.274215   0.140336  -0.050800
     5     H      -0.609616   0.036391   0.169161
     6     O      -0.009670  -0.059420  -0.059576
     7     H       0.033246   0.006782  -0.233685
     8     O       0.104856   0.173721  -0.131391
     9     H      -0.000697   0.329356  -0.245690
    10    Cl      -0.007574   0.000646  -0.002496
 
 Mode:    24      Frequency (cm-1):      525.1837     Intensity (km/mol):      234.6791
 Index  Atom      ---- Displacements (x/y/z) ----
     1    Pa       0.022888  -0.006147  -0.032495
     2     O      -0.013399  -0.028236   0.020303
     3     H      -0.071680  -0.043028   0.009960
     4     O      -0.222582   0.099300  -0.026964
     5     H      -0.373764   0.076730   0.106544
     6     O       0.036833   0.206305   0.267519
     7     H      -0.188769   0.142130   0.617625
     8     O      -0.099696  -0.179323   0.139683
     9     H      -0.013408  -0.282472   0.280097
    10    Cl       0.004140  -0.001160   0.002252
 
 Mode:    25      Frequency (cm-1):      537.4156     Intensity (km/mol):      428.9976
 Index  Atom      ---- Displacements (x/y/z) ----
     1    Pa       0.009352   0.043646  -0.014696
     2     O      -0.093718  -0.234981   0.181340
     3     H      -0.299018  -0.520639   0.032006
     4     O       0.091650  -0.051841   0.019839
     5     H       0.181088  -0.046173  -0.070802
     6     O      -0.018396  -0.096561  -0.114916
     7     H       0.098930  -0.081294  -0.261597
     8     O      -0.113927  -0.176782   0.121012
     9     H       0.065934  -0.411547   0.384309
    10    Cl      -0.001670  -0.001604  -0.000130
 
 Mode:    26      Frequency (cm-1):      631.6758     Intensity (km/mol):      158.4769
 Index  Atom      ---- Displacements (x/y/z) ----
     1    Pa       0.017996   0.005722   0.023337
     2     O       0.091041   0.222502  -0.149144
     3     H       0.147178   0.286393  -0.119622
     4     O      -0.282303   0.120137  -0.030503
     5     H      -0.404125   0.090570   0.049103
     6     O      -0.024316  -0.204041  -0.296637
     7     H       0.062043  -0.183182  -0.438634
     8     O      -0.099481  -0.197908   0.142598
     9     H      -0.068382  -0.245740   0.190723
    10    Cl       0.032800  -0.009177   0.007620
 
 Mode:    27      Frequency (cm-1):     3789.8015     Intensity (km/mol):      404.3956
 Index  Atom      ---- Displacements (x/y/z) ----
     1    Pa       0.000025   0.000026  -0.000036
     2     O       0.000514   0.004489  -0.009562
     3     H      -0.008261  -0.072436   0.153512
     4     O      -0.002082   0.002913  -0.002080
     5     H       0.037013  -0.049787   0.034570
     6     O      -0.000965  -0.001829  -0.000688
     7     H       0.014970   0.030255   0.014607
     8     O       0.054076   0.025355  -0.013857
     9     H      -0.864489  -0.405500   0.221492
    10    Cl      -0.000085   0.000019  -0.000009
 
 Mode:    28      Frequency (cm-1):     3796.6106     Intensity (km/mol):      203.1713
 Index  Atom      ---- Displacements (x/y/z) ----
     1    Pa       0.000018   0.000025  -0.000009
     2     O       0.003004   0.025863  -0.054594
     3     H      -0.048272  -0.412911   0.871929
     4     O       0.005886  -0.008251   0.005814
     5     H      -0.099633   0.133288  -0.092608
     6     O       0.001532   0.002934   0.001319
     7     H      -0.025280  -0.050844  -0.024782
     8     O      -0.008381  -0.003952   0.002140
     9     H       0.133403   0.062609  -0.034535
    10    Cl       0.000097  -0.000034   0.000039
 
 Mode:    29      Frequency (cm-1):     3807.3612     Intensity (km/mol):      365.2022
 Index  Atom      ---- Displacements (x/y/z) ----
     1    Pa      -0.000020   0.000039   0.000002
     2     O       0.000750   0.004722  -0.009694
     3     H      -0.008902  -0.071679   0.152178
     4     O      -0.032127   0.042577  -0.029596
     5     H       0.510009  -0.678409   0.472710
     6     O       0.003158   0.006011   0.002795
     7     H      -0.049918  -0.099979  -0.049594
     8     O      -0.005298  -0.002748   0.001530
     9     H       0.083367   0.039194  -0.021400
    10    Cl       0.000059  -0.000016   0.000016
 
 Mode:    30      Frequency (cm-1):     3820.6494     Intensity (km/mol):      346.6917
 Index  Atom      ---- Displacements (x/y/z) ----
     1    Pa      -0.000007  -0.000018  -0.000004
     2     O       0.000385   0.002358  -0.004375
     3     H      -0.003842  -0.032105   0.067155
     4     O      -0.003829   0.004790  -0.003193
     5     H       0.054893  -0.073585   0.051242
     6     O      -0.025260  -0.050802  -0.025420
     7     H       0.403947   0.808005   0.400144
     8     O      -0.003310  -0.001726   0.001118
     9     H       0.050640   0.023418  -0.012833
    10    Cl       0.000115  -0.000038   0.000032

PES point character: Geometry corresponds to a local minimum on the PES.




 ============================
 Statistical Thermal Analysis  ***  ideal gas assumed  ***
 ============================
  
 Pressure:                  1.000000 atm.
 Temperature:             298.150000 K



 Moments of Inertia [amu*bohr^2] and principal axis
 ==================================================

         842.2645       1438.3457       1716.6663
 ------------------------------------------------
          -0.9382          0.3452         -0.0248
           0.2666          0.7665          0.5843
          -0.2207         -0.5416          0.8111


 The rotational contribution to the molecular entropy includes
 a term, dependent on the symmetry number sigma. The results 
 reported below were computed using sigma = 1, determined from
 the point group symmetry of the input geometry (NOSYM). 
 If this is not the correct symmetry, try symmetrizing the molecule before
 running the calculation (note: linear molecules should be aligned along one
 of the Cartesian axes).
 Contributions from frequencies below 20 1/cm are not included in vibrational sums.
 Their contributions, if any, are reported separately.


     Temp                                                        Transl      Rotat     Vibrat     Total
     ----                                                        ------      -----     ------     -----

     298.15   Entropy (cal/mol-K):                               43.313     29.121     40.826    113.260
              Nuclear Internal Energy (kcal/mol):                 0.889      0.889     35.669     37.446
              Constant Volume Heat Capacity (cal/mol-K):          2.981      2.981     33.774     39.736
          (c) Constant Volume Heat Capacity (cal/mol-K):          2.981      2.981     30.656     36.618

       Summary of energy terms
                                                   hartree              eV         kcal/mol           kJ/mol
                                      --------------------     -----------       ----------      -----------
      Energy from Engine:               -2.685076443901754        -73.0646         -1684.91         -7049.67
      Nuclear Internal Energy:           0.059674733624574          1.6238            37.45           156.68
  (c) Nuclear Internal Energy:           0.058031175884587          1.5791            36.42           152.36
      Internal Energy U:                -2.625401710277181        -71.4408         -1647.46         -6892.99
      pV/n = RT:                         0.000944186013486          0.0257             0.59             2.48
      Enthalpy H:                       -2.624457524263695        -71.4151         -1646.87         -6890.51
      -T*S:                             -0.053813615872638         -1.4643           -33.77          -141.29
  (c) -T*S:                             -0.052812698307443         -1.4371           -33.14          -138.66
      Gibbs free energy:                -2.678271140136332        -72.8795         -1680.64         -7031.80
 
 
 
  (c) The properties marked with this symbol have been corrected using 'low vibrational frequency free rotor
      interpolation corrections'. For those terms all positive frequencies are used (also ones below 20 1/cm),
      but the contribution to the partition function of small vibrational frequencies is modified as described
      in the following paper:
      S. Grimme, 'Supramolecular Binding Thermodynamics by Dispersion-Corrected Density Functional Theory'
      (Chem. Eur. J. 2012, 18, 9955-9964)
      Configuration: Dampener Frequency          :   100.000 1/cm
                     Dampener Alpha              :     4.000
                     Averaging Moment of Inertia : 1.000E-44 kg m2

--------------
Atomic charges
--------------
  Index   Atom    Charge
      1     Pa    2.7351
      2      O   -0.6494
      3      H    0.1237
      4      O   -0.6878
      5      H    0.1308
      6      O   -0.6874
      7      H    0.1283
      8      O   -0.6608
      9      H    0.1385
     10     Cl   -0.5710


Dipole moment vector    (Debye):    -7.29084130    2.75681429   -1.32714221
              magnitude (Debye):     7.90681341


Final PES point is a local minimum. Geometry optimization successful!


AMS application finished. Exiting.
NORMAL TERMINATION
     Total cpu time:   67401.90
  Total system time:    1245.82
 Total elapsed time:   68725.70
