 Entering Gaussian System, Link 0=/home/pcmt/gaussian/g16.C.01/g16/g16
 AtFile(1): /home/shaaban/basis.gaussian/Pa-def-TZVP
 AtFile(1): /home/shaaban/basis.gaussian/Pa-ECP60MWB
 Initial command:
 /home/pcmt/gaussian/g16.C.01/g16/l1.exe "/state/partition2/shaaban/972895.phlam-s-sakura/Gau-39281.inp" -scrdir="/state/partition2/shaaban/972895.phlam-s-sakura/"
 Entering Link 1 = /home/pcmt/gaussian/g16.C.01/g16/l1.exe PID=     39282.
  
 Copyright (c) 1988-2019, Gaussian, Inc.  All Rights Reserved.
  
 This is part of the Gaussian(R) 16 program.  It is based on
 the Gaussian(R) 09 system (copyright 2009, Gaussian, Inc.),
 the Gaussian(R) 03 system (copyright 2003, Gaussian, Inc.),
 the Gaussian(R) 98 system (copyright 1998, Gaussian, Inc.),
 the Gaussian(R) 94 system (copyright 1995, Gaussian, Inc.),
 the Gaussian 92(TM) system (copyright 1992, Gaussian, Inc.),
 the Gaussian 90(TM) system (copyright 1990, Gaussian, Inc.),
 the Gaussian 88(TM) system (copyright 1988, Gaussian, Inc.),
 the Gaussian 86(TM) system (copyright 1986, Carnegie Mellon
 University), and the Gaussian 82(TM) system (copyright 1983,
 Carnegie Mellon University). Gaussian is a federally registered
 trademark of Gaussian, Inc.
  
 This software contains proprietary and confidential information,
 including trade secrets, belonging to Gaussian, Inc.
  
 This software is provided under written license and may be
 used, copied, transmitted, or stored only in accord with that
 written license.
  
 The following legend is applicable only to US Government
 contracts under FAR:
  
                    RESTRICTED RIGHTS LEGEND
  
 Use, reproduction and disclosure by the US Government is
 subject to restrictions as set forth in subparagraphs (a)
 and (c) of the Commercial Computer Software - Restricted
 Rights clause in FAR 52.227-19.
  
 Gaussian, Inc.
 340 Quinnipiac St., Bldg. 40, Wallingford CT 06492
  
  
 ---------------------------------------------------------------
 Warning -- This program may not be used in any manner that
 competes with the business of Gaussian, Inc. or will provide
 assistance to any competitor of Gaussian, Inc.  The licensee
 of this program is prohibited from giving any competitor of
 Gaussian, Inc. access to this program.  By using this program,
 the user acknowledges that Gaussian, Inc. is engaged in the
 business of creating and licensing software in the field of
 computational chemistry and represents and warrants to the
 licensee that it is not a competitor of Gaussian, Inc. and that
 it will not use this program in any manner prohibited above.
 ---------------------------------------------------------------
  

 Cite this work as:
 Gaussian 16, Revision C.01,
 M. J. Frisch, G. W. Trucks, H. B. Schlegel, G. E. Scuseria, 
 M. A. Robb, J. R. Cheeseman, G. Scalmani, V. Barone, 
 G. A. Petersson, H. Nakatsuji, X. Li, M. Caricato, A. V. Marenich, 
 J. Bloino, B. G. Janesko, R. Gomperts, B. Mennucci, H. P. Hratchian, 
 J. V. Ortiz, A. F. Izmaylov, J. L. Sonnenberg, D. Williams-Young, 
 F. Ding, F. Lipparini, F. Egidi, J. Goings, B. Peng, A. Petrone, 
 T. Henderson, D. Ranasinghe, V. G. Zakrzewski, J. Gao, N. Rega, 
 G. Zheng, W. Liang, M. Hada, M. Ehara, K. Toyota, R. Fukuda, 
 J. Hasegawa, M. Ishida, T. Nakajima, Y. Honda, O. Kitao, H. Nakai, 
 T. Vreven, K. Throssell, J. A. Montgomery, Jr., J. E. Peralta, 
 F. Ogliaro, M. J. Bearpark, J. J. Heyd, E. N. Brothers, K. N. Kudin, 
 V. N. Staroverov, T. A. Keith, R. Kobayashi, J. Normand, 
 K. Raghavachari, A. P. Rendell, J. C. Burant, S. S. Iyengar, 
 J. Tomasi, M. Cossi, J. M. Millam, M. Klene, C. Adamo, R. Cammi, 
 J. W. Ochterski, R. L. Martin, K. Morokuma, O. Farkas, 
 J. B. Foresman, and D. J. Fox, Gaussian, Inc., Wallingford CT, 2019.
 
 ******************************************
 Gaussian 16:  ES64L-G16RevC.01  3-Jul-2019
                 4-Jul-2023 
 ******************************************
 %mem=16Gb
 %NProc=8
 Will use up to    8 processors via shared memory.
 %chk=pao_oh2_no3_h2o-bp86-cosmors-deftzvp-gp.chk
 ----------------------------------------------------------------------
 #p BP86/GEN Pseudo=Read GFInput GFPrint IOP(6/7=3) Symm=(Loose) Int=(U
 ltraFine) Guess=(Harris) Scf=(NoVarAcc,MaxCycle=100,conver=8)
 ----------------------------------------------------------------------
 1/38=1,172=1/1;
 2/12=2,17=4,18=3,40=1/2;
 3/5=7,11=2,16=1,17=8,24=110,25=1,30=1,74=404,75=-5/1,2,3;
 4/11=8/1;
 5/5=2,6=8,7=100,38=1/2;
 6/7=3,8=2,9=2,10=2,28=1/1;
 99/5=1,9=1/99;
 Leave Link    1 at Tue Jul  4 11:34:35 2023, MaxMem=  2147483648 cpu:               0.7 elap:               0.1
 (Enter /home/pcmt/gaussian/g16.C.01/g16/l101.exe)
 ------------------------------------------------------------------
 pao_oh2_no3_h2o-bp86-cosmors-deftzvp-gp.com SGP in PCM calculation
 ------------------------------------------------------------------
 Symbolic Z-matrix:
 Charge =  0 Multiplicity = 1
 Pa                   -0.19475   0.45628   0.05331 
 O                     1.32791   1.15904  -1.1898 
 H                    -1.39729   0.71602  -2.52013 
 O                    -1.41397  -0.27395   1.25269 
 O                    -1.53276   0.3763   -1.62775 
 O                     0.795    -1.79841  -0.28157 
 H                     1.50237  -2.02259  -0.9005 
 H                     0.43564  -2.62863   0.0576 
 H                     1.47946   1.45431  -2.09745 
 O                     0.40171   2.35007   1.66432 
 O                    -1.14772   2.79984   0.23109 
 N                    -0.42906   3.20394   1.20796 
 O                    -0.53084   4.32147   1.66669 
 
 ITRead=  0  0  0  0  0  0  0  0  0  0  0  0  0
 MicOpt= -1 -1 -1 -1 -1 -1 -1 -1 -1 -1 -1 -1 -1
 NAtoms=     13 NQM=       13 NQMF=       0 NMMI=      0 NMMIF=      0
                NMic=       0 NMicF=      0.
                    Isotopes and Nuclear Properties:
 (Nuclear quadrupole moments (NQMom) in fm**2, nuclear magnetic moments (NMagM)
  in nuclear magnetons)

  Atom         1           2           3           4           5           6           7           8           9          10
 IAtWgt=         231          16           1          16          16          16           1           1           1          16
 AtmWgt= 231.0359000  15.9949146   1.0078250  15.9949146  15.9949146  15.9949146   1.0078250   1.0078250   1.0078250  15.9949146
 NucSpn=           3           0           1           0           0           0           1           1           1           0
 AtZEff=  -0.0000000  -0.0000000  -0.0000000  -0.0000000  -0.0000000  -0.0000000  -0.0000000  -0.0000000  -0.0000000  -0.0000000
 NQMom= -172.0000000   0.0000000   0.0000000   0.0000000   0.0000000   0.0000000   0.0000000   0.0000000   0.0000000   0.0000000
 NMagM=    2.0100000   0.0000000   2.7928460   0.0000000   0.0000000   0.0000000   2.7928460   2.7928460   2.7928460   0.0000000
 AtZNuc=  91.0000000   8.0000000   1.0000000   8.0000000   8.0000000   8.0000000   1.0000000   1.0000000   1.0000000   8.0000000

  Atom        11          12          13
 IAtWgt=          16          14          16
 AtmWgt=  15.9949146  14.0030740  15.9949146
 NucSpn=           0           2           0
 AtZEff=  -0.0000000  -0.0000000  -0.0000000
 NQMom=    0.0000000   2.0440000   0.0000000
 NMagM=    0.0000000   0.4037610   0.0000000
 AtZNuc=   8.0000000   7.0000000   8.0000000
 Leave Link  101 at Tue Jul  4 11:34:35 2023, MaxMem=  2147483648 cpu:               1.3 elap:               0.2
 (Enter /home/pcmt/gaussian/g16.C.01/g16/l202.exe)
                          Input orientation:                          
 ---------------------------------------------------------------------
 Center     Atomic      Atomic             Coordinates (Angstroms)
 Number     Number       Type             X           Y           Z
 ---------------------------------------------------------------------
      1         91           0       -0.194754    0.456277    0.053312
      2          8           0        1.327912    1.159043   -1.189798
      3          1           0       -1.397292    0.716023   -2.520132
      4          8           0       -1.413966   -0.273955    1.252687
      5          8           0       -1.532764    0.376300   -1.627754
      6          8           0        0.794996   -1.798408   -0.281570
      7          1           0        1.502367   -2.022588   -0.900503
      8          1           0        0.435638   -2.628634    0.057603
      9          1           0        1.479462    1.454310   -2.097448
     10          8           0        0.401711    2.350068    1.664317
     11          8           0       -1.147716    2.799837    0.231090
     12          7           0       -0.429059    3.203937    1.207965
     13          8           0       -0.530841    4.321470    1.666690
 ---------------------------------------------------------------------
                    Distance matrix (angstroms):
                    1          2          3          4          5
     1  Pa   0.000000
     2  O    2.087514   0.000000
     3  H    2.852399   3.064766   0.000000
     4  O    1.859628   3.941714   3.900576   0.000000
     5  O    2.150035   2.997992   0.964418   2.955314   0.000000
     6  O    2.485027   3.139330   4.017418   3.091507   3.458328
     7  H    3.151945   3.199516   4.304789   4.024791   3.936442
     8  H    3.148665   4.086399   4.603377   3.223938   3.967954
     9  H    2.902558   0.966427   2.999908   4.752077   3.233608
    10  O    2.556864   3.228368   4.839022   3.217394   4.298335
    11  O    2.536142   3.292394   3.460317   3.250038   3.078489
    12  N    2.989608   3.608019   4.585400   3.614937   4.153913
    13  O    4.201863   4.649239   5.592804   4.697791   5.236561
                    6          7          8          9         10
     6  O    0.000000
     7  H    0.966286   0.000000
     8  H    0.966153   1.556653   0.000000
     9  H    3.787622   3.677230   4.733312   0.000000
    10  O    4.599022   5.187473   5.231650   4.014326   0.000000
    11  O    5.018048   5.617760   5.657332   3.759601   2.158045
    12  N    5.361015   5.957567   6.007488   4.198738   1.275746
    13  O    6.557931   7.139431   7.199110   5.141076   2.180844
                   11         12         13
    11  O    0.000000
    12  N    1.278299   0.000000
    13  O    2.181020   1.212299   0.000000
 Stoichiometry    H4NO7Pa
 Framework group  C1[X(H4NO7Pa)]
 Deg. of freedom    33
 Full point group                 C1      NOp   1
 Largest Abelian subgroup         C1      NOp   1
 Largest concise Abelian subgroup C1      NOp   1
                         Standard orientation:                         
 ---------------------------------------------------------------------
 Center     Atomic      Atomic             Coordinates (Angstroms)
 Number     Number       Type             X           Y           Z
 ---------------------------------------------------------------------
      1         91           0       -0.388680   -0.071275    0.000633
      2          8           0       -0.394792    1.656698   -1.170600
      3          1           0       -0.975902    2.052058    1.812485
      4          8           0       -0.460725   -1.702739    0.890211
      5          8           0       -0.935202    1.092586    1.723824
      6          8           0       -2.704486   -0.440648   -0.821536
      7          1           0       -3.228666    0.181456   -1.343005
      8          1           0       -3.295932   -1.151706   -0.542179
      9          1           0       -0.484009    2.615833   -1.092621
     10          8           0        1.886282   -0.623350   -1.027625
     11          8           0        1.945102    0.481415    0.825262
     12          7           0        2.598198   -0.066898   -0.127034
     13          8           0        3.809696   -0.056875   -0.169916
 ---------------------------------------------------------------------
 Rotational constants (GHZ):           1.9141770           0.6597433           0.6525636
 Leave Link  202 at Tue Jul  4 11:34:35 2023, MaxMem=  2147483648 cpu:               0.1 elap:               0.1
 (Enter /home/pcmt/gaussian/g16.C.01/g16/l301.exe)
 General basis read from cards:  (5D, 7F)
 Centers:       1
 S 3 1.00
     Exponent=  1.2047376000D+04 Coefficients=  3.4500000000D-04
     Exponent=  1.8116841000D+03 Coefficients=  2.7420000000D-03
     Exponent=  3.4770104000D+02 Coefficients=  1.0053000000D-02
 S 1 1.00
     Exponent=  9.8678010000D+01 Coefficients=  1.0000000000D+00
 S 3 1.00
     Exponent=  5.7507376000D+01 Coefficients=  5.1528000000D-02
     Exponent=  3.3502601000D+01 Coefficients= -2.3692400000D-01
     Exponent=  1.9554451000D+01 Coefficients=  7.1904800000D-01
 S 1 1.00
     Exponent=  9.7164210000D+00 Coefficients=  1.0000000000D+00
 S 1 1.00
     Exponent=  2.6920960000D+00 Coefficients=  1.0000000000D+00
 S 1 1.00
     Exponent=  1.4538470000D+00 Coefficients=  1.0000000000D+00
 S 1 1.00
     Exponent=  5.7435200000D-01 Coefficients=  1.0000000000D+00
 S 1 1.00
     Exponent=  2.6346800000D-01 Coefficients=  1.0000000000D+00
 S 1 1.00
     Exponent=  5.6557000000D-02 Coefficients=  1.0000000000D+00
 S 1 1.00
     Exponent=  2.3169000000D-02 Coefficients=  1.0000000000D+00
 P 5 1.00
     Exponent=  2.9033676000D+03 Coefficients=  3.5000000000D-05
     Exponent=  6.4486356000D+02 Coefficients=  2.0500000000D-04
     Exponent=  2.2025896000D+02 Coefficients=  1.2510000000D-03
     Exponent=  8.0276401000D+01 Coefficients=  2.4570000000D-03
     Exponent=  2.4080211000D+01 Coefficients=  1.1190000000D-02
 P 1 1.00
     Exponent=  1.4077580000D+01 Coefficients=  1.0000000000D+00
 P 1 1.00
     Exponent=  8.2658460000D+00 Coefficients=  1.0000000000D+00
 P 1 1.00
     Exponent=  3.5948000000D+00 Coefficients=  1.0000000000D+00
 P 1 1.00
     Exponent=  1.7531110000D+00 Coefficients=  1.0000000000D+00
 P 1 1.00
     Exponent=  6.5776700000D-01 Coefficients=  1.0000000000D+00
 P 1 1.00
     Exponent=  2.8463900000D-01 Coefficients=  1.0000000000D+00
 P 1 1.00
     Exponent=  1.0054300000D-01 Coefficients=  1.0000000000D+00
 P 1 1.00
     Exponent=  3.0190000000D-02 Coefficients=  1.0000000000D+00
 D 6 1.00
     Exponent=  4.4814991000D+02 Coefficients=  2.6000000000D-05
     Exponent=  1.5446145000D+02 Coefficients=  2.2800000000D-04
     Exponent=  6.0925377000D+01 Coefficients=  9.0400000000D-04
     Exponent=  1.7032091000D+01 Coefficients=  2.5647000000D-02
     Exponent=  1.0018877000D+01 Coefficients= -1.0575100000D-01
     Exponent=  3.4091930000D+00 Coefficients=  4.4743200000D-01
 D 1 1.00
     Exponent=  1.6702130000D+00 Coefficients=  1.0000000000D+00
 D 1 1.00
     Exponent=  7.4109500000D-01 Coefficients=  1.0000000000D+00
 D 1 1.00
     Exponent=  2.6139300000D-01 Coefficients=  1.0000000000D+00
 D 1 1.00
     Exponent=  8.2811000000D-02 Coefficients=  1.0000000000D+00
 F 5 1.00
     Exponent=  8.7991327000D+01 Coefficients=  2.2600000000D-04
     Exponent=  2.8340195000D+01 Coefficients=  2.3230000000D-03
     Exponent=  1.2440994000D+01 Coefficients=  4.5850000000D-03
     Exponent=  3.9572960000D+00 Coefficients=  1.5696100000D-01
     Exponent=  1.8759440000D+00 Coefficients=  3.4497700000D-01
 F 1 1.00
     Exponent=  8.2758900000D-01 Coefficients=  1.0000000000D+00
 F 1 1.00
     Exponent=  3.3274800000D-01 Coefficients=  1.0000000000D+00
 F 1 1.00
     Exponent=  1.1468500000D-01 Coefficients=  1.0000000000D+00
 G 1 1.00
     Exponent=  3.5000000000D-01 Coefficients=  1.0000000000D+00
 ****
 Centers:       2      4      5      6     10     11     13
 Def2TZVP
 ****
 Centers:       3      7      8      9
 Def2TZVP
 ****
 Centers:      12
 Def2TZVP
 ****
 ======================================================================================================
                                       Pseudopotential Parameters
 ======================================================================================================
  Center     Atomic      Valence      Angular      Power
  Number     Number     Electrons     Momentum     of R      Exponent        Coefficient   SO-Coeffient
 ======================================================================================================
    1         91           31
                                      H and up 
                                                     2        1.0000000        0.00000000    0.00000000
                                      S - H
                                                     2       15.2691737      475.47573283    0.00000000
                                      P - H
                                                     2        9.9577370      207.66485962    0.00000000
                                      D - H
                                                     2        8.9431413      156.67411988    0.00000000
                                      F - H
                                                     2        7.0104666       67.98223685    0.00000000
                                      G - H
                                                     2       12.2010560      -57.63059989    0.00000000
    2          8
                                   No pseudopotential on this center.
    3          1
                                   No pseudopotential on this center.
    4          8
                                   No pseudopotential on this center.
    5          8
                                   No pseudopotential on this center.
    6          8
                                   No pseudopotential on this center.
    7          1
                                   No pseudopotential on this center.
    8          1
                                   No pseudopotential on this center.
    9          1
                                   No pseudopotential on this center.
   10          8
                                   No pseudopotential on this center.
   11          8
                                   No pseudopotential on this center.
   12          7
                                   No pseudopotential on this center.
   13          8
                                   No pseudopotential on this center.
 ======================================================================================================
 Ernie: Thresh=  0.10000D-02 Tol=  0.10000D-05 Strict=F.
 AO basis set in the form of general basis input (Overlap normalization):
      1 0
 S   3 1.00       0.000000000000
      0.1204737600D+05  0.2857094961D-01
      0.1811684100D+04  0.2270769386D+00
      0.3477010400D+03  0.8325326273D+00
 S   3 1.00       0.000000000000
      0.5750737600D+02  0.9569327984D-01
      0.3350260100D+02 -0.4399944619D+00
      0.1955445100D+02  0.1335352847D+01
 S   1 1.00       0.000000000000
      0.9867801000D+02  0.1000000000D+01
 S   1 1.00       0.000000000000
      0.9716421000D+01  0.1000000000D+01
 S   1 1.00       0.000000000000
      0.2692096000D+01  0.1000000000D+01
 S   1 1.00       0.000000000000
      0.1453847000D+01  0.1000000000D+01
 S   1 1.00       0.000000000000
      0.5743520000D+00  0.1000000000D+01
 S   1 1.00       0.000000000000
      0.2634680000D+00  0.1000000000D+01
 S   1 1.00       0.000000000000
      0.5655700000D-01  0.1000000000D+01
 S   1 1.00       0.000000000000
      0.2316900000D-01  0.1000000000D+01
 P   5 1.00       0.000000000000
      0.2903367600D+04  0.2594222647D-02
      0.6448635600D+03  0.1519473264D-01
      0.2202589600D+03  0.9272492945D-01
      0.8027640100D+02  0.1821144298D+00
      0.2408021100D+02  0.8294100404D+00
 P   1 1.00       0.000000000000
      0.1407758000D+02  0.1000000000D+01
 P   1 1.00       0.000000000000
      0.8265846000D+01  0.1000000000D+01
 P   1 1.00       0.000000000000
      0.3594800000D+01  0.1000000000D+01
 P   1 1.00       0.000000000000
      0.1753111000D+01  0.1000000000D+01
 P   1 1.00       0.000000000000
      0.6577670000D+00  0.1000000000D+01
 P   1 1.00       0.000000000000
      0.2846390000D+00  0.1000000000D+01
 P   1 1.00       0.000000000000
      0.1005430000D+00  0.1000000000D+01
 P   1 1.00       0.000000000000
      0.3019000000D-01  0.1000000000D+01
 D   6 1.00       0.000000000000
      0.4481499100D+03  0.6556927566D-04
      0.1544614500D+03  0.5749921096D-03
      0.6092537700D+02  0.2279793277D-02
      0.1703209100D+02  0.6467904664D-01
      0.1001887700D+02 -0.2666929411D+00
      0.3409193000D+01  0.1128376621D+01
 D   1 1.00       0.000000000000
      0.1670213000D+01  0.1000000000D+01
 D   1 1.00       0.000000000000
      0.7410950000D+00  0.1000000000D+01
 D   1 1.00       0.000000000000
      0.2613930000D+00  0.1000000000D+01
 D   1 1.00       0.000000000000
      0.8281100000D-01  0.1000000000D+01
 F   5 1.00       0.000000000000
      0.8799132700D+02  0.4766318191D-03
      0.2834019500D+02  0.4899184583D-02
      0.1244099400D+02  0.9669720755D-02
      0.3957296000D+01  0.3310292343D+00
      0.1875944000D+01  0.7275531640D+00
 F   1 1.00       0.000000000000
      0.8275890000D+00  0.1000000000D+01
 F   1 1.00       0.000000000000
      0.3327480000D+00  0.1000000000D+01
 F   1 1.00       0.000000000000
      0.1146850000D+00  0.1000000000D+01
 G   1 1.00       0.000000000000
      0.3500000000D+00  0.1000000000D+01
 ****
      2 0
 S   6 1.00       0.000000000000
      0.2703238263D+05  0.5722733521D-03
      0.4052387139D+04  0.4435323349D-02
      0.9223272271D+03  0.2302010771D-01
      0.2612407099D+03  0.9282249067D-01
      0.8535464135D+02  0.2937850001D+00
      0.3103503524D+02  0.6740160450D+00
 S   2 1.00       0.000000000000
      0.1226086073D+02  0.6383993703D+00
      0.4998707601D+01  0.3953458713D+00
 S   1 1.00       0.000000000000
      0.1170310816D+01  0.1000000000D+01
 S   1 1.00       0.000000000000
      0.4647474099D+00  0.1000000000D+01
 S   1 1.00       0.000000000000
      0.1850453636D+00  0.1000000000D+01
 P   4 1.00       0.000000000000
      0.6327495480D+02  0.1201833222D-01
      0.1462704938D+02  0.8300542179D-01
      0.4450122346D+01  0.3199174393D+00
      0.1527579965D+01  0.7071554292D+00
 P   1 1.00       0.000000000000
      0.5293511794D+00  0.1000000000D+01
 P   1 1.00       0.000000000000
      0.1747842127D+00  0.1000000000D+01
 D   1 1.00       0.000000000000
      0.2314000000D+01  0.1000000000D+01
 D   1 1.00       0.000000000000
      0.6450000000D+00  0.1000000000D+01
 F   1 1.00       0.000000000000
      0.1428000000D+01  0.1000000000D+01
 ****
      3 0
 S   3 1.00       0.000000000000
      0.3406134100D+02  0.2543930721D-01
      0.5123574600D+01  0.1900859489D+00
      0.1164662600D+01  0.8524411301D+00
 S   1 1.00       0.000000000000
      0.3272304100D+00  0.1000000000D+01
 S   1 1.00       0.000000000000
      0.1030724100D+00  0.1000000000D+01
 P   1 1.00       0.000000000000
      0.8000000000D+00  0.1000000000D+01
 ****
      4 0
 S   6 1.00       0.000000000000
      0.2703238263D+05  0.5722733521D-03
      0.4052387139D+04  0.4435323349D-02
      0.9223272271D+03  0.2302010771D-01
      0.2612407099D+03  0.9282249067D-01
      0.8535464135D+02  0.2937850001D+00
      0.3103503524D+02  0.6740160450D+00
 S   2 1.00       0.000000000000
      0.1226086073D+02  0.6383993703D+00
      0.4998707601D+01  0.3953458713D+00
 S   1 1.00       0.000000000000
      0.1170310816D+01  0.1000000000D+01
 S   1 1.00       0.000000000000
      0.4647474099D+00  0.1000000000D+01
 S   1 1.00       0.000000000000
      0.1850453636D+00  0.1000000000D+01
 P   4 1.00       0.000000000000
      0.6327495480D+02  0.1201833222D-01
      0.1462704938D+02  0.8300542179D-01
      0.4450122346D+01  0.3199174393D+00
      0.1527579965D+01  0.7071554292D+00
 P   1 1.00       0.000000000000
      0.5293511794D+00  0.1000000000D+01
 P   1 1.00       0.000000000000
      0.1747842127D+00  0.1000000000D+01
 D   1 1.00       0.000000000000
      0.2314000000D+01  0.1000000000D+01
 D   1 1.00       0.000000000000
      0.6450000000D+00  0.1000000000D+01
 F   1 1.00       0.000000000000
      0.1428000000D+01  0.1000000000D+01
 ****
      5 0
 S   6 1.00       0.000000000000
      0.2703238263D+05  0.5722733521D-03
      0.4052387139D+04  0.4435323349D-02
      0.9223272271D+03  0.2302010771D-01
      0.2612407099D+03  0.9282249067D-01
      0.8535464135D+02  0.2937850001D+00
      0.3103503524D+02  0.6740160450D+00
 S   2 1.00       0.000000000000
      0.1226086073D+02  0.6383993703D+00
      0.4998707601D+01  0.3953458713D+00
 S   1 1.00       0.000000000000
      0.1170310816D+01  0.1000000000D+01
 S   1 1.00       0.000000000000
      0.4647474099D+00  0.1000000000D+01
 S   1 1.00       0.000000000000
      0.1850453636D+00  0.1000000000D+01
 P   4 1.00       0.000000000000
      0.6327495480D+02  0.1201833222D-01
      0.1462704938D+02  0.8300542179D-01
      0.4450122346D+01  0.3199174393D+00
      0.1527579965D+01  0.7071554292D+00
 P   1 1.00       0.000000000000
      0.5293511794D+00  0.1000000000D+01
 P   1 1.00       0.000000000000
      0.1747842127D+00  0.1000000000D+01
 D   1 1.00       0.000000000000
      0.2314000000D+01  0.1000000000D+01
 D   1 1.00       0.000000000000
      0.6450000000D+00  0.1000000000D+01
 F   1 1.00       0.000000000000
      0.1428000000D+01  0.1000000000D+01
 ****
      6 0
 S   6 1.00       0.000000000000
      0.2703238263D+05  0.5722733521D-03
      0.4052387139D+04  0.4435323349D-02
      0.9223272271D+03  0.2302010771D-01
      0.2612407099D+03  0.9282249067D-01
      0.8535464135D+02  0.2937850001D+00
      0.3103503524D+02  0.6740160450D+00
 S   2 1.00       0.000000000000
      0.1226086073D+02  0.6383993703D+00
      0.4998707601D+01  0.3953458713D+00
 S   1 1.00       0.000000000000
      0.1170310816D+01  0.1000000000D+01
 S   1 1.00       0.000000000000
      0.4647474099D+00  0.1000000000D+01
 S   1 1.00       0.000000000000
      0.1850453636D+00  0.1000000000D+01
 P   4 1.00       0.000000000000
      0.6327495480D+02  0.1201833222D-01
      0.1462704938D+02  0.8300542179D-01
      0.4450122346D+01  0.3199174393D+00
      0.1527579965D+01  0.7071554292D+00
 P   1 1.00       0.000000000000
      0.5293511794D+00  0.1000000000D+01
 P   1 1.00       0.000000000000
      0.1747842127D+00  0.1000000000D+01
 D   1 1.00       0.000000000000
      0.2314000000D+01  0.1000000000D+01
 D   1 1.00       0.000000000000
      0.6450000000D+00  0.1000000000D+01
 F   1 1.00       0.000000000000
      0.1428000000D+01  0.1000000000D+01
 ****
      7 0
 S   3 1.00       0.000000000000
      0.3406134100D+02  0.2543930721D-01
      0.5123574600D+01  0.1900859489D+00
      0.1164662600D+01  0.8524411301D+00
 S   1 1.00       0.000000000000
      0.3272304100D+00  0.1000000000D+01
 S   1 1.00       0.000000000000
      0.1030724100D+00  0.1000000000D+01
 P   1 1.00       0.000000000000
      0.8000000000D+00  0.1000000000D+01
 ****
      8 0
 S   3 1.00       0.000000000000
      0.3406134100D+02  0.2543930721D-01
      0.5123574600D+01  0.1900859489D+00
      0.1164662600D+01  0.8524411301D+00
 S   1 1.00       0.000000000000
      0.3272304100D+00  0.1000000000D+01
 S   1 1.00       0.000000000000
      0.1030724100D+00  0.1000000000D+01
 P   1 1.00       0.000000000000
      0.8000000000D+00  0.1000000000D+01
 ****
      9 0
 S   3 1.00       0.000000000000
      0.3406134100D+02  0.2543930721D-01
      0.5123574600D+01  0.1900859489D+00
      0.1164662600D+01  0.8524411301D+00
 S   1 1.00       0.000000000000
      0.3272304100D+00  0.1000000000D+01
 S   1 1.00       0.000000000000
      0.1030724100D+00  0.1000000000D+01
 P   1 1.00       0.000000000000
      0.8000000000D+00  0.1000000000D+01
 ****
     10 0
 S   6 1.00       0.000000000000
      0.2703238263D+05  0.5722733521D-03
      0.4052387139D+04  0.4435323349D-02
      0.9223272271D+03  0.2302010771D-01
      0.2612407099D+03  0.9282249067D-01
      0.8535464135D+02  0.2937850001D+00
      0.3103503524D+02  0.6740160450D+00
 S   2 1.00       0.000000000000
      0.1226086073D+02  0.6383993703D+00
      0.4998707601D+01  0.3953458713D+00
 S   1 1.00       0.000000000000
      0.1170310816D+01  0.1000000000D+01
 S   1 1.00       0.000000000000
      0.4647474099D+00  0.1000000000D+01
 S   1 1.00       0.000000000000
      0.1850453636D+00  0.1000000000D+01
 P   4 1.00       0.000000000000
      0.6327495480D+02  0.1201833222D-01
      0.1462704938D+02  0.8300542179D-01
      0.4450122346D+01  0.3199174393D+00
      0.1527579965D+01  0.7071554292D+00
 P   1 1.00       0.000000000000
      0.5293511794D+00  0.1000000000D+01
 P   1 1.00       0.000000000000
      0.1747842127D+00  0.1000000000D+01
 D   1 1.00       0.000000000000
      0.2314000000D+01  0.1000000000D+01
 D   1 1.00       0.000000000000
      0.6450000000D+00  0.1000000000D+01
 F   1 1.00       0.000000000000
      0.1428000000D+01  0.1000000000D+01
 ****
     11 0
 S   6 1.00       0.000000000000
      0.2703238263D+05  0.5722733521D-03
      0.4052387139D+04  0.4435323349D-02
      0.9223272271D+03  0.2302010771D-01
      0.2612407099D+03  0.9282249067D-01
      0.8535464135D+02  0.2937850001D+00
      0.3103503524D+02  0.6740160450D+00
 S   2 1.00       0.000000000000
      0.1226086073D+02  0.6383993703D+00
      0.4998707601D+01  0.3953458713D+00
 S   1 1.00       0.000000000000
      0.1170310816D+01  0.1000000000D+01
 S   1 1.00       0.000000000000
      0.4647474099D+00  0.1000000000D+01
 S   1 1.00       0.000000000000
      0.1850453636D+00  0.1000000000D+01
 P   4 1.00       0.000000000000
      0.6327495480D+02  0.1201833222D-01
      0.1462704938D+02  0.8300542179D-01
      0.4450122346D+01  0.3199174393D+00
      0.1527579965D+01  0.7071554292D+00
 P   1 1.00       0.000000000000
      0.5293511794D+00  0.1000000000D+01
 P   1 1.00       0.000000000000
      0.1747842127D+00  0.1000000000D+01
 D   1 1.00       0.000000000000
      0.2314000000D+01  0.1000000000D+01
 D   1 1.00       0.000000000000
      0.6450000000D+00  0.1000000000D+01
 F   1 1.00       0.000000000000
      0.1428000000D+01  0.1000000000D+01
 ****
     12 0
 S   6 1.00       0.000000000000
      0.1973080065D+05  0.5862640263D-03
      0.2957895874D+04  0.4542882059D-02
      0.6732213360D+03  0.2355841345D-01
      0.1906824949D+03  0.9470919329D-01
      0.6229544190D+02  0.2971978491D+00
      0.2265416118D+02  0.6691624690D+00
 S   2 1.00       0.000000000000
      0.8979147743D+01  0.6459668363D+00
      0.3686300237D+01  0.3870057439D+00
 S   1 1.00       0.000000000000
      0.8466007680D+00  0.1000000000D+01
 S   1 1.00       0.000000000000
      0.3364713377D+00  0.1000000000D+01
 S   1 1.00       0.000000000000
      0.1364765367D+00  0.1000000000D+01
 P   4 1.00       0.000000000000
      0.4920038051D+02  0.1144882510D-01
      0.1134679054D+02  0.7842233797D-01
      0.3427397241D+01  0.3081809474D+00
      0.1178552513D+01  0.7202719637D+00
 P   1 1.00       0.000000000000
      0.4164220497D+00  0.1000000000D+01
 P   1 1.00       0.000000000000
      0.1426082601D+00  0.1000000000D+01
 D   1 1.00       0.000000000000
      0.1654000000D+01  0.1000000000D+01
 D   1 1.00       0.000000000000
      0.4690000000D+00  0.1000000000D+01
 F   1 1.00       0.000000000000
      0.1093000000D+01  0.1000000000D+01
 ****
     13 0
 S   6 1.00       0.000000000000
      0.2703238263D+05  0.5722733521D-03
      0.4052387139D+04  0.4435323349D-02
      0.9223272271D+03  0.2302010771D-01
      0.2612407099D+03  0.9282249067D-01
      0.8535464135D+02  0.2937850001D+00
      0.3103503524D+02  0.6740160450D+00
 S   2 1.00       0.000000000000
      0.1226086073D+02  0.6383993703D+00
      0.4998707601D+01  0.3953458713D+00
 S   1 1.00       0.000000000000
      0.1170310816D+01  0.1000000000D+01
 S   1 1.00       0.000000000000
      0.4647474099D+00  0.1000000000D+01
 S   1 1.00       0.000000000000
      0.1850453636D+00  0.1000000000D+01
 P   4 1.00       0.000000000000
      0.6327495480D+02  0.1201833222D-01
      0.1462704938D+02  0.8300542179D-01
      0.4450122346D+01  0.3199174393D+00
      0.1527579965D+01  0.7071554292D+00
 P   1 1.00       0.000000000000
      0.5293511794D+00  0.1000000000D+01
 P   1 1.00       0.000000000000
      0.1747842127D+00  0.1000000000D+01
 D   1 1.00       0.000000000000
      0.2314000000D+01  0.1000000000D+01
 D   1 1.00       0.000000000000
      0.6450000000D+00  0.1000000000D+01
 F   1 1.00       0.000000000000
      0.1428000000D+01  0.1000000000D+01
 ****

 AO basis set (Overlap normalization):
 Atom Pa1      Shell     1 S   3     bf    1 -     1         -0.734498472474         -0.134690547064          0.001195831912
      0.1204737600D+05  0.2857094961D-01
      0.1811684100D+04  0.2270769386D+00
      0.3477010400D+03  0.8325326273D+00
 Atom Pa1      Shell     2 S   3     bf    2 -     2         -0.734498472474         -0.134690547064          0.001195831912
      0.5750737600D+02  0.9569327984D-01
      0.3350260100D+02 -0.4399944619D+00
      0.1955445100D+02  0.1335352847D+01
 Atom Pa1      Shell     3 S   1     bf    3 -     3         -0.734498472474         -0.134690547064          0.001195831912
      0.9867801000D+02  0.1000000000D+01
 Atom Pa1      Shell     4 S   1     bf    4 -     4         -0.734498472474         -0.134690547064          0.001195831912
      0.9716421000D+01  0.1000000000D+01
 Atom Pa1      Shell     5 S   1     bf    5 -     5         -0.734498472474         -0.134690547064          0.001195831912
      0.2692096000D+01  0.1000000000D+01
 Atom Pa1      Shell     6 S   1     bf    6 -     6         -0.734498472474         -0.134690547064          0.001195831912
      0.1453847000D+01  0.1000000000D+01
 Atom Pa1      Shell     7 S   1     bf    7 -     7         -0.734498472474         -0.134690547064          0.001195831912
      0.5743520000D+00  0.1000000000D+01
 Atom Pa1      Shell     8 S   1     bf    8 -     8         -0.734498472474         -0.134690547064          0.001195831912
      0.2634680000D+00  0.1000000000D+01
 Atom Pa1      Shell     9 S   1     bf    9 -     9         -0.734498472474         -0.134690547064          0.001195831912
      0.5655700000D-01  0.1000000000D+01
 Atom Pa1      Shell    10 S   1     bf   10 -    10         -0.734498472474         -0.134690547064          0.001195831912
      0.2316900000D-01  0.1000000000D+01
 Atom Pa1      Shell    11 P   5     bf   11 -    13         -0.734498472474         -0.134690547064          0.001195831912
      0.2903367600D+04  0.2594222647D-02
      0.6448635600D+03  0.1519473264D-01
      0.2202589600D+03  0.9272492945D-01
      0.8027640100D+02  0.1821144298D+00
      0.2408021100D+02  0.8294100404D+00
 Atom Pa1      Shell    12 P   1     bf   14 -    16         -0.734498472474         -0.134690547064          0.001195831912
      0.1407758000D+02  0.1000000000D+01
 Atom Pa1      Shell    13 P   1     bf   17 -    19         -0.734498472474         -0.134690547064          0.001195831912
      0.8265846000D+01  0.1000000000D+01
 Atom Pa1      Shell    14 P   1     bf   20 -    22         -0.734498472474         -0.134690547064          0.001195831912
      0.3594800000D+01  0.1000000000D+01
 Atom Pa1      Shell    15 P   1     bf   23 -    25         -0.734498472474         -0.134690547064          0.001195831912
      0.1753111000D+01  0.1000000000D+01
 Atom Pa1      Shell    16 P   1     bf   26 -    28         -0.734498472474         -0.134690547064          0.001195831912
      0.6577670000D+00  0.1000000000D+01
 Atom Pa1      Shell    17 P   1     bf   29 -    31         -0.734498472474         -0.134690547064          0.001195831912
      0.2846390000D+00  0.1000000000D+01
 Atom Pa1      Shell    18 P   1     bf   32 -    34         -0.734498472474         -0.134690547064          0.001195831912
      0.1005430000D+00  0.1000000000D+01
 Atom Pa1      Shell    19 P   1     bf   35 -    37         -0.734498472474         -0.134690547064          0.001195831912
      0.3019000000D-01  0.1000000000D+01
 Atom Pa1      Shell    20 D   6     bf   38 -    42         -0.734498472474         -0.134690547064          0.001195831912
      0.4481499100D+03  0.6556927566D-04
      0.1544614500D+03  0.5749921096D-03
      0.6092537700D+02  0.2279793277D-02
      0.1703209100D+02  0.6467904664D-01
      0.1001887700D+02 -0.2666929411D+00
      0.3409193000D+01  0.1128376621D+01
 Atom Pa1      Shell    21 D   1     bf   43 -    47         -0.734498472474         -0.134690547064          0.001195831912
      0.1670213000D+01  0.1000000000D+01
 Atom Pa1      Shell    22 D   1     bf   48 -    52         -0.734498472474         -0.134690547064          0.001195831912
      0.7410950000D+00  0.1000000000D+01
 Atom Pa1      Shell    23 D   1     bf   53 -    57         -0.734498472474         -0.134690547064          0.001195831912
      0.2613930000D+00  0.1000000000D+01
 Atom Pa1      Shell    24 D   1     bf   58 -    62         -0.734498472474         -0.134690547064          0.001195831912
      0.8281100000D-01  0.1000000000D+01
 Atom Pa1      Shell    25 F   5     bf   63 -    69         -0.734498472474         -0.134690547064          0.001195831912
      0.8799132700D+02  0.4766318191D-03
      0.2834019500D+02  0.4899184583D-02
      0.1244099400D+02  0.9669720755D-02
      0.3957296000D+01  0.3310292343D+00
      0.1875944000D+01  0.7275531640D+00
 Atom Pa1      Shell    26 F   1     bf   70 -    76         -0.734498472474         -0.134690547064          0.001195831912
      0.8275890000D+00  0.1000000000D+01
 Atom Pa1      Shell    27 F   1     bf   77 -    83         -0.734498472474         -0.134690547064          0.001195831912
      0.3327480000D+00  0.1000000000D+01
 Atom Pa1      Shell    28 F   1     bf   84 -    90         -0.734498472474         -0.134690547064          0.001195831912
      0.1146850000D+00  0.1000000000D+01
 Atom Pa1      Shell    29 G   1     bf   91 -    99         -0.734498472474         -0.134690547064          0.001195831912
      0.3500000000D+00  0.1000000000D+01
 Atom O2       Shell    30 S   6     bf  100 -   100         -0.746049114100          3.130704935511         -2.212113081295
      0.2703238263D+05  0.5722733521D-03
      0.4052387139D+04  0.4435323349D-02
      0.9223272271D+03  0.2302010771D-01
      0.2612407099D+03  0.9282249067D-01
      0.8535464135D+02  0.2937850001D+00
      0.3103503524D+02  0.6740160450D+00
 Atom O2       Shell    31 S   2     bf  101 -   101         -0.746049114100          3.130704935511         -2.212113081295
      0.1226086073D+02  0.6383993703D+00
      0.4998707601D+01  0.3953458713D+00
 Atom O2       Shell    32 S   1     bf  102 -   102         -0.746049114100          3.130704935511         -2.212113081295
      0.1170310816D+01  0.1000000000D+01
 Atom O2       Shell    33 S   1     bf  103 -   103         -0.746049114100          3.130704935511         -2.212113081295
      0.4647474099D+00  0.1000000000D+01
 Atom O2       Shell    34 S   1     bf  104 -   104         -0.746049114100          3.130704935511         -2.212113081295
      0.1850453636D+00  0.1000000000D+01
 Atom O2       Shell    35 P   4     bf  105 -   107         -0.746049114100          3.130704935511         -2.212113081295
      0.6327495480D+02  0.1201833222D-01
      0.1462704938D+02  0.8300542179D-01
      0.4450122346D+01  0.3199174393D+00
      0.1527579965D+01  0.7071554292D+00
 Atom O2       Shell    36 P   1     bf  108 -   110         -0.746049114100          3.130704935511         -2.212113081295
      0.5293511794D+00  0.1000000000D+01
 Atom O2       Shell    37 P   1     bf  111 -   113         -0.746049114100          3.130704935511         -2.212113081295
      0.1747842127D+00  0.1000000000D+01
 Atom O2       Shell    38 D   1     bf  114 -   118         -0.746049114100          3.130704935511         -2.212113081295
      0.2314000000D+01  0.1000000000D+01
 Atom O2       Shell    39 D   1     bf  119 -   123         -0.746049114100          3.130704935511         -2.212113081295
      0.6450000000D+00  0.1000000000D+01
 Atom O2       Shell    40 F   1     bf  124 -   130         -0.746049114100          3.130704935511         -2.212113081295
      0.1428000000D+01  0.1000000000D+01
 Atom H3       Shell    41 S   3     bf  131 -   131         -1.844187677616          3.877826910519          3.425100266130
      0.3406134100D+02  0.2543930721D-01
      0.5123574600D+01  0.1900859489D+00
      0.1164662600D+01  0.8524411301D+00
 Atom H3       Shell    42 S   1     bf  132 -   132         -1.844187677616          3.877826910519          3.425100266130
      0.3272304100D+00  0.1000000000D+01
 Atom H3       Shell    43 S   1     bf  133 -   133         -1.844187677616          3.877826910519          3.425100266130
      0.1030724100D+00  0.1000000000D+01
 Atom H3       Shell    44 P   1     bf  134 -   136         -1.844187677616          3.877826910519          3.425100266130
      0.8000000000D+00  0.1000000000D+01
 Atom O4       Shell    45 S   6     bf  137 -   137         -0.870644405198         -3.217710581090          1.682255902866
      0.2703238263D+05  0.5722733521D-03
      0.4052387139D+04  0.4435323349D-02
      0.9223272271D+03  0.2302010771D-01
      0.2612407099D+03  0.9282249067D-01
      0.8535464135D+02  0.2937850001D+00
      0.3103503524D+02  0.6740160450D+00
 Atom O4       Shell    46 S   2     bf  138 -   138         -0.870644405198         -3.217710581090          1.682255902866
      0.1226086073D+02  0.6383993703D+00
      0.4998707601D+01  0.3953458713D+00
 Atom O4       Shell    47 S   1     bf  139 -   139         -0.870644405198         -3.217710581090          1.682255902866
      0.1170310816D+01  0.1000000000D+01
 Atom O4       Shell    48 S   1     bf  140 -   140         -0.870644405198         -3.217710581090          1.682255902866
      0.4647474099D+00  0.1000000000D+01
 Atom O4       Shell    49 S   1     bf  141 -   141         -0.870644405198         -3.217710581090          1.682255902866
      0.1850453636D+00  0.1000000000D+01
 Atom O4       Shell    50 P   4     bf  142 -   144         -0.870644405198         -3.217710581090          1.682255902866
      0.6327495480D+02  0.1201833222D-01
      0.1462704938D+02  0.8300542179D-01
      0.4450122346D+01  0.3199174393D+00
      0.1527579965D+01  0.7071554292D+00
 Atom O4       Shell    51 P   1     bf  145 -   147         -0.870644405198         -3.217710581090          1.682255902866
      0.5293511794D+00  0.1000000000D+01
 Atom O4       Shell    52 P   1     bf  148 -   150         -0.870644405198         -3.217710581090          1.682255902866
      0.1747842127D+00  0.1000000000D+01
 Atom O4       Shell    53 D   1     bf  151 -   155         -0.870644405198         -3.217710581090          1.682255902866
      0.2314000000D+01  0.1000000000D+01
 Atom O4       Shell    54 D   1     bf  156 -   160         -0.870644405198         -3.217710581090          1.682255902866
      0.6450000000D+00  0.1000000000D+01
 Atom O4       Shell    55 F   1     bf  161 -   167         -0.870644405198         -3.217710581090          1.682255902866
      0.1428000000D+01  0.1000000000D+01
 Atom O5       Shell    56 S   6     bf  168 -   168         -1.767275916781          2.064688581207          3.257555852462
      0.2703238263D+05  0.5722733521D-03
      0.4052387139D+04  0.4435323349D-02
      0.9223272271D+03  0.2302010771D-01
      0.2612407099D+03  0.9282249067D-01
      0.8535464135D+02  0.2937850001D+00
      0.3103503524D+02  0.6740160450D+00
 Atom O5       Shell    57 S   2     bf  169 -   169         -1.767275916781          2.064688581207          3.257555852462
      0.1226086073D+02  0.6383993703D+00
      0.4998707601D+01  0.3953458713D+00
 Atom O5       Shell    58 S   1     bf  170 -   170         -1.767275916781          2.064688581207          3.257555852462
      0.1170310816D+01  0.1000000000D+01
 Atom O5       Shell    59 S   1     bf  171 -   171         -1.767275916781          2.064688581207          3.257555852462
      0.4647474099D+00  0.1000000000D+01
 Atom O5       Shell    60 S   1     bf  172 -   172         -1.767275916781          2.064688581207          3.257555852462
      0.1850453636D+00  0.1000000000D+01
 Atom O5       Shell    61 P   4     bf  173 -   175         -1.767275916781          2.064688581207          3.257555852462
      0.6327495480D+02  0.1201833222D-01
      0.1462704938D+02  0.8300542179D-01
      0.4450122346D+01  0.3199174393D+00
      0.1527579965D+01  0.7071554292D+00
 Atom O5       Shell    62 P   1     bf  176 -   178         -1.767275916781          2.064688581207          3.257555852462
      0.5293511794D+00  0.1000000000D+01
 Atom O5       Shell    63 P   1     bf  179 -   181         -1.767275916781          2.064688581207          3.257555852462
      0.1747842127D+00  0.1000000000D+01
 Atom O5       Shell    64 D   1     bf  182 -   186         -1.767275916781          2.064688581207          3.257555852462
      0.2314000000D+01  0.1000000000D+01
 Atom O5       Shell    65 D   1     bf  187 -   191         -1.767275916781          2.064688581207          3.257555852462
      0.6450000000D+00  0.1000000000D+01
 Atom O5       Shell    66 F   1     bf  192 -   198         -1.767275916781          2.064688581207          3.257555852462
      0.1428000000D+01  0.1000000000D+01
 Atom O6       Shell    67 S   6     bf  199 -   199         -5.110738368060         -0.832704438410         -1.552477370539
      0.2703238263D+05  0.5722733521D-03
      0.4052387139D+04  0.4435323349D-02
      0.9223272271D+03  0.2302010771D-01
      0.2612407099D+03  0.9282249067D-01
      0.8535464135D+02  0.2937850001D+00
      0.3103503524D+02  0.6740160450D+00
 Atom O6       Shell    68 S   2     bf  200 -   200         -5.110738368060         -0.832704438410         -1.552477370539
      0.1226086073D+02  0.6383993703D+00
      0.4998707601D+01  0.3953458713D+00
 Atom O6       Shell    69 S   1     bf  201 -   201         -5.110738368060         -0.832704438410         -1.552477370539
      0.1170310816D+01  0.1000000000D+01
 Atom O6       Shell    70 S   1     bf  202 -   202         -5.110738368060         -0.832704438410         -1.552477370539
      0.4647474099D+00  0.1000000000D+01
 Atom O6       Shell    71 S   1     bf  203 -   203         -5.110738368060         -0.832704438410         -1.552477370539
      0.1850453636D+00  0.1000000000D+01
 Atom O6       Shell    72 P   4     bf  204 -   206         -5.110738368060         -0.832704438410         -1.552477370539
      0.6327495480D+02  0.1201833222D-01
      0.1462704938D+02  0.8300542179D-01
      0.4450122346D+01  0.3199174393D+00
      0.1527579965D+01  0.7071554292D+00
 Atom O6       Shell    73 P   1     bf  207 -   209         -5.110738368060         -0.832704438410         -1.552477370539
      0.5293511794D+00  0.1000000000D+01
 Atom O6       Shell    74 P   1     bf  210 -   212         -5.110738368060         -0.832704438410         -1.552477370539
      0.1747842127D+00  0.1000000000D+01
 Atom O6       Shell    75 D   1     bf  213 -   217         -5.110738368060         -0.832704438410         -1.552477370539
      0.2314000000D+01  0.1000000000D+01
 Atom O6       Shell    76 D   1     bf  218 -   222         -5.110738368060         -0.832704438410         -1.552477370539
      0.6450000000D+00  0.1000000000D+01
 Atom O6       Shell    77 F   1     bf  223 -   229         -5.110738368060         -0.832704438410         -1.552477370539
      0.1428000000D+01  0.1000000000D+01
 Atom H7       Shell    78 S   3     bf  230 -   230         -6.101294466614          0.342902694574         -2.537910915914
      0.3406134100D+02  0.2543930721D-01
      0.5123574600D+01  0.1900859489D+00
      0.1164662600D+01  0.8524411301D+00
 Atom H7       Shell    79 S   1     bf  231 -   231         -6.101294466614          0.342902694574         -2.537910915914
      0.3272304100D+00  0.1000000000D+01
 Atom H7       Shell    80 S   1     bf  232 -   232         -6.101294466614          0.342902694574         -2.537910915914
      0.1030724100D+00  0.1000000000D+01
 Atom H7       Shell    81 P   1     bf  233 -   235         -6.101294466614          0.342902694574         -2.537910915914
      0.8000000000D+00  0.1000000000D+01
 Atom H8       Shell    82 S   3     bf  236 -   236         -6.228408630322         -2.176408250496         -1.024569307009
      0.3406134100D+02  0.2543930721D-01
      0.5123574600D+01  0.1900859489D+00
      0.1164662600D+01  0.8524411301D+00
 Atom H8       Shell    83 S   1     bf  237 -   237         -6.228408630322         -2.176408250496         -1.024569307009
      0.3272304100D+00  0.1000000000D+01
 Atom H8       Shell    84 S   1     bf  238 -   238         -6.228408630322         -2.176408250496         -1.024569307009
      0.1030724100D+00  0.1000000000D+01
 Atom H8       Shell    85 P   1     bf  239 -   241         -6.228408630322         -2.176408250496         -1.024569307009
      0.8000000000D+00  0.1000000000D+01
 Atom H9       Shell    86 S   3     bf  242 -   242         -0.914644140003          4.943207603159         -2.064755333133
      0.3406134100D+02  0.2543930721D-01
      0.5123574600D+01  0.1900859489D+00
      0.1164662600D+01  0.8524411301D+00
 Atom H9       Shell    87 S   1     bf  243 -   243         -0.914644140003          4.943207603159         -2.064755333133
      0.3272304100D+00  0.1000000000D+01
 Atom H9       Shell    88 S   1     bf  244 -   244         -0.914644140003          4.943207603159         -2.064755333133
      0.1030724100D+00  0.1000000000D+01
 Atom H9       Shell    89 P   1     bf  245 -   247         -0.914644140003          4.943207603159         -2.064755333133
      0.8000000000D+00  0.1000000000D+01
 Atom O10      Shell    90 S   6     bf  248 -   248          3.564556646666         -1.177960826652         -1.941930206410
      0.2703238263D+05  0.5722733521D-03
      0.4052387139D+04  0.4435323349D-02
      0.9223272271D+03  0.2302010771D-01
      0.2612407099D+03  0.9282249067D-01
      0.8535464135D+02  0.2937850001D+00
      0.3103503524D+02  0.6740160450D+00
 Atom O10      Shell    91 S   2     bf  249 -   249          3.564556646666         -1.177960826652         -1.941930206410
      0.1226086073D+02  0.6383993703D+00
      0.4998707601D+01  0.3953458713D+00
 Atom O10      Shell    92 S   1     bf  250 -   250          3.564556646666         -1.177960826652         -1.941930206410
      0.1170310816D+01  0.1000000000D+01
 Atom O10      Shell    93 S   1     bf  251 -   251          3.564556646666         -1.177960826652         -1.941930206410
      0.4647474099D+00  0.1000000000D+01
 Atom O10      Shell    94 S   1     bf  252 -   252          3.564556646666         -1.177960826652         -1.941930206410
      0.1850453636D+00  0.1000000000D+01
 Atom O10      Shell    95 P   4     bf  253 -   255          3.564556646666         -1.177960826652         -1.941930206410
      0.6327495480D+02  0.1201833222D-01
      0.1462704938D+02  0.8300542179D-01
      0.4450122346D+01  0.3199174393D+00
      0.1527579965D+01  0.7071554292D+00
 Atom O10      Shell    96 P   1     bf  256 -   258          3.564556646666         -1.177960826652         -1.941930206410
      0.5293511794D+00  0.1000000000D+01
 Atom O10      Shell    97 P   1     bf  259 -   261          3.564556646666         -1.177960826652         -1.941930206410
      0.1747842127D+00  0.1000000000D+01
 Atom O10      Shell    98 D   1     bf  262 -   266          3.564556646666         -1.177960826652         -1.941930206410
      0.2314000000D+01  0.1000000000D+01
 Atom O10      Shell    99 D   1     bf  267 -   271          3.564556646666         -1.177960826652         -1.941930206410
      0.6450000000D+00  0.1000000000D+01
 Atom O10      Shell   100 F   1     bf  272 -   278          3.564556646666         -1.177960826652         -1.941930206410
      0.1428000000D+01  0.1000000000D+01
 Atom O11      Shell   101 S   6     bf  279 -   279          3.675709215382          0.909741568404          1.559519565537
      0.2703238263D+05  0.5722733521D-03
      0.4052387139D+04  0.4435323349D-02
      0.9223272271D+03  0.2302010771D-01
      0.2612407099D+03  0.9282249067D-01
      0.8535464135D+02  0.2937850001D+00
      0.3103503524D+02  0.6740160450D+00
 Atom O11      Shell   102 S   2     bf  280 -   280          3.675709215382          0.909741568404          1.559519565537
      0.1226086073D+02  0.6383993703D+00
      0.4998707601D+01  0.3953458713D+00
 Atom O11      Shell   103 S   1     bf  281 -   281          3.675709215382          0.909741568404          1.559519565537
      0.1170310816D+01  0.1000000000D+01
 Atom O11      Shell   104 S   1     bf  282 -   282          3.675709215382          0.909741568404          1.559519565537
      0.4647474099D+00  0.1000000000D+01
 Atom O11      Shell   105 S   1     bf  283 -   283          3.675709215382          0.909741568404          1.559519565537
      0.1850453636D+00  0.1000000000D+01
 Atom O11      Shell   106 P   4     bf  284 -   286          3.675709215382          0.909741568404          1.559519565537
      0.6327495480D+02  0.1201833222D-01
      0.1462704938D+02  0.8300542179D-01
      0.4450122346D+01  0.3199174393D+00
      0.1527579965D+01  0.7071554292D+00
 Atom O11      Shell   107 P   1     bf  287 -   289          3.675709215382          0.909741568404          1.559519565537
      0.5293511794D+00  0.1000000000D+01
 Atom O11      Shell   108 P   1     bf  290 -   292          3.675709215382          0.909741568404          1.559519565537
      0.1747842127D+00  0.1000000000D+01
 Atom O11      Shell   109 D   1     bf  293 -   297          3.675709215382          0.909741568404          1.559519565537
      0.2314000000D+01  0.1000000000D+01
 Atom O11      Shell   110 D   1     bf  298 -   302          3.675709215382          0.909741568404          1.559519565537
      0.6450000000D+00  0.1000000000D+01
 Atom O11      Shell   111 F   1     bf  303 -   309          3.675709215382          0.909741568404          1.559519565537
      0.1428000000D+01  0.1000000000D+01
 Atom N12      Shell   112 S   6     bf  310 -   310          4.909881740836         -0.126418766719         -0.240059604114
      0.1973080065D+05  0.5862640263D-03
      0.2957895874D+04  0.4542882059D-02
      0.6732213360D+03  0.2355841345D-01
      0.1906824949D+03  0.9470919329D-01
      0.6229544190D+02  0.2971978491D+00
      0.2265416118D+02  0.6691624690D+00
 Atom N12      Shell   113 S   2     bf  311 -   311          4.909881740836         -0.126418766719         -0.240059604114
      0.8979147743D+01  0.6459668363D+00
      0.3686300237D+01  0.3870057439D+00
 Atom N12      Shell   114 S   1     bf  312 -   312          4.909881740836         -0.126418766719         -0.240059604114
      0.8466007680D+00  0.1000000000D+01
 Atom N12      Shell   115 S   1     bf  313 -   313          4.909881740836         -0.126418766719         -0.240059604114
      0.3364713377D+00  0.1000000000D+01
 Atom N12      Shell   116 S   1     bf  314 -   314          4.909881740836         -0.126418766719         -0.240059604114
      0.1364765367D+00  0.1000000000D+01
 Atom N12      Shell   117 P   4     bf  315 -   317          4.909881740836         -0.126418766719         -0.240059604114
      0.4920038051D+02  0.1144882510D-01
      0.1134679054D+02  0.7842233797D-01
      0.3427397241D+01  0.3081809474D+00
      0.1178552513D+01  0.7202719637D+00
 Atom N12      Shell   118 P   1     bf  318 -   320          4.909881740836         -0.126418766719         -0.240059604114
      0.4164220497D+00  0.1000000000D+01
 Atom N12      Shell   119 P   1     bf  321 -   323          4.909881740836         -0.126418766719         -0.240059604114
      0.1426082601D+00  0.1000000000D+01
 Atom N12      Shell   120 D   1     bf  324 -   328          4.909881740836         -0.126418766719         -0.240059604114
      0.1654000000D+01  0.1000000000D+01
 Atom N12      Shell   121 D   1     bf  329 -   333          4.909881740836         -0.126418766719         -0.240059604114
      0.4690000000D+00  0.1000000000D+01
 Atom N12      Shell   122 F   1     bf  334 -   340          4.909881740836         -0.126418766719         -0.240059604114
      0.1093000000D+01  0.1000000000D+01
 Atom O13      Shell   123 S   6     bf  341 -   341          7.199282407573         -0.107478964954         -0.321094185777
      0.2703238263D+05  0.5722733521D-03
      0.4052387139D+04  0.4435323349D-02
      0.9223272271D+03  0.2302010771D-01
      0.2612407099D+03  0.9282249067D-01
      0.8535464135D+02  0.2937850001D+00
      0.3103503524D+02  0.6740160450D+00
 Atom O13      Shell   124 S   2     bf  342 -   342          7.199282407573         -0.107478964954         -0.321094185777
      0.1226086073D+02  0.6383993703D+00
      0.4998707601D+01  0.3953458713D+00
 Atom O13      Shell   125 S   1     bf  343 -   343          7.199282407573         -0.107478964954         -0.321094185777
      0.1170310816D+01  0.1000000000D+01
 Atom O13      Shell   126 S   1     bf  344 -   344          7.199282407573         -0.107478964954         -0.321094185777
      0.4647474099D+00  0.1000000000D+01
 Atom O13      Shell   127 S   1     bf  345 -   345          7.199282407573         -0.107478964954         -0.321094185777
      0.1850453636D+00  0.1000000000D+01
 Atom O13      Shell   128 P   4     bf  346 -   348          7.199282407573         -0.107478964954         -0.321094185777
      0.6327495480D+02  0.1201833222D-01
      0.1462704938D+02  0.8300542179D-01
      0.4450122346D+01  0.3199174393D+00
      0.1527579965D+01  0.7071554292D+00
 Atom O13      Shell   129 P   1     bf  349 -   351          7.199282407573         -0.107478964954         -0.321094185777
      0.5293511794D+00  0.1000000000D+01
 Atom O13      Shell   130 P   1     bf  352 -   354          7.199282407573         -0.107478964954         -0.321094185777
      0.1747842127D+00  0.1000000000D+01
 Atom O13      Shell   131 D   1     bf  355 -   359          7.199282407573         -0.107478964954         -0.321094185777
      0.2314000000D+01  0.1000000000D+01
 Atom O13      Shell   132 D   1     bf  360 -   364          7.199282407573         -0.107478964954         -0.321094185777
      0.6450000000D+00  0.1000000000D+01
 Atom O13      Shell   133 F   1     bf  365 -   371          7.199282407573         -0.107478964954         -0.321094185777
      0.1428000000D+01  0.1000000000D+01
 Effective core potential in the form of general ECP input:
      1 0
 Pa1-ECP   5 60
 H component
  1
  2        1.0000000        0.00000000    0.00000000
 S-H projection
  1
  2       15.2691737      475.47573283    0.00000000
 P-H projection
  1
  2        9.9577370      207.66485962    0.00000000
 D-H projection
  1
  2        8.9431413      156.67411988    0.00000000
 F-H projection
  1
  2        7.0104666       67.98223685    0.00000000
 G-H projection
  1
  2       12.2010560      -57.63059989    0.00000000
 
 There are   434 symmetry adapted cartesian basis functions of A   symmetry.
 There are   371 symmetry adapted basis functions of A   symmetry.
   371 basis functions,   648 primitive gaussians,   434 cartesian basis functions
    49 alpha electrons       49 beta electrons
       nuclear repulsion energy       797.5717538867 Hartrees.
 IExCor=  404 DFT=T Ex=B Corr=P86 ExCW=0 ScaHFX=  0.000000
 ScaDFX=  1.000000  1.000000  1.000000  1.000000 ScalE2=  1.000000  1.000000
 IRadAn=      5 IRanWt=     -1 IRanGd=            0 ICorTp=0 IEmpDi=  4
 NAtoms=   13 NActive=   13 NUniq=   13 SFac= 1.00D+00 NAtFMM=   60 NAOKFM=F Big=F
 Integral buffers will be    131072 words long.
 Raffenetti 2 integral format.
 Two-electron integral symmetry is turned on.
 Leave Link  301 at Tue Jul  4 11:34:35 2023, MaxMem=  2147483648 cpu:               1.0 elap:               0.2
 (Enter /home/pcmt/gaussian/g16.C.01/g16/l302.exe)
 NPDir=0 NMtPBC=     1 NCelOv=     1 NCel=       1 NClECP=     1 NCelD=      1
         NCelK=      1 NCelE2=     1 NClLst=     1 CellRange=     0.0.
 One-electron integrals computed using PRISM.
 One-electron integral symmetry used in STVInt
   1 Symmetry operations used in ECPInt.
 ECPInt:  NShTT=    8911 NPrTT=   26794 LenC2=    8259 LenP2D=   18462.
 LDataN:  DoStor=T MaxTD1= 9 Len=  602
 NBasis=   371 RedAO= T EigKep=  5.38D-04  NBF=   371
 NBsUse=   371 1.00D-06 EigRej= -1.00D+00 NBFU=   371
 Precomputing XC quadrature grid using
 IXCGrd= 4 IRadAn=           5 IRanWt=          -1 IRanGd=           0 AccXCQ= 0.00D+00.
 Defaulting to unpruned grid for atomic number  91.
 Generated NRdTot=       0 NPtTot=           0 NUsed=           0 NTot=          32
 NSgBfM=   425   425   425   425   425 MxSgAt=    13 MxSgA2=    13.
 Leave Link  302 at Tue Jul  4 11:34:36 2023, MaxMem=  2147483648 cpu:               7.5 elap:               1.0
 (Enter /home/pcmt/gaussian/g16.C.01/g16/l303.exe)
 DipDrv:  MaxL=1.
 Leave Link  303 at Tue Jul  4 11:34:37 2023, MaxMem=  2147483648 cpu:               0.6 elap:               0.1
 (Enter /home/pcmt/gaussian/g16.C.01/g16/l401.exe)
 ExpMin= 2.32D-02 ExpMax= 2.70D+04 ExpMxC= 1.20D+04 IAcc=3 IRadAn=         5 AccDes= 0.00D+00
 Harris functional with IExCor=  404 and IRadAn=       5 diagonalized for initial guess.
 HarFok:  IExCor=  404 AccDes= 0.00D+00 IRadAn=         5 IDoV= 1 UseB2=F ITyADJ=14
 ICtDFT=  3500011 ScaDFX=  1.000000  1.000000  1.000000  1.000000
 Defaulting to unpruned grid for atomic number  91.
 FoFCou: FMM=F IPFlag=           0 FMFlag=      100000 FMFlg1=           0
         NFxFlg=           0 DoJE=T BraDBF=F KetDBF=T FulRan=T
         wScrn=  0.000000 ICntrl=       500 IOpCl=  0 I1Cent=   200000004 NGrid=           0
         NMat0=    1 NMatS0=      1 NMatT0=    0 NMatD0=    1 NMtDS0=    0 NMtDT0=    0
 Petite list used in FoFCou.
 Harris En= -1027.28809795521    
 JPrj=0 DoOrth=F DoCkMO=F.
 Leave Link  401 at Tue Jul  4 11:34:39 2023, MaxMem=  2147483648 cpu:              21.3 elap:               2.7
 (Enter /home/pcmt/gaussian/g16.C.01/g16/l502.exe)
 Integral symmetry usage will be decided dynamically.
 Closed shell SCF:
 Using DIIS extrapolation, IDIIS=  1040.
 NGot=  2147483648 LenX=  2147099514 LenY=  2146910717
 Requested convergence on RMS density matrix=1.00D-08 within 100 cycles.
 Requested convergence on MAX density matrix=1.00D-06.
 Requested convergence on             energy=1.00D-06.
 No special actions if energy rises.
 Fock matrices will be formed incrementally for  20 cycles.

 Cycle   1  Pass 1  IDiag  1:
 FoFJK:  IHMeth= 1 ICntrl=     500 DoSepK=F KAlg= 0 I1Cent=           0 FoldK=F
 IRaf= 880000000 NMat=       1 IRICut=       1 DoRegI=T DoRafI=F ISym2E= 0 IDoP0=0 IntGTp=1.
 FoFCou: FMM=F IPFlag=           0 FMFlag=      100000 FMFlg1=           0
         NFxFlg=           0 DoJE=T BraDBF=F KetDBF=F FulRan=T
         wScrn=  0.000000 ICntrl=       500 IOpCl=  0 I1Cent=           0 NGrid=           0
         NMat0=    1 NMatS0=      1 NMatT0=    0 NMatD0=    1 NMtDS0=    0 NMtDT0=    0
 Symmetry not used in FoFCou.
 Defaulting to unpruned grid for atomic number  91.
 Defaulting to unpruned grid for atomic number  91.
 Defaulting to unpruned grid for atomic number  91.
 Defaulting to unpruned grid for atomic number  91.
 Defaulting to unpruned grid for atomic number  91.
 Defaulting to unpruned grid for atomic number  91.
 Defaulting to unpruned grid for atomic number  91.
 Defaulting to unpruned grid for atomic number  91.
 E= -1024.56087863776    
 DIIS: error= 4.99D-02 at cycle   1 NSaved=   1.
 NSaved= 1 IEnMin= 1 EnMin= -1024.56087863776     IErMin= 1 ErrMin= 4.99D-02
 ErrMax= 4.99D-02  0.00D+00 EMaxC= 1.00D-01 BMatC= 1.78D+00 BMatP= 1.78D+00
 IDIUse=3 WtCom= 5.01D-01 WtEn= 4.99D-01
 Coeff-Com:  0.100D+01
 Coeff-En:   0.100D+01
 Coeff:      0.100D+01
 Gap=    -0.016 Goal=   None    Shift=    0.000
 GapD=   -0.016 DampG=0.250 DampE=0.250 DampFc=0.1250 IDamp=-1.
 Damping current iteration by 1.25D-01
 RMSDP=1.06D-02 MaxDP=1.22D+00              OVMax= 9.96D-01

 Cycle   2  Pass 1  IDiag  1:
 RMSU=  1.29D-03    CP:  1.01D+00
 E= -1024.65041061769     Delta-E=       -0.089531979930 Rises=F Damp=T
 DIIS: error= 2.54D-02 at cycle   2 NSaved=   2.
 NSaved= 2 IEnMin= 2 EnMin= -1024.65041061769     IErMin= 2 ErrMin= 2.54D-02
 ErrMax= 2.54D-02  0.00D+00 EMaxC= 1.00D-01 BMatC= 3.17D-01 BMatP= 1.78D+00
 IDIUse=3 WtCom= 7.46D-01 WtEn= 2.54D-01
 Coeff-Com: -0.771D-01 0.108D+01
 Coeff-En:   0.462D+00 0.538D+00
 Coeff:      0.599D-01 0.940D+00
 Gap=    -0.071 Goal=   None    Shift=    0.000
 RMSDP=4.77D-03 MaxDP=2.13D-01 DE=-8.95D-02 OVMax= 9.15D-01

 Cycle   3  Pass 1  IDiag  1:
 RMSU=  4.75D-03    CP:  9.95D-01  1.16D+00
 E= -1021.64825126523     Delta-E=        3.002159352464 Rises=F Damp=F
 DIIS: error= 5.52D-02 at cycle   3 NSaved=   3.
 NSaved= 3 IEnMin= 2 EnMin= -1024.65041061769     IErMin= 2 ErrMin= 2.54D-02
 ErrMax= 5.52D-02  0.00D+00 EMaxC= 1.00D-01 BMatC= 3.64D+00 BMatP= 3.17D-01
 IDIUse=2 WtCom= 0.00D+00 WtEn= 1.00D+00
 EnCoef did     3 forward-backward iterations
 Coeff-En:   0.344D+00 0.491D+00 0.165D+00
 Coeff:      0.344D+00 0.491D+00 0.165D+00
 Gap=     0.159 Goal=   None    Shift=    0.000
 RMSDP=6.69D-03 MaxDP=5.17D-01 DE= 3.00D+00 OVMax= 9.31D-01

 Cycle   4  Pass 1  IDiag  1:
 RMSU=  3.39D-03    CP:  1.05D+00  3.00D+00  6.85D-02
 E= -1002.65770949111     Delta-E=       18.990541774125 Rises=F Damp=F
 DIIS: error= 2.77D-01 at cycle   4 NSaved=   4.
 NSaved= 4 IEnMin= 2 EnMin= -1024.65041061769     IErMin= 2 ErrMin= 2.54D-02
 ErrMax= 2.77D-01  0.00D+00 EMaxC= 1.00D-01 BMatC= 4.29D+01 BMatP= 3.17D-01
 IDIUse=2 WtCom= 0.00D+00 WtEn= 1.00D+00
 EnCoef did   100 forward-backward iterations
 Coeff-En:   0.666D+00 0.225D-01 0.193D+00 0.118D+00
 Coeff:      0.666D+00 0.225D-01 0.193D+00 0.118D+00
 Gap=     0.004 Goal=   None    Shift=    0.000
 RMSDP=3.68D-03 MaxDP=2.60D-01 DE= 1.90D+01 OVMax= 7.55D-01

 Cycle   5  Pass 1  IDiag  1:
 RMSU=  2.11D-03    CP:  1.06D+00  2.41D+00  1.70D-01  2.75D-01
 E= -1024.84894370950     Delta-E=      -22.191234218391 Rises=F Damp=F
 DIIS: error= 4.54D-02 at cycle   5 NSaved=   5.
 NSaved= 5 IEnMin= 5 EnMin= -1024.84894370950     IErMin= 2 ErrMin= 2.54D-02
 ErrMax= 4.54D-02  0.00D+00 EMaxC= 1.00D-01 BMatC= 1.58D+00 BMatP= 3.17D-01
 IDIUse=2 WtCom= 0.00D+00 WtEn= 1.00D+00
 EnCoef did   100 forward-backward iterations
 Coeff-En:   0.454D+00 0.577D-02 0.249D-03 0.000D+00 0.540D+00
 Coeff:      0.454D+00 0.577D-02 0.249D-03 0.000D+00 0.540D+00
 Gap=     0.208 Goal=   None    Shift=    0.000
 RMSDP=2.08D-03 MaxDP=1.60D-01 DE=-2.22D+01 OVMax= 2.83D-01

 Cycle   6  Pass 1  IDiag  1:
 RMSU=  1.29D-03    CP:  1.04D+00  1.44D+00  1.63D-01  1.21D-01  5.90D-01
 E= -1025.52619184647     Delta-E=       -0.677248136972 Rises=F Damp=F
 DIIS: error= 2.93D-02 at cycle   6 NSaved=   6.
 NSaved= 6 IEnMin= 6 EnMin= -1025.52619184647     IErMin= 2 ErrMin= 2.54D-02
 ErrMax= 2.93D-02  0.00D+00 EMaxC= 1.00D-01 BMatC= 3.38D-01 BMatP= 3.17D-01
 IDIUse=3 WtCom= 7.07D-01 WtEn= 2.93D-01
 EnCoef did    10 forward-backward iterations
 Coeff-Com:  0.874D-01 0.320D+00 0.210D-01-0.253D-01 0.295D+00 0.302D+00
 Coeff-En:   0.121D+00 0.000D+00 0.000D+00 0.000D+00 0.302D+00 0.577D+00
 Coeff:      0.973D-01 0.226D+00 0.148D-01-0.179D-01 0.297D+00 0.383D+00
 Gap=     0.183 Goal=   None    Shift=    0.000
 RMSDP=1.22D-03 MaxDP=6.03D-02 DE=-6.77D-01 OVMax= 1.68D-01

 Cycle   7  Pass 1  IDiag  1:
 RMSU=  7.73D-04    CP:  1.05D+00  1.50D+00  1.11D-01  1.34D-01  6.70D-01
                    CP:  3.08D-01
 E= -1025.63886659828     Delta-E=       -0.112674751816 Rises=F Damp=F
 DIIS: error= 2.63D-02 at cycle   7 NSaved=   7.
 NSaved= 7 IEnMin= 7 EnMin= -1025.63886659828     IErMin= 2 ErrMin= 2.54D-02
 ErrMax= 2.63D-02  0.00D+00 EMaxC= 1.00D-01 BMatC= 2.09D-01 BMatP= 3.17D-01
 IDIUse=3 WtCom= 7.37D-01 WtEn= 2.63D-01
 EnCoef did     3 forward-backward iterations
 Coeff-Com: -0.793D-01 0.258D+00 0.532D-02-0.814D-02 0.131D+00 0.306D+00
 Coeff-Com:  0.387D+00
 Coeff-En:   0.000D+00 0.000D+00 0.000D+00 0.000D+00 0.155D+00 0.316D+00
 Coeff-En:   0.529D+00
 Coeff:     -0.584D-01 0.190D+00 0.392D-02-0.600D-02 0.137D+00 0.309D+00
 Coeff:      0.425D+00
 Gap=     0.183 Goal=   None    Shift=    0.000
 RMSDP=7.54D-04 MaxDP=3.31D-02 DE=-1.13D-01 OVMax= 1.14D-01

 Cycle   8  Pass 1  IDiag  1:
 RMSU=  4.03D-04    CP:  1.05D+00  1.67D+00  1.08D-01  1.51D-01  7.12D-01
                    CP:  5.07D-01  3.11D-01
 E= -1025.77736322142     Delta-E=       -0.138496623134 Rises=F Damp=F
 DIIS: error= 8.77D-03 at cycle   8 NSaved=   8.
 NSaved= 8 IEnMin= 8 EnMin= -1025.77736322142     IErMin= 8 ErrMin= 8.77D-03
 ErrMax= 8.77D-03  0.00D+00 EMaxC= 1.00D-01 BMatC= 2.69D-02 BMatP= 2.09D-01
 IDIUse=3 WtCom= 9.12D-01 WtEn= 8.77D-02
 Coeff-Com: -0.765D-01 0.124D+00-0.565D-02-0.193D-02 0.695D-01 0.178D+00
 Coeff-Com:  0.324D+00 0.389D+00
 Coeff-En:   0.000D+00 0.000D+00 0.000D+00 0.000D+00 0.000D+00 0.000D+00
 Coeff-En:   0.844D-01 0.916D+00
 Coeff:     -0.698D-01 0.113D+00-0.515D-02-0.176D-02 0.634D-01 0.163D+00
 Coeff:      0.303D+00 0.435D+00
 Gap=     0.140 Goal=   None    Shift=    0.000
 RMSDP=3.06D-04 MaxDP=1.85D-02 DE=-1.38D-01 OVMax= 4.80D-02

 Cycle   9  Pass 1  IDiag  1:
 RMSU=  1.74D-04    CP:  1.05D+00  1.71D+00  1.11D-01  1.52D-01  7.32D-01
                    CP:  4.57D-01  5.22D-01  6.05D-01
 E= -1025.78983258418     Delta-E=       -0.012469362764 Rises=F Damp=F
 DIIS: error= 4.70D-03 at cycle   9 NSaved=   9.
 NSaved= 9 IEnMin= 9 EnMin= -1025.78983258418     IErMin= 9 ErrMin= 4.70D-03
 ErrMax= 4.70D-03  0.00D+00 EMaxC= 1.00D-01 BMatC= 1.07D-02 BMatP= 2.69D-02
 IDIUse=3 WtCom= 9.53D-01 WtEn= 4.70D-02
 Coeff-Com: -0.403D-01 0.511D-01-0.858D-02 0.610D-03 0.298D-01 0.343D-01
 Coeff-Com:  0.813D-01 0.324D+00 0.528D+00
 Coeff-En:   0.000D+00 0.000D+00 0.000D+00 0.000D+00 0.000D+00 0.000D+00
 Coeff-En:   0.000D+00 0.262D+00 0.738D+00
 Coeff:     -0.384D-01 0.487D-01-0.817D-02 0.581D-03 0.284D-01 0.327D-01
 Coeff:      0.774D-01 0.321D+00 0.538D+00
 Gap=     0.127 Goal=   None    Shift=    0.000
 RMSDP=1.52D-04 MaxDP=1.11D-02 DE=-1.25D-02 OVMax= 1.51D-02

 Cycle  10  Pass 1  IDiag  1:
 RMSU=  1.06D-04    CP:  1.05D+00  1.75D+00  1.12D-01  1.59D-01  7.49D-01
                    CP:  4.88D-01  5.05D-01  7.57D-01  8.09D-01
 E= -1025.79715458980     Delta-E=       -0.007322005612 Rises=F Damp=F
 DIIS: error= 1.23D-03 at cycle  10 NSaved=  10.
 NSaved=10 IEnMin=10 EnMin= -1025.79715458980     IErMin=10 ErrMin= 1.23D-03
 ErrMax= 1.23D-03  0.00D+00 EMaxC= 1.00D-01 BMatC= 1.46D-03 BMatP= 1.07D-02
 IDIUse=3 WtCom= 9.88D-01 WtEn= 1.23D-02
 Coeff-Com:  0.359D-02 0.703D-03-0.269D-02 0.585D-03 0.552D-02-0.525D-01
 Coeff-Com: -0.835D-01 0.184D-01 0.236D+00 0.874D+00
 Coeff-En:   0.000D+00 0.000D+00 0.000D+00 0.000D+00 0.000D+00 0.000D+00
 Coeff-En:   0.000D+00 0.000D+00 0.000D+00 0.100D+01
 Coeff:      0.355D-02 0.694D-03-0.266D-02 0.577D-03 0.546D-02-0.518D-01
 Coeff:     -0.824D-01 0.182D-01 0.233D+00 0.876D+00
 Gap=     0.119 Goal=   None    Shift=    0.000
 RMSDP=1.70D-04 MaxDP=1.26D-02 DE=-7.32D-03 OVMax= 1.84D-02

 Cycle  11  Pass 1  IDiag  1:
 RMSU=  7.64D-05    CP:  1.05D+00  1.80D+00  1.09D-01  1.62D-01  7.67D-01
                    CP:  4.87D-01  5.27D-01  8.64D-01  1.25D+00  1.84D+00
 E= -1025.79901882993     Delta-E=       -0.001864240135 Rises=F Damp=F
 DIIS: error= 1.04D-03 at cycle  11 NSaved=  11.
 NSaved=11 IEnMin=11 EnMin= -1025.79901882993     IErMin=11 ErrMin= 1.04D-03
 ErrMax= 1.04D-03  0.00D+00 EMaxC= 1.00D-01 BMatC= 8.34D-04 BMatP= 1.46D-03
 IDIUse=3 WtCom= 9.90D-01 WtEn= 1.04D-02
 Coeff-Com:  0.153D-01-0.159D-01 0.303D-03 0.526D-03-0.144D-02-0.535D-01
 Coeff-Com: -0.857D-01-0.333D-01 0.106D+00 0.692D+00 0.375D+00
 Coeff-En:   0.000D+00 0.000D+00 0.000D+00 0.000D+00 0.000D+00 0.000D+00
 Coeff-En:   0.000D+00 0.000D+00 0.000D+00 0.000D+00 0.100D+01
 Coeff:      0.152D-01-0.157D-01 0.300D-03 0.521D-03-0.143D-02-0.529D-01
 Coeff:     -0.848D-01-0.329D-01 0.105D+00 0.685D+00 0.382D+00
 Gap=     0.115 Goal=   None    Shift=    0.000
 RMSDP=1.08D-04 MaxDP=7.74D-03 DE=-1.86D-03 OVMax= 1.19D-02

 Cycle  12  Pass 1  IDiag  1:
 RMSU=  4.84D-05    CP:  1.05D+00  1.83D+00  1.08D-01  1.65D-01  7.76D-01
                    CP:  4.87D-01  5.42D-01  9.41D-01  1.49D+00  2.45D+00
                    CP:  1.18D+00
 E= -1025.79904903293     Delta-E=       -0.000030203002 Rises=F Damp=F
 DIIS: error= 1.38D-03 at cycle  12 NSaved=  12.
 NSaved=12 IEnMin=12 EnMin= -1025.79904903293     IErMin=11 ErrMin= 1.04D-03
 ErrMax= 1.38D-03  0.00D+00 EMaxC= 1.00D-01 BMatC= 1.99D-03 BMatP= 8.34D-04
 IDIUse=3 WtCom= 9.90D-01 WtEn= 1.04D-02
 Coeff-Com:  0.150D-01-0.157D-01 0.554D-03 0.308D-03-0.180D-02-0.426D-01
 Coeff-Com: -0.676D-01-0.139D-01 0.114D+00 0.543D+00 0.277D+00 0.192D+00
 Coeff-En:   0.000D+00 0.000D+00 0.000D+00 0.000D+00 0.000D+00 0.000D+00
 Coeff-En:   0.000D+00 0.000D+00 0.000D+00 0.000D+00 0.478D+00 0.522D+00
 Coeff:      0.148D-01-0.156D-01 0.548D-03 0.305D-03-0.179D-02-0.422D-01
 Coeff:     -0.669D-01-0.138D-01 0.112D+00 0.538D+00 0.279D+00 0.196D+00
 Gap=     0.114 Goal=   None    Shift=    0.000
 RMSDP=1.41D-05 MaxDP=1.59D-03 DE=-3.02D-05 OVMax= 1.94D-03

 Cycle  13  Pass 1  IDiag  1:
 RMSU=  1.11D-05    CP:  1.05D+00  1.83D+00  1.08D-01  1.65D-01  7.76D-01
                    CP:  4.86D-01  5.39D-01  9.43D-01  1.49D+00  2.46D+00
                    CP:  1.25D+00  8.86D-01
 E= -1025.79910067126     Delta-E=       -0.000051638332 Rises=F Damp=F
 DIIS: error= 1.27D-03 at cycle  13 NSaved=  13.
 NSaved=13 IEnMin=13 EnMin= -1025.79910067126     IErMin=11 ErrMin= 1.04D-03
 ErrMax= 1.27D-03  0.00D+00 EMaxC= 1.00D-01 BMatC= 1.78D-03 BMatP= 8.34D-04
 IDIUse=3 WtCom= 9.90D-01 WtEn= 1.04D-02
 Rare condition: small coef for last iteration:  0.000D+00
 Coeff-Com:  0.631D-02-0.981D-02 0.117D-02 0.403D-03-0.916D-02-0.584D-02
 Coeff-Com:  0.432D-03 0.690D-01 0.211D+00 0.993D-01-0.466D+00-0.134D+01
 Coeff-Com:  0.244D+01
 Coeff-En:   0.000D+00 0.000D+00 0.000D+00 0.000D+00 0.000D+00 0.000D+00
 Coeff-En:   0.000D+00 0.000D+00 0.000D+00 0.000D+00 0.423D+00 0.000D+00
 Coeff-En:   0.577D+00
 Coeff:      0.631D-02-0.981D-02 0.117D-02 0.403D-03-0.916D-02-0.584D-02
 Coeff:      0.432D-03 0.690D-01 0.211D+00 0.993D-01-0.466D+00-0.134D+01
 Coeff:      0.244D+01
 Gap=     0.118 Goal=   None    Shift=    0.000
 RMSDP=5.29D-05 MaxDP=7.37D-03 DE=-5.16D-05 OVMax= 5.35D-03

 Cycle  14  Pass 1  IDiag  1:
 RMSU=  3.06D-05    CP:  1.05D+00  1.81D+00  1.09D-01  1.64D-01  7.69D-01
                    CP:  4.87D-01  5.44D-01  9.29D-01  1.45D+00  2.26D+00
                    CP:  1.20D+00  1.16D+00  1.63D+00
 E= -1025.79953057886     Delta-E=       -0.000429907594 Rises=F Damp=F
 DIIS: error= 9.01D-04 at cycle  14 NSaved=  14.
 NSaved=14 IEnMin=14 EnMin= -1025.79953057886     IErMin=14 ErrMin= 9.01D-04
 ErrMax= 9.01D-04  0.00D+00 EMaxC= 1.00D-01 BMatC= 7.52D-04 BMatP= 8.34D-04
 IDIUse=3 WtCom= 9.91D-01 WtEn= 9.01D-03
 Coeff-Com:  0.184D-02-0.749D-02 0.560D-03 0.154D-03-0.135D-01 0.160D-01
 Coeff-Com:  0.311D-01 0.648D-01 0.171D+00-0.151D+00-0.752D+00-0.227D+01
 Coeff-Com:  0.327D+01 0.639D+00
 Coeff-En:   0.000D+00 0.000D+00 0.000D+00 0.000D+00 0.000D+00 0.000D+00
 Coeff-En:   0.000D+00 0.000D+00 0.000D+00 0.000D+00 0.000D+00 0.000D+00
 Coeff-En:   0.000D+00 0.100D+01
 Coeff:      0.182D-02-0.743D-02 0.555D-03 0.153D-03-0.133D-01 0.159D-01
 Coeff:      0.308D-01 0.643D-01 0.169D+00-0.149D+00-0.745D+00-0.225D+01
 Coeff:      0.324D+01 0.642D+00
 Gap=     0.120 Goal=   None    Shift=    0.000
 RMSDP=7.15D-05 MaxDP=5.29D-03 DE=-4.30D-04 OVMax= 9.48D-03

 Cycle  15  Pass 1  IDiag  1:
 RMSU=  2.91D-05    CP:  1.05D+00  1.80D+00  1.09D-01  1.60D-01  7.65D-01
                    CP:  4.94D-01  5.55D-01  9.54D-01  1.56D+00  2.56D+00
                    CP:  1.59D+00  1.53D+00  3.00D+00  3.89D-01
 E= -1025.80018926380     Delta-E=       -0.000658684941 Rises=F Damp=F
 DIIS: error= 5.68D-04 at cycle  15 NSaved=  15.
 NSaved=15 IEnMin=15 EnMin= -1025.80018926380     IErMin=15 ErrMin= 5.68D-04
 ErrMax= 5.68D-04  0.00D+00 EMaxC= 1.00D-01 BMatC= 1.39D-04 BMatP= 7.52D-04
 IDIUse=3 WtCom= 9.94D-01 WtEn= 5.68D-03
 Coeff-Com:  0.199D-02-0.583D-02 0.703D-04 0.993D-04-0.876D-02 0.111D-01
 Coeff-Com:  0.149D-01 0.113D-01 0.579D-01-0.934D-01-0.416D+00-0.137D+01
 Coeff-Com:  0.169D+01 0.528D+00 0.582D+00
 Coeff-En:   0.000D+00 0.000D+00 0.000D+00 0.000D+00 0.000D+00 0.000D+00
 Coeff-En:   0.000D+00 0.000D+00 0.000D+00 0.000D+00 0.000D+00 0.000D+00
 Coeff-En:   0.000D+00 0.000D+00 0.100D+01
 Coeff:      0.198D-02-0.579D-02 0.699D-04 0.987D-04-0.871D-02 0.110D-01
 Coeff:      0.148D-01 0.112D-01 0.575D-01-0.928D-01-0.414D+00-0.136D+01
 Coeff:      0.168D+01 0.525D+00 0.585D+00
 Gap=     0.114 Goal=   None    Shift=    0.000
 RMSDP=6.09D-05 MaxDP=4.45D-03 DE=-6.59D-04 OVMax= 9.01D-03

 Cycle  16  Pass 1  IDiag  1:
 RMSU=  2.07D-05    CP:  1.05D+00  1.80D+00  1.09D-01  1.60D-01  7.65D-01
                    CP:  5.01D-01  5.64D-01  9.77D-01  1.71D+00  2.90D+00
                    CP:  1.93D+00  1.96D+00  3.00D+00  6.87D-01  1.05D+00
 E= -1025.80017102714     Delta-E=        0.000018236657 Rises=F Damp=F
 DIIS: error= 4.78D-04 at cycle  16 NSaved=  16.
 NSaved=16 IEnMin=15 EnMin= -1025.80018926380     IErMin=16 ErrMin= 4.78D-04
 ErrMax= 4.78D-04  0.00D+00 EMaxC= 1.00D-01 BMatC= 2.18D-04 BMatP= 1.39D-04
 IDIUse=3 WtCom= 9.94D-01 WtEn= 5.68D-03
 Coeff-Com:  0.763D-03-0.701D-03-0.357D-03 0.447D-04-0.291D-02 0.460D-02
 Coeff-Com:  0.258D-02-0.260D-02 0.342D-01 0.286D-01-0.211D+00-0.867D+00
 Coeff-Com:  0.806D+00 0.356D+00 0.488D+00 0.364D+00
 Coeff-En:   0.000D+00 0.000D+00 0.000D+00 0.000D+00 0.000D+00 0.000D+00
 Coeff-En:   0.000D+00 0.000D+00 0.000D+00 0.000D+00 0.000D+00 0.000D+00
 Coeff-En:   0.000D+00 0.000D+00 0.559D+00 0.441D+00
 Coeff:      0.758D-03-0.697D-03-0.355D-03 0.444D-04-0.289D-02 0.457D-02
 Coeff:      0.256D-02-0.258D-02 0.340D-01 0.284D-01-0.210D+00-0.862D+00
 Coeff:      0.802D+00 0.354D+00 0.488D+00 0.364D+00
 Gap=     0.119 Goal=   None    Shift=    0.000
 RMSDP=5.28D-05 MaxDP=5.05D-03 DE= 1.82D-05 OVMax= 6.93D-03

 Cycle  17  Pass 1  IDiag  1:
 RMSU=  1.10D-05    CP:  1.05D+00  1.79D+00  1.09D-01  1.60D-01  7.61D-01
                    CP:  4.97D-01  5.55D-01  9.50D-01  1.59D+00  2.60D+00
                    CP:  1.65D+00  1.68D+00  3.00D+00  7.71D-01  9.04D-01
                    CP:  4.33D-01
 E= -1025.80028707278     Delta-E=       -0.000116045637 Rises=F Damp=F
 DIIS: error= 1.01D-04 at cycle  17 NSaved=  17.
 NSaved=17 IEnMin=17 EnMin= -1025.80028707278     IErMin=17 ErrMin= 1.01D-04
 ErrMax= 1.01D-04  0.00D+00 EMaxC= 1.00D-01 BMatC= 5.96D-06 BMatP= 1.39D-04
 IDIUse=3 WtCom= 9.99D-01 WtEn= 1.01D-03
 Coeff-Com:  0.263D-03-0.282D-03-0.129D-04 0.189D-04-0.550D-03 0.317D-03
 Coeff-Com:  0.288D-03-0.387D-02 0.237D-02 0.617D-02-0.263D-01-0.145D+00
 Coeff-Com:  0.633D-01 0.661D-01 0.151D+00 0.244D+00 0.643D+00
 Coeff-En:   0.000D+00 0.000D+00 0.000D+00 0.000D+00 0.000D+00 0.000D+00
 Coeff-En:   0.000D+00 0.000D+00 0.000D+00 0.000D+00 0.000D+00 0.000D+00
 Coeff-En:   0.000D+00 0.000D+00 0.000D+00 0.470D-01 0.953D+00
 Coeff:      0.263D-03-0.282D-03-0.129D-04 0.189D-04-0.550D-03 0.317D-03
 Coeff:      0.288D-03-0.387D-02 0.237D-02 0.616D-02-0.263D-01-0.145D+00
 Coeff:      0.632D-01 0.660D-01 0.151D+00 0.243D+00 0.643D+00
 Gap=     0.116 Goal=   None    Shift=    0.000
 RMSDP=1.67D-05 MaxDP=1.24D-03 DE=-1.16D-04 OVMax= 2.35D-03

 Cycle  18  Pass 1  IDiag  1:
 RMSU=  2.63D-06    CP:  1.05D+00  1.79D+00  1.09D-01  1.60D-01  7.61D-01
                    CP:  4.98D-01  5.59D-01  9.57D-01  1.63D+00  2.69D+00
                    CP:  1.75D+00  1.79D+00  3.00D+00  7.79D-01  1.02D+00
                    CP:  5.91D-01  8.59D-01
 E= -1025.80029675400     Delta-E=       -0.000009681222 Rises=F Damp=F
 DIIS: error= 6.19D-05 at cycle  18 NSaved=  18.
 NSaved=18 IEnMin=18 EnMin= -1025.80029675400     IErMin=18 ErrMin= 6.19D-05
[...]
  57         V                -0.071532         42.599726
  58         V                -0.061690         11.144330
  59         V                -0.029015         11.986581
  60         V                -0.014410          3.000775
  61         V                -0.004883          2.048286
  62         V                 0.012260          1.917248
  63         V                 0.028973          1.272865
  64         V                 0.030672          2.067901
  65         V                 0.043557          1.479498
  66         V                 0.058915          2.272716
  67         V                 0.064367          3.776324
  68         V                 0.076197          1.271458
  69         V                 0.095219         14.640598
  70         V                 0.096108          4.944881
  71         V                 0.109830          2.471049
  72         V                 0.140259          3.232653
  73         V                 0.191182          1.022341
  74         V                 0.215543          1.446824
  75         V                 0.226722          1.500464
  76         V                 0.235174          2.918461
  77         V                 0.244776          1.607466
  78         V                 0.252520          1.342163
  79         V                 0.259708          1.246147
  80         V                 0.274768          1.573127
  81         V                 0.286951          1.702876
  82         V                 0.292701          1.845997
  83         V                 0.294924          1.783223
  84         V                 0.308405          1.342041
  85         V                 0.317567          2.472662
  86         V                 0.336162          1.945847
  87         V                 0.349472          1.725355
  88         V                 0.367165          1.490553
  89         V                 0.372738          1.393595
  90         V                 0.384340          1.881532
  91         V                 0.395975          1.505208
  92         V                 0.407399          1.746761
  93         V                 0.417472          1.800599
  94         V                 0.425580          2.276852
  95         V                 0.435816          2.061668
  96         V                 0.442646          1.669937
  97         V                 0.454838          1.725945
  98         V                 0.466594          1.559127
  99         V                 0.486234          1.673167
 100         V                 0.495838          1.941781
 101         V                 0.509990          1.580634
 102         V                 0.525715          1.713261
 103         V                 0.527168          1.716355
 104         V                 0.532554          2.365613
 105         V                 0.547455          1.461314
 106         V                 0.555964          1.998829
 107         V                 0.561707          1.608444
 108         V                 0.586452          1.455585
 109         V                 0.600179          1.909706
 110         V                 0.605099          1.530712
 111         V                 0.617809          1.710773
 112         V                 0.638158          1.554654
 113         V                 0.650207          2.112471
 114         V                 0.666196          1.391943
 115         V                 0.679069          2.481878
 116         V                 0.697252          1.735414
 117         V                 0.707836          1.484156
 118         V                 0.733288          1.687565
 119         V                 0.762801          1.756341
 120         V                 0.782459          1.716959
 121         V                 0.824868          1.772810
 122         V                 0.870029          2.143191
 123         V                 0.874998          2.025390
 124         V                 0.911104          2.576603
 125         V                 0.954215          2.458610
 126         V                 0.957621          1.963297
 127         V                 0.964250          1.982030
 128         V                 0.965842          2.397583
 129         V                 1.017643          2.454908
 130         V                 1.042575          2.737800
 131         V                 1.048955          2.219361
 132         V                 1.077650          2.972203
 133         V                 1.096281          2.730874
 134         V                 1.100474          2.662585
 135         V                 1.113131          2.673064
 136         V                 1.138542          3.116371
 137         V                 1.144821          2.733944
 138         V                 1.158307          2.898170
 139         V                 1.163460          2.554922
 140         V                 1.177349          2.895688
 141         V                 1.202285          2.751496
 142         V                 1.205530          2.390018
 143         V                 1.238686          2.654731
 144         V                 1.257407          2.689931
 145         V                 1.262252          3.012884
 146         V                 1.276134          2.841535
 147         V                 1.304601          2.935824
 148         V                 1.317779          2.475530
 149         V                 1.341627          3.011354
 150         V                 1.366200          3.298219
 151         V                 1.385195          2.853678
 152         V                 1.394341          2.505747
 153         V                 1.431752          2.927495
 154         V                 1.439165          2.990962
 155         V                 1.456308          2.449331
 156         V                 1.475175          3.306907
 157         V                 1.501944          2.993626
 158         V                 1.514895          3.241206
 159         V                 1.536622          2.991656
 160         V                 1.551170          3.321921
 161         V                 1.576442          3.137164
 162         V                 1.595485          3.003054
 163         V                 1.635902          2.970606
 164         V                 1.641548          3.324321
 165         V                 1.648007          3.161341
 166         V                 1.662600          3.284160
 167         V                 1.682721          3.110707
 168         V                 1.691552          3.198064
 169         V                 1.698897          3.518757
 170         V                 1.719277          3.314112
 171         V                 1.735156          3.366306
 172         V                 1.758443          3.102897
 173         V                 1.766602          3.480011
 174         V                 1.780333          3.439154
 175         V                 1.813026          3.614720
 176         V                 1.827812          3.518117
 177         V                 1.846988          3.747441
 178         V                 1.872247          3.533127
 179         V                 1.903515          3.336372
 180         V                 1.918717          3.569676
 181         V                 1.961077          3.410294
 182         V                 1.965284          3.334095
 183         V                 1.992292          3.846711
 184         V                 2.010068          3.753774
 185         V                 2.034726          3.464657
 186         V                 2.056698          3.941102
 187         V                 2.067724          4.067458
 188         V                 2.094504          3.897189
 189         V                 2.103425          3.588294
 190         V                 2.110666          3.742081
 191         V                 2.122509          3.752463
 192         V                 2.133179          3.971445
 193         V                 2.158597          3.795654
 194         V                 2.166759          3.897985
 195         V                 2.221149          4.604574
 196         V                 2.224755          4.043443
 197         V                 2.264403          4.896187
 198         V                 2.283678          4.062520
 199         V                 2.291098          5.144865
 200         V                 2.306010          5.010869
 201         V                 2.368878          5.460562
 202         V                 2.377241          4.662061
 203         V                 2.415979          4.252563
 204         V                 2.464737          5.656689
 205         V                 2.474662          5.366823
 206         V                 2.506560          4.870393
 207         V                 2.517658          5.897979
 208         V                 2.536512          5.224717
 209         V                 2.553946          5.766066
 210         V                 2.577220          6.413168
 211         V                 2.608401          6.486332
 212         V                 2.614686          6.488391
 213         V                 2.626958          6.744829
 214         V                 2.632410          6.450078
 215         V                 2.656318          6.514706
 216         V                 2.677305          6.624824
 217         V                 2.696150          6.440856
 218         V                 2.702927          6.418576
 219         V                 2.809197          7.025483
 220         V                 2.883970          6.727307
 221         V                 2.897945          6.685306
 222         V                 2.926030          6.985576
 223         V                 2.968827          7.293739
 224         V                 3.006125          7.128257
 225         V                 3.055107          6.909481
 226         V                 3.079241          7.087064
 227         V                 3.099368          6.876137
 228         V                 3.160459          7.291900
 229         V                 3.204096          7.442122
 230         V                 3.370599          8.113035
 231         V                 3.469494          6.947889
 232         V                 3.482928          6.524973
 233         V                 3.570185          7.574053
 234         V                 3.650986          8.248473
 235         V                 3.670390          7.584037
 236         V                 3.686469          7.656755
 237         V                 3.700485          8.135912
 238         V                 3.739811          7.690981
 239         V                 3.768992          5.606688
 240         V                 3.793371          6.303927
 241         V                 3.815677          9.139007
 242         V                 3.843848          7.975679
 243         V                 3.882347          8.719333
 244         V                 3.908580          9.089271
 245         V                 3.958331          9.019747
 246         V                 4.052262          5.552459
 247         V                 4.060317          9.031217
 248         V                 4.078311          9.492162
 249         V                 4.103398          6.712947
 250         V                 4.295795          8.992966
 251         V                 4.420186          6.652569
 252         V                 4.481840          6.619271
 253         V                 4.489249          6.952763
 254         V                 4.512633          6.547285
 255         V                 4.545151          6.709231
 256         V                 4.851446          6.889235
 257         V                 4.908200          6.549456
 258         V                 4.952042          6.782951
 259         V                 4.971908          6.470508
 260         V                 4.990731          6.448239
 261         V                 4.993852          6.459148
 262         V                 5.011744          6.481026
 263         V                 5.017744          6.471436
 264         V                 5.020172          6.827815
 265         V                 5.028233          6.576630
 266         V                 5.030474          6.591478
 267         V                 5.035007          6.536761
 268         V                 5.039317          6.576776
 269         V                 5.047987          6.496373
 270         V                 5.053022          6.515130
 271         V                 5.058957          6.662306
 272         V                 5.062150          6.675902
 273         V                 5.084596          6.754556
 274         V                 5.087691          6.699187
 275         V                 5.113969          6.644507
 276         V                 5.121376          6.769449
 277         V                 5.148341          7.009216
 278         V                 5.158446          6.743139
 279         V                 5.165942          6.903377
 280         V                 5.185165          6.831230
 281         V                 5.195085          6.905239
 282         V                 5.213368          6.907789
 283         V                 5.219691          6.901603
 284         V                 5.278427          7.003487
 285         V                 5.302173          7.334442
 286         V                 5.308326          7.319959
 287         V                 5.318055          7.141761
 288         V                 5.329725          7.086972
 289         V                 5.336304          7.090149
 290         V                 5.352652          7.095397
 291         V                 5.389444          7.768146
 292         V                 5.414824          7.265179
 293         V                 5.438287          7.179901
 294         V                 5.509881          7.562476
 295         V                 5.780313          8.512855
 296         V                 5.809175          8.219454
 297         V                 5.811657          8.167834
 298         V                 5.989110          8.461282
 299         V                 5.996575          9.115487
 300         V                 6.061315         10.124310
 301         V                 6.089099          8.944142
 302         V                 6.099003          9.210095
 303         V                 6.121299          9.315614
 304         V                 6.140198          9.494560
 305         V                 6.151533          9.631840
 306         V                 6.154503          9.314250
 307         V                 6.176533          9.532250
 308         V                 6.190230          9.443341
 309         V                 6.208120          9.458151
 310         V                 6.218859          9.160014
 311         V                 6.223960          9.225651
 312         V                 6.248724          9.300887
 313         V                 6.263231          9.289401
 314         V                 6.284475          9.179306
 315         V                 6.341208          9.486912
 316         V                 6.368827          9.686162
 317         V                 6.398677          9.404960
 318         V                 6.400011          9.534928
 319         V                 6.441408          9.640396
 320         V                 6.478824          9.661581
 321         V                 6.485700          9.976958
 322         V                 6.502012          9.876855
 323         V                 6.602189          9.730169
 324         V                 6.628285          9.691274
 325         V                 6.669769          9.092347
 326         V                 6.681245          9.641568
 327         V                 6.683774         10.146401
 328         V                 6.700374          9.481663
 329         V                 6.717880          9.889000
 330         V                 6.736747          9.875111
 331         V                 6.746597          9.065718
 332         V                 6.771636         10.174040
 333         V                 6.785911         10.625372
 334         V                 6.814387          9.937112
 335         V                 6.916615          9.825826
 336         V                 6.993601         10.337595
 337         V                 7.011585          9.847855
 338         V                 7.042912         10.557707
 339         V                 7.137127         10.514310
 340         V                 7.152426         10.359092
 341         V                 7.280521         12.570558
 342         V                 7.332761         10.567211
 343         V                 7.341820         12.104035
 344         V                 7.432357         11.252155
 345         V                 7.460182         10.851387
 346         V                 7.478474         13.221446
 347         V                 8.174470         15.809474
 348         V                 8.213164         15.808468
 349         V                 8.291382         15.780197
 350         V                 8.595908         15.994327
 351         V                 8.969548         16.212686
 352         V                29.338631         36.052996
 353         V                29.417213         36.116415
 354         V                29.485724         36.178293
 355         V                31.824055         80.236407
 356         V                43.011502        108.488170
 357         V                43.213572        108.570424
 358         V                43.436564        108.796530
 359         V                43.497358        108.912413
 360         V                43.588574        108.931031
 361         V                43.599997        108.984454
 362         V                43.644270        109.050954
 363         V                54.114166         40.003565
 364         V                70.234738         83.975293
 365         V                70.275628         84.058393
 366         V                70.322373         84.124472
 367         V               142.634374        242.465670
 368         V               142.719520        242.571918
 369         V               142.797308        242.668007
 370         V               202.607229        130.095682
 371         V               626.112354       1034.526072
 Total kinetic energy from orbitals= 7.453312400180D+02
 No NMR shielding tensors so no spin-rotation constants.
 Leave Link  601 at Tue Jul  4 11:38:17 2023, MaxMem=  2147483648 cpu:               4.8 elap:               0.7
 (Enter /home/pcmt/gaussian/g16.C.01/g16/l9999.exe)

 Test job not archived.
 1\1\GINC-U-0-0\SP\RBP86\Gen\H4N1O7Pa1\ROOT\04-Jul-2023\0\\#p BP86/GEN 
 Pseudo=Read GFInput GFPrint IOP(6/7=3) Symm=(Loose) Int=(UltraFine) Gu
 ess=(Harris) Scf=(NoVarAcc,MaxCycle=100,conver=8)\\pao_oh2_no3_h2o-bp8
 6-cosmors-deftzvp-gp.com SGP in PCM calculation\\0,1\Pa,0,-0.194754301
 ,0.4562769608,0.0533123147\O,0,1.3279116711,1.15904278,-1.1897975139\H
 ,0,-1.3972924062,0.7160228043,-2.5201318205\O,0,-1.4139661858,-0.27395
 48927,1.2526868073\O,0,-1.5327637513,0.3762999166,-1.6277537581\O,0,0.
 7949959708,-1.7984081683,-0.2815699973\H,0,1.5023666105,-2.0225881943,
 -0.9005032503\H,0,0.4356383083,-2.6286340013,0.0576025781\H,0,1.479461
 9711,1.4543100407,-2.0974484041\O,0,0.4017110569,2.3500684462,1.664317
 0245\O,0,-1.1477158664,2.7998372054,0.2310897322\N,0,-0.4290586256,3.2
 039367129,1.2079645728\O,0,-0.5308405672,4.3214695846,1.6666899875\\Ve
 rsion=ES64L-G16RevC.01\State=1-A\HF=-1025.8002983\RMSD=3.104e-09\Dipol
 e=2.2185418,-2.931921,-1.9873329\Quadrupole=-4.2931643,3.0813891,1.211
 7752,-6.8532314,-2.5099242,-2.2888812\PG=C01 [X(H4N1O7Pa1)]\\@


 BREAD HAS TO MOLD IN ORDER TO GET PENICILLIN.
          -- JERRY BOATZ
 Job cpu time:       0 days  0 hours 29 minutes  2.4 seconds.
 Elapsed time:       0 days  0 hours  3 minutes 41.8 seconds.
 File lengths (MBytes):  RWF=     75 Int=      0 D2E=      0 Chk=      9 Scr=      1
 Normal termination of Gaussian 16 at Tue Jul  4 11:38:17 2023.
