 Entering Gaussian System, Link 0=/home/pcmt/gaussian/g16.C.01/g16/g16
 AtFile(1): /home/shaaban/basis.gaussian/Pa-def-TZVP
 AtFile(1): /home/shaaban/basis.gaussian/Pa-ECP60MWB
 Initial command:
 /home/pcmt/gaussian/g16.C.01/g16/l1.exe "/state/partition2/shaaban/972899.phlam-s-sakura/Gau-39774.inp" -scrdir="/state/partition2/shaaban/972899.phlam-s-sakura/"
 Entering Link 1 = /home/pcmt/gaussian/g16.C.01/g16/l1.exe PID=     39775.
  
 Copyright (c) 1988-2019, Gaussian, Inc.  All Rights Reserved.
  
 This is part of the Gaussian(R) 16 program.  It is based on
 the Gaussian(R) 09 system (copyright 2009, Gaussian, Inc.),
 the Gaussian(R) 03 system (copyright 2003, Gaussian, Inc.),
 the Gaussian(R) 98 system (copyright 1998, Gaussian, Inc.),
 the Gaussian(R) 94 system (copyright 1995, Gaussian, Inc.),
 the Gaussian 92(TM) system (copyright 1992, Gaussian, Inc.),
 the Gaussian 90(TM) system (copyright 1990, Gaussian, Inc.),
 the Gaussian 88(TM) system (copyright 1988, Gaussian, Inc.),
 the Gaussian 86(TM) system (copyright 1986, Carnegie Mellon
 University), and the Gaussian 82(TM) system (copyright 1983,
 Carnegie Mellon University). Gaussian is a federally registered
 trademark of Gaussian, Inc.
  
 This software contains proprietary and confidential information,
 including trade secrets, belonging to Gaussian, Inc.
  
 This software is provided under written license and may be
 used, copied, transmitted, or stored only in accord with that
 written license.
  
 The following legend is applicable only to US Government
 contracts under FAR:
  
                    RESTRICTED RIGHTS LEGEND
  
 Use, reproduction and disclosure by the US Government is
 subject to restrictions as set forth in subparagraphs (a)
 and (c) of the Commercial Computer Software - Restricted
 Rights clause in FAR 52.227-19.
  
 Gaussian, Inc.
 340 Quinnipiac St., Bldg. 40, Wallingford CT 06492
  
  
 ---------------------------------------------------------------
 Warning -- This program may not be used in any manner that
 competes with the business of Gaussian, Inc. or will provide
 assistance to any competitor of Gaussian, Inc.  The licensee
 of this program is prohibited from giving any competitor of
 Gaussian, Inc. access to this program.  By using this program,
 the user acknowledges that Gaussian, Inc. is engaged in the
 business of creating and licensing software in the field of
 computational chemistry and represents and warrants to the
 licensee that it is not a competitor of Gaussian, Inc. and that
 it will not use this program in any manner prohibited above.
 ---------------------------------------------------------------
  

 Cite this work as:
 Gaussian 16, Revision C.01,
 M. J. Frisch, G. W. Trucks, H. B. Schlegel, G. E. Scuseria, 
 M. A. Robb, J. R. Cheeseman, G. Scalmani, V. Barone, 
 G. A. Petersson, H. Nakatsuji, X. Li, M. Caricato, A. V. Marenich, 
 J. Bloino, B. G. Janesko, R. Gomperts, B. Mennucci, H. P. Hratchian, 
 J. V. Ortiz, A. F. Izmaylov, J. L. Sonnenberg, D. Williams-Young, 
 F. Ding, F. Lipparini, F. Egidi, J. Goings, B. Peng, A. Petrone, 
 T. Henderson, D. Ranasinghe, V. G. Zakrzewski, J. Gao, N. Rega, 
 G. Zheng, W. Liang, M. Hada, M. Ehara, K. Toyota, R. Fukuda, 
 J. Hasegawa, M. Ishida, T. Nakajima, Y. Honda, O. Kitao, H. Nakai, 
 T. Vreven, K. Throssell, J. A. Montgomery, Jr., J. E. Peralta, 
 F. Ogliaro, M. J. Bearpark, J. J. Heyd, E. N. Brothers, K. N. Kudin, 
 V. N. Staroverov, T. A. Keith, R. Kobayashi, J. Normand, 
 K. Raghavachari, A. P. Rendell, J. C. Burant, S. S. Iyengar, 
 J. Tomasi, M. Cossi, J. M. Millam, M. Klene, C. Adamo, R. Cammi, 
 J. W. Ochterski, R. L. Martin, K. Morokuma, O. Farkas, 
 J. B. Foresman, and D. J. Fox, Gaussian, Inc., Wallingford CT, 2019.
 
 ******************************************
 Gaussian 16:  ES64L-G16RevC.01  3-Jul-2019
                 4-Jul-2023 
 ******************************************
 %mem=16Gb
 %NProc=8
 Will use up to    8 processors via shared memory.
 %chk=pa_oh4_so4-bp86-cosmors-deftzvp-klamt.chk
 ----------------------------------------------------------------------
 #p BP86/GEN Pseudo=Read GFInput GFPrint IOP(6/7=3) Symm=(Loose) Int=(U
 ltraFine) Guess=(Harris) SCRF=(COSMORS) Scf=(NoVarAcc,MaxCycle=100,con
 ver=8)
 ----------------------------------------------------------------------
 1/38=1,172=1/1;
 2/12=2,17=4,18=3,40=1/2;
 3/5=7,11=2,16=1,17=8,24=110,25=1,30=1,70=12101,74=404,75=-5/1,2,3;
 4/11=8/1;
 5/5=2,6=8,7=100,38=1/2;
 6/7=3,8=2,9=2,10=2,28=1/1;
 99/5=1,9=1/99;
 Leave Link    1 at Tue Jul  4 11:51:38 2023, MaxMem=  2147483648 cpu:               0.7 elap:               0.1
 (Enter /home/pcmt/gaussian/g16.C.01/g16/l101.exe)
 ----------------------------------------------------------------
 pa_oh4_so4-bp86-cosmors-deftzvp-klamt.com SGP in PCM calculation
 ----------------------------------------------------------------
 Symbolic Z-matrix:
 Charge = -1 Multiplicity = 1
 Pa                    0.4199   -0.14754  -0.21982 
 O                     1.02537   1.36275  -1.56786 
 H                     1.45342   2.22701  -1.53145 
 O                    -1.08674   1.1253    0.60756 
 H                    -1.35855   2.02057   0.37275 
 O                    -0.41964  -1.22578  -1.8582 
 H                    -0.85481  -2.08288  -1.93524 
 O                    -0.16528  -1.65341   1.14299 
 H                     0.02802  -2.58376   1.31217 
 O                     2.32502   0.32947   1.13788 
 O                     2.51257  -1.29779  -0.54999 
 S                     3.36155  -0.63644   0.54202 
 O                     4.46789   0.10532  -0.04684 
 O                     3.77325  -1.61724   1.5368 
 
 ITRead=  0  0  0  0  0  0  0  0  0  0  0  0  0  0
 MicOpt= -1 -1 -1 -1 -1 -1 -1 -1 -1 -1 -1 -1 -1 -1
 NAtoms=     14 NQM=       14 NQMF=       0 NMMI=      0 NMMIF=      0
                NMic=       0 NMicF=      0.
                    Isotopes and Nuclear Properties:
 (Nuclear quadrupole moments (NQMom) in fm**2, nuclear magnetic moments (NMagM)
  in nuclear magnetons)

  Atom         1           2           3           4           5           6           7           8           9          10
 IAtWgt=         231          16           1          16           1          16           1          16           1          16
 AtmWgt= 231.0359000  15.9949146   1.0078250  15.9949146   1.0078250  15.9949146   1.0078250  15.9949146   1.0078250  15.9949146
 NucSpn=           3           0           1           0           1           0           1           0           1           0
 AtZEff=  -0.0000000  -0.0000000  -0.0000000  -0.0000000  -0.0000000  -0.0000000  -0.0000000  -0.0000000  -0.0000000  -0.0000000
 NQMom= -172.0000000   0.0000000   0.0000000   0.0000000   0.0000000   0.0000000   0.0000000   0.0000000   0.0000000   0.0000000
 NMagM=    2.0100000   0.0000000   2.7928460   0.0000000   2.7928460   0.0000000   2.7928460   0.0000000   2.7928460   0.0000000
 AtZNuc=  91.0000000   8.0000000   1.0000000   8.0000000   1.0000000   8.0000000   1.0000000   8.0000000   1.0000000   8.0000000

  Atom        11          12          13          14
 IAtWgt=          16          32          16          16
 AtmWgt=  15.9949146  31.9720718  15.9949146  15.9949146
 NucSpn=           0           0           0           0
 AtZEff=  -0.0000000  -0.0000000  -0.0000000  -0.0000000
 NQMom=    0.0000000   0.0000000   0.0000000   0.0000000
 NMagM=    0.0000000   0.0000000   0.0000000   0.0000000
 AtZNuc=   8.0000000  16.0000000   8.0000000   8.0000000
 Leave Link  101 at Tue Jul  4 11:51:38 2023, MaxMem=  2147483648 cpu:               1.3 elap:               0.2
 (Enter /home/pcmt/gaussian/g16.C.01/g16/l202.exe)
                          Input orientation:                          
 ---------------------------------------------------------------------
 Center     Atomic      Atomic             Coordinates (Angstroms)
 Number     Number       Type             X           Y           Z
 ---------------------------------------------------------------------
      1         91           0        0.419895   -0.147538   -0.219817
      2          8           0        1.025367    1.362746   -1.567856
      3          1           0        1.453419    2.227012   -1.531447
      4          8           0       -1.086745    1.125299    0.607559
      5          1           0       -1.358554    2.020570    0.372755
      6          8           0       -0.419643   -1.225780   -1.858196
      7          1           0       -0.854806   -2.082876   -1.935236
      8          8           0       -0.165280   -1.653414    1.142988
      9          1           0        0.028021   -2.583758    1.312173
     10          8           0        2.325022    0.329468    1.137875
     11          8           0        2.512565   -1.297790   -0.549991
     12         16           0        3.361552   -0.636438    0.542025
     13          8           0        4.467890    0.105317   -0.046838
     14          8           0        3.773252   -1.617240    1.536800
 ---------------------------------------------------------------------
                    Distance matrix (angstroms):
                    1          2          3          4          5
     1  Pa   0.000000
     2  O    2.112999   0.000000
     3  H    2.902935   0.965147   0.000000
     4  O    2.138838   3.041353   3.498792   0.000000
     5  H    2.866132   3.143530   3.402321   0.964636   0.000000
     6  O    2.133476   2.978728   3.941687   3.471678   4.049380
     7  H    2.883238   3.942376   4.905719   4.100242   4.734854
     8  O    2.113606   4.226528   4.983021   2.976076   3.938949
     9  H    2.904432   4.986398   5.767273   3.936532   4.899482
    10  O    2.387545   3.174547   3.389048   3.543266   4.124799
    11  O    2.410677   3.213450   3.809105   4.490692   5.181557
    12  S    3.077787   3.729088   4.017413   4.784910   5.419202
    13  O    4.059571   3.968071   3.974002   5.685294   6.147496
    14  O    4.060878   5.105887   5.438202   5.657259   6.397194
                    6          7          8          9         10
     6  O    0.000000
     7  H    0.964321   0.000000
     8  O    3.042151   3.183606   0.000000
     9  H    3.477894   3.402341   0.965157   0.000000
    10  O    4.350681   5.037333   3.183308   3.713957   0.000000
    11  O    3.211609   3.724843   3.188025   3.360704   2.352028
    12  S    4.517281   5.099675   3.719401   3.936701   1.537012
    13  O    5.379667   6.056842   5.096576   5.365675   2.458795
    14  O    5.409216   5.804376   3.958337   3.874452   2.458898
                   11         12         13         14
    11  O    0.000000
    12  S    1.533188   0.000000
    13  O    2.458692   1.456346   0.000000
    14  O    2.458877   1.456381   2.440826   0.000000
 Stoichiometry    H4O8PaS(1-)
 Framework group  C1[X(H4O8PaS)]
 Deg. of freedom    36
 Full point group                 C1      NOp   1
 Largest Abelian subgroup         C1      NOp   1
 Largest concise Abelian subgroup C1      NOp   1
                         Standard orientation:                         
 ---------------------------------------------------------------------
 Center     Atomic      Atomic             Coordinates (Angstroms)
 Number     Number       Type             X           Y           Z
 ---------------------------------------------------------------------
      1         91           0        0.700014    0.000460   -0.010962
      2          8           0        0.699527    2.091103    0.295591
      3          1           0        0.422858    2.885307   -0.177910
      4          8           0        2.144366    0.180269   -1.578172
      5          1           0        2.608091    0.950929   -1.926833
      6          8           0        1.728419   -0.236815    1.843169
      7          1           0        2.023037   -1.005835    2.344891
      8          8           0        0.678202   -2.088849   -0.329776
      9          1           0        0.299877   -2.874726    0.083499
     10          8           0       -1.375853    0.191537   -1.174849
     11          8           0       -1.406381   -0.181836    1.147153
     12         16           0       -2.377734    0.009116   -0.023604
     13          8           0       -3.168907    1.218251    0.158000
     14          8           0       -3.175799   -1.191582   -0.229673
 ---------------------------------------------------------------------
 Rotational constants (GHZ):           1.4100455           0.5188296           0.4900699
 Leave Link  202 at Tue Jul  4 11:51:38 2023, MaxMem=  2147483648 cpu:               0.1 elap:               0.1
 (Enter /home/pcmt/gaussian/g16.C.01/g16/l301.exe)
 General basis read from cards:  (5D, 7F)
 Centers:       1
 S 3 1.00
     Exponent=  1.2047376000D+04 Coefficients=  3.4500000000D-04
     Exponent=  1.8116841000D+03 Coefficients=  2.7420000000D-03
     Exponent=  3.4770104000D+02 Coefficients=  1.0053000000D-02
 S 1 1.00
     Exponent=  9.8678010000D+01 Coefficients=  1.0000000000D+00
 S 3 1.00
     Exponent=  5.7507376000D+01 Coefficients=  5.1528000000D-02
     Exponent=  3.3502601000D+01 Coefficients= -2.3692400000D-01
     Exponent=  1.9554451000D+01 Coefficients=  7.1904800000D-01
 S 1 1.00
     Exponent=  9.7164210000D+00 Coefficients=  1.0000000000D+00
 S 1 1.00
     Exponent=  2.6920960000D+00 Coefficients=  1.0000000000D+00
 S 1 1.00
     Exponent=  1.4538470000D+00 Coefficients=  1.0000000000D+00
 S 1 1.00
     Exponent=  5.7435200000D-01 Coefficients=  1.0000000000D+00
 S 1 1.00
     Exponent=  2.6346800000D-01 Coefficients=  1.0000000000D+00
 S 1 1.00
     Exponent=  5.6557000000D-02 Coefficients=  1.0000000000D+00
 S 1 1.00
     Exponent=  2.3169000000D-02 Coefficients=  1.0000000000D+00
 P 5 1.00
     Exponent=  2.9033676000D+03 Coefficients=  3.5000000000D-05
     Exponent=  6.4486356000D+02 Coefficients=  2.0500000000D-04
     Exponent=  2.2025896000D+02 Coefficients=  1.2510000000D-03
     Exponent=  8.0276401000D+01 Coefficients=  2.4570000000D-03
     Exponent=  2.4080211000D+01 Coefficients=  1.1190000000D-02
 P 1 1.00
     Exponent=  1.4077580000D+01 Coefficients=  1.0000000000D+00
 P 1 1.00
     Exponent=  8.2658460000D+00 Coefficients=  1.0000000000D+00
 P 1 1.00
     Exponent=  3.5948000000D+00 Coefficients=  1.0000000000D+00
 P 1 1.00
     Exponent=  1.7531110000D+00 Coefficients=  1.0000000000D+00
 P 1 1.00
     Exponent=  6.5776700000D-01 Coefficients=  1.0000000000D+00
 P 1 1.00
     Exponent=  2.8463900000D-01 Coefficients=  1.0000000000D+00
 P 1 1.00
     Exponent=  1.0054300000D-01 Coefficients=  1.0000000000D+00
 P 1 1.00
     Exponent=  3.0190000000D-02 Coefficients=  1.0000000000D+00
 D 6 1.00
     Exponent=  4.4814991000D+02 Coefficients=  2.6000000000D-05
     Exponent=  1.5446145000D+02 Coefficients=  2.2800000000D-04
     Exponent=  6.0925377000D+01 Coefficients=  9.0400000000D-04
     Exponent=  1.7032091000D+01 Coefficients=  2.5647000000D-02
     Exponent=  1.0018877000D+01 Coefficients= -1.0575100000D-01
     Exponent=  3.4091930000D+00 Coefficients=  4.4743200000D-01
 D 1 1.00
     Exponent=  1.6702130000D+00 Coefficients=  1.0000000000D+00
 D 1 1.00
     Exponent=  7.4109500000D-01 Coefficients=  1.0000000000D+00
 D 1 1.00
     Exponent=  2.6139300000D-01 Coefficients=  1.0000000000D+00
 D 1 1.00
     Exponent=  8.2811000000D-02 Coefficients=  1.0000000000D+00
 F 5 1.00
     Exponent=  8.7991327000D+01 Coefficients=  2.2600000000D-04
     Exponent=  2.8340195000D+01 Coefficients=  2.3230000000D-03
     Exponent=  1.2440994000D+01 Coefficients=  4.5850000000D-03
     Exponent=  3.9572960000D+00 Coefficients=  1.5696100000D-01
     Exponent=  1.8759440000D+00 Coefficients=  3.4497700000D-01
 F 1 1.00
     Exponent=  8.2758900000D-01 Coefficients=  1.0000000000D+00
 F 1 1.00
     Exponent=  3.3274800000D-01 Coefficients=  1.0000000000D+00
 F 1 1.00
     Exponent=  1.1468500000D-01 Coefficients=  1.0000000000D+00
 G 1 1.00
     Exponent=  3.5000000000D-01 Coefficients=  1.0000000000D+00
 ****
 Centers:       2      4      6      8     10     11     13     14
 Def2TZVP
 ****
 Centers:       3      5      7      9
 Def2TZVP
 ****
 Centers:      12
 Def2TZVP
 ****
 ======================================================================================================
                                       Pseudopotential Parameters
 ======================================================================================================
  Center     Atomic      Valence      Angular      Power
  Number     Number     Electrons     Momentum     of R      Exponent        Coefficient   SO-Coeffient
 ======================================================================================================
    1         91           31
                                      H and up 
                                                     2        1.0000000        0.00000000    0.00000000
                                      S - H
                                                     2       15.2691737      475.47573283    0.00000000
                                      P - H
                                                     2        9.9577370      207.66485962    0.00000000
                                      D - H
                                                     2        8.9431413      156.67411988    0.00000000
                                      F - H
                                                     2        7.0104666       67.98223685    0.00000000
                                      G - H
                                                     2       12.2010560      -57.63059989    0.00000000
    2          8
                                   No pseudopotential on this center.
    3          1
                                   No pseudopotential on this center.
    4          8
                                   No pseudopotential on this center.
    5          1
                                   No pseudopotential on this center.
    6          8
                                   No pseudopotential on this center.
    7          1
                                   No pseudopotential on this center.
    8          8
                                   No pseudopotential on this center.
    9          1
                                   No pseudopotential on this center.
   10          8
                                   No pseudopotential on this center.
   11          8
                                   No pseudopotential on this center.
   12         16
                                   No pseudopotential on this center.
   13          8
                                   No pseudopotential on this center.
   14          8
                                   No pseudopotential on this center.
 ======================================================================================================
 Ernie: Thresh=  0.10000D-02 Tol=  0.10000D-05 Strict=F.
 AO basis set in the form of general basis input (Overlap normalization):
      1 0
 S   3 1.00       0.000000000000
      0.1204737600D+05  0.2857094961D-01
      0.1811684100D+04  0.2270769386D+00
      0.3477010400D+03  0.8325326273D+00
 S   3 1.00       0.000000000000
      0.5750737600D+02  0.9569327984D-01
      0.3350260100D+02 -0.4399944619D+00
      0.1955445100D+02  0.1335352847D+01
 S   1 1.00       0.000000000000
      0.9867801000D+02  0.1000000000D+01
 S   1 1.00       0.000000000000
      0.9716421000D+01  0.1000000000D+01
 S   1 1.00       0.000000000000
      0.2692096000D+01  0.1000000000D+01
 S   1 1.00       0.000000000000
      0.1453847000D+01  0.1000000000D+01
 S   1 1.00       0.000000000000
      0.5743520000D+00  0.1000000000D+01
 S   1 1.00       0.000000000000
      0.2634680000D+00  0.1000000000D+01
 S   1 1.00       0.000000000000
      0.5655700000D-01  0.1000000000D+01
 S   1 1.00       0.000000000000
      0.2316900000D-01  0.1000000000D+01
 P   5 1.00       0.000000000000
      0.2903367600D+04  0.2594222647D-02
      0.6448635600D+03  0.1519473264D-01
      0.2202589600D+03  0.9272492945D-01
      0.8027640100D+02  0.1821144298D+00
      0.2408021100D+02  0.8294100404D+00
 P   1 1.00       0.000000000000
      0.1407758000D+02  0.1000000000D+01
 P   1 1.00       0.000000000000
      0.8265846000D+01  0.1000000000D+01
 P   1 1.00       0.000000000000
      0.3594800000D+01  0.1000000000D+01
 P   1 1.00       0.000000000000
      0.1753111000D+01  0.1000000000D+01
 P   1 1.00       0.000000000000
      0.6577670000D+00  0.1000000000D+01
 P   1 1.00       0.000000000000
      0.2846390000D+00  0.1000000000D+01
 P   1 1.00       0.000000000000
      0.1005430000D+00  0.1000000000D+01
 P   1 1.00       0.000000000000
      0.3019000000D-01  0.1000000000D+01
 D   6 1.00       0.000000000000
      0.4481499100D+03  0.6556927566D-04
      0.1544614500D+03  0.5749921096D-03
      0.6092537700D+02  0.2279793277D-02
      0.1703209100D+02  0.6467904664D-01
      0.1001887700D+02 -0.2666929411D+00
      0.3409193000D+01  0.1128376621D+01
 D   1 1.00       0.000000000000
      0.1670213000D+01  0.1000000000D+01
 D   1 1.00       0.000000000000
      0.7410950000D+00  0.1000000000D+01
 D   1 1.00       0.000000000000
      0.2613930000D+00  0.1000000000D+01
 D   1 1.00       0.000000000000
      0.8281100000D-01  0.1000000000D+01
 F   5 1.00       0.000000000000
      0.8799132700D+02  0.4766318191D-03
      0.2834019500D+02  0.4899184583D-02
      0.1244099400D+02  0.9669720755D-02
      0.3957296000D+01  0.3310292343D+00
      0.1875944000D+01  0.7275531640D+00
 F   1 1.00       0.000000000000
      0.8275890000D+00  0.1000000000D+01
 F   1 1.00       0.000000000000
      0.3327480000D+00  0.1000000000D+01
 F   1 1.00       0.000000000000
      0.1146850000D+00  0.1000000000D+01
 G   1 1.00       0.000000000000
      0.3500000000D+00  0.1000000000D+01
 ****
      2 0
 S   6 1.00       0.000000000000
      0.2703238263D+05  0.5722733521D-03
      0.4052387139D+04  0.4435323349D-02
      0.9223272271D+03  0.2302010771D-01
      0.2612407099D+03  0.9282249067D-01
      0.8535464135D+02  0.2937850001D+00
      0.3103503524D+02  0.6740160450D+00
 S   2 1.00       0.000000000000
      0.1226086073D+02  0.6383993703D+00
      0.4998707601D+01  0.3953458713D+00
 S   1 1.00       0.000000000000
      0.1170310816D+01  0.1000000000D+01
 S   1 1.00       0.000000000000
      0.4647474099D+00  0.1000000000D+01
 S   1 1.00       0.000000000000
      0.1850453636D+00  0.1000000000D+01
 P   4 1.00       0.000000000000
      0.6327495480D+02  0.1201833222D-01
      0.1462704938D+02  0.8300542179D-01
      0.4450122346D+01  0.3199174393D+00
      0.1527579965D+01  0.7071554292D+00
 P   1 1.00       0.000000000000
      0.5293511794D+00  0.1000000000D+01
 P   1 1.00       0.000000000000
      0.1747842127D+00  0.1000000000D+01
 D   1 1.00       0.000000000000
      0.2314000000D+01  0.1000000000D+01
 D   1 1.00       0.000000000000
      0.6450000000D+00  0.1000000000D+01
 F   1 1.00       0.000000000000
      0.1428000000D+01  0.1000000000D+01
 ****
      3 0
 S   3 1.00       0.000000000000
      0.3406134100D+02  0.2543930721D-01
      0.5123574600D+01  0.1900859489D+00
      0.1164662600D+01  0.8524411301D+00
 S   1 1.00       0.000000000000
      0.3272304100D+00  0.1000000000D+01
 S   1 1.00       0.000000000000
      0.1030724100D+00  0.1000000000D+01
 P   1 1.00       0.000000000000
      0.8000000000D+00  0.1000000000D+01
 ****
      4 0
 S   6 1.00       0.000000000000
      0.2703238263D+05  0.5722733521D-03
      0.4052387139D+04  0.4435323349D-02
      0.9223272271D+03  0.2302010771D-01
      0.2612407099D+03  0.9282249067D-01
      0.8535464135D+02  0.2937850001D+00
      0.3103503524D+02  0.6740160450D+00
 S   2 1.00       0.000000000000
      0.1226086073D+02  0.6383993703D+00
      0.4998707601D+01  0.3953458713D+00
 S   1 1.00       0.000000000000
      0.1170310816D+01  0.1000000000D+01
 S   1 1.00       0.000000000000
      0.4647474099D+00  0.1000000000D+01
 S   1 1.00       0.000000000000
      0.1850453636D+00  0.1000000000D+01
 P   4 1.00       0.000000000000
      0.6327495480D+02  0.1201833222D-01
      0.1462704938D+02  0.8300542179D-01
      0.4450122346D+01  0.3199174393D+00
      0.1527579965D+01  0.7071554292D+00
 P   1 1.00       0.000000000000
      0.5293511794D+00  0.1000000000D+01
 P   1 1.00       0.000000000000
      0.1747842127D+00  0.1000000000D+01
 D   1 1.00       0.000000000000
      0.2314000000D+01  0.1000000000D+01
 D   1 1.00       0.000000000000
      0.6450000000D+00  0.1000000000D+01
 F   1 1.00       0.000000000000
      0.1428000000D+01  0.1000000000D+01
 ****
      5 0
 S   3 1.00       0.000000000000
      0.3406134100D+02  0.2543930721D-01
      0.5123574600D+01  0.1900859489D+00
      0.1164662600D+01  0.8524411301D+00
 S   1 1.00       0.000000000000
      0.3272304100D+00  0.1000000000D+01
 S   1 1.00       0.000000000000
      0.1030724100D+00  0.1000000000D+01
 P   1 1.00       0.000000000000
      0.8000000000D+00  0.1000000000D+01
 ****
      6 0
 S   6 1.00       0.000000000000
      0.2703238263D+05  0.5722733521D-03
      0.4052387139D+04  0.4435323349D-02
      0.9223272271D+03  0.2302010771D-01
      0.2612407099D+03  0.9282249067D-01
      0.8535464135D+02  0.2937850001D+00
      0.3103503524D+02  0.6740160450D+00
 S   2 1.00       0.000000000000
      0.1226086073D+02  0.6383993703D+00
      0.4998707601D+01  0.3953458713D+00
 S   1 1.00       0.000000000000
      0.1170310816D+01  0.1000000000D+01
 S   1 1.00       0.000000000000
      0.4647474099D+00  0.1000000000D+01
 S   1 1.00       0.000000000000
      0.1850453636D+00  0.1000000000D+01
 P   4 1.00       0.000000000000
      0.6327495480D+02  0.1201833222D-01
      0.1462704938D+02  0.8300542179D-01
      0.4450122346D+01  0.3199174393D+00
      0.1527579965D+01  0.7071554292D+00
 P   1 1.00       0.000000000000
      0.5293511794D+00  0.1000000000D+01
 P   1 1.00       0.000000000000
      0.1747842127D+00  0.1000000000D+01
 D   1 1.00       0.000000000000
      0.2314000000D+01  0.1000000000D+01
 D   1 1.00       0.000000000000
      0.6450000000D+00  0.1000000000D+01
 F   1 1.00       0.000000000000
      0.1428000000D+01  0.1000000000D+01
 ****
      7 0
 S   3 1.00       0.000000000000
      0.3406134100D+02  0.2543930721D-01
      0.5123574600D+01  0.1900859489D+00
      0.1164662600D+01  0.8524411301D+00
 S   1 1.00       0.000000000000
      0.3272304100D+00  0.1000000000D+01
 S   1 1.00       0.000000000000
      0.1030724100D+00  0.1000000000D+01
 P   1 1.00       0.000000000000
      0.8000000000D+00  0.1000000000D+01
 ****
      8 0
 S   6 1.00       0.000000000000
      0.2703238263D+05  0.5722733521D-03
      0.4052387139D+04  0.4435323349D-02
      0.9223272271D+03  0.2302010771D-01
      0.2612407099D+03  0.9282249067D-01
      0.8535464135D+02  0.2937850001D+00
      0.3103503524D+02  0.6740160450D+00
 S   2 1.00       0.000000000000
      0.1226086073D+02  0.6383993703D+00
      0.4998707601D+01  0.3953458713D+00
 S   1 1.00       0.000000000000
      0.1170310816D+01  0.1000000000D+01
 S   1 1.00       0.000000000000
      0.4647474099D+00  0.1000000000D+01
 S   1 1.00       0.000000000000
      0.1850453636D+00  0.1000000000D+01
 P   4 1.00       0.000000000000
      0.6327495480D+02  0.1201833222D-01
      0.1462704938D+02  0.8300542179D-01
      0.4450122346D+01  0.3199174393D+00
      0.1527579965D+01  0.7071554292D+00
 P   1 1.00       0.000000000000
      0.5293511794D+00  0.1000000000D+01
 P   1 1.00       0.000000000000
      0.1747842127D+00  0.1000000000D+01
 D   1 1.00       0.000000000000
      0.2314000000D+01  0.1000000000D+01
 D   1 1.00       0.000000000000
      0.6450000000D+00  0.1000000000D+01
 F   1 1.00       0.000000000000
      0.1428000000D+01  0.1000000000D+01
 ****
      9 0
 S   3 1.00       0.000000000000
      0.3406134100D+02  0.2543930721D-01
      0.5123574600D+01  0.1900859489D+00
      0.1164662600D+01  0.8524411301D+00
 S   1 1.00       0.000000000000
      0.3272304100D+00  0.1000000000D+01
 S   1 1.00       0.000000000000
      0.1030724100D+00  0.1000000000D+01
 P   1 1.00       0.000000000000
      0.8000000000D+00  0.1000000000D+01
 ****
     10 0
 S   6 1.00       0.000000000000
      0.2703238263D+05  0.5722733521D-03
      0.4052387139D+04  0.4435323349D-02
      0.9223272271D+03  0.2302010771D-01
      0.2612407099D+03  0.9282249067D-01
      0.8535464135D+02  0.2937850001D+00
      0.3103503524D+02  0.6740160450D+00
 S   2 1.00       0.000000000000
      0.1226086073D+02  0.6383993703D+00
      0.4998707601D+01  0.3953458713D+00
 S   1 1.00       0.000000000000
      0.1170310816D+01  0.1000000000D+01
 S   1 1.00       0.000000000000
      0.4647474099D+00  0.1000000000D+01
 S   1 1.00       0.000000000000
      0.1850453636D+00  0.1000000000D+01
 P   4 1.00       0.000000000000
      0.6327495480D+02  0.1201833222D-01
      0.1462704938D+02  0.8300542179D-01
      0.4450122346D+01  0.3199174393D+00
      0.1527579965D+01  0.7071554292D+00
 P   1 1.00       0.000000000000
      0.5293511794D+00  0.1000000000D+01
 P   1 1.00       0.000000000000
      0.1747842127D+00  0.1000000000D+01
 D   1 1.00       0.000000000000
      0.2314000000D+01  0.1000000000D+01
 D   1 1.00       0.000000000000
      0.6450000000D+00  0.1000000000D+01
 F   1 1.00       0.000000000000
      0.1428000000D+01  0.1000000000D+01
 ****
     11 0
 S   6 1.00       0.000000000000
      0.2703238263D+05  0.5722733521D-03
      0.4052387139D+04  0.4435323349D-02
      0.9223272271D+03  0.2302010771D-01
      0.2612407099D+03  0.9282249067D-01
      0.8535464135D+02  0.2937850001D+00
      0.3103503524D+02  0.6740160450D+00
 S   2 1.00       0.000000000000
      0.1226086073D+02  0.6383993703D+00
      0.4998707601D+01  0.3953458713D+00
 S   1 1.00       0.000000000000
      0.1170310816D+01  0.1000000000D+01
 S   1 1.00       0.000000000000
      0.4647474099D+00  0.1000000000D+01
 S   1 1.00       0.000000000000
      0.1850453636D+00  0.1000000000D+01
 P   4 1.00       0.000000000000
      0.6327495480D+02  0.1201833222D-01
      0.1462704938D+02  0.8300542179D-01
      0.4450122346D+01  0.3199174393D+00
      0.1527579965D+01  0.7071554292D+00
 P   1 1.00       0.000000000000
      0.5293511794D+00  0.1000000000D+01
 P   1 1.00       0.000000000000
      0.1747842127D+00  0.1000000000D+01
 D   1 1.00       0.000000000000
      0.2314000000D+01  0.1000000000D+01
 D   1 1.00       0.000000000000
      0.6450000000D+00  0.1000000000D+01
 F   1 1.00       0.000000000000
      0.1428000000D+01  0.1000000000D+01
 ****
     12 0
 S   7 1.00       0.000000000000
      0.6070092810D+05  0.5238007490D-03
      0.9102610685D+04  0.4050632678D-02
      0.2071416601D+04  0.2082700417D-01
      0.5860247682D+03  0.8149685034D-01
      0.1905539502D+03  0.2374911384D+00
      0.6763038426D+02  0.4472617151D+00
      0.2512730691D+02  0.3489191844D+00
 S   3 1.00       0.000000000000
      0.1125746301D+03  0.1004556989D+00
      0.3479555422D+02  0.4339117295D+00
      0.6511555622D+01 -0.1208433059D+01
 S   2 1.00       0.000000000000
      0.3239903226D+01  0.6749812942D+00
      0.1547716088D+01  0.3470879576D+00
 S   1 1.00       0.000000000000
      0.4054103011D+00  0.1000000000D+01
 S   1 1.00       0.000000000000
      0.1455065106D+00  0.1000000000D+01
 P   5 1.00       0.000000000000
      0.5643671603D+03  0.3488692363D-02
      0.1334262438D+03  0.2768512678D-01
      0.4246827119D+02  0.1265940018D+00
      0.1561652758D+02  0.3616592567D+00
      0.6109398847D+01  0.6122203444D+00
 P   1 1.00       0.000000000000
      0.2440416020D+01  0.1000000000D+01
 P   1 1.00       0.000000000000
      0.8388220130D+00  0.1000000000D+01
 P   1 1.00       0.000000000000
      0.3128874690D+00  0.1000000000D+01
 P   1 1.00       0.000000000000
      0.1077010900D+00  0.1000000000D+01
 D   2 1.00       0.000000000000
      0.3756000000D+01  0.1828519746D+00
      0.8120000000D+00  0.9142598730D+00
 D   1 1.00       0.000000000000
      0.2730000000D+00  0.1000000000D+01
 F   1 1.00       0.000000000000
      0.5570000000D+00  0.1000000000D+01
 ****
     13 0
 S   6 1.00       0.000000000000
      0.2703238263D+05  0.5722733521D-03
      0.4052387139D+04  0.4435323349D-02
      0.9223272271D+03  0.2302010771D-01
      0.2612407099D+03  0.9282249067D-01
      0.8535464135D+02  0.2937850001D+00
      0.3103503524D+02  0.6740160450D+00
 S   2 1.00       0.000000000000
      0.1226086073D+02  0.6383993703D+00
      0.4998707601D+01  0.3953458713D+00
 S   1 1.00       0.000000000000
      0.1170310816D+01  0.1000000000D+01
 S   1 1.00       0.000000000000
      0.4647474099D+00  0.1000000000D+01
 S   1 1.00       0.000000000000
      0.1850453636D+00  0.1000000000D+01
 P   4 1.00       0.000000000000
      0.6327495480D+02  0.1201833222D-01
      0.1462704938D+02  0.8300542179D-01
      0.4450122346D+01  0.3199174393D+00
      0.1527579965D+01  0.7071554292D+00
 P   1 1.00       0.000000000000
      0.5293511794D+00  0.1000000000D+01
 P   1 1.00       0.000000000000
      0.1747842127D+00  0.1000000000D+01
 D   1 1.00       0.000000000000
      0.2314000000D+01  0.1000000000D+01
 D   1 1.00       0.000000000000
      0.6450000000D+00  0.1000000000D+01
 F   1 1.00       0.000000000000
      0.1428000000D+01  0.1000000000D+01
 ****
     14 0
 S   6 1.00       0.000000000000
      0.2703238263D+05  0.5722733521D-03
      0.4052387139D+04  0.4435323349D-02
      0.9223272271D+03  0.2302010771D-01
      0.2612407099D+03  0.9282249067D-01
      0.8535464135D+02  0.2937850001D+00
      0.3103503524D+02  0.6740160450D+00
 S   2 1.00       0.000000000000
      0.1226086073D+02  0.6383993703D+00
      0.4998707601D+01  0.3953458713D+00
 S   1 1.00       0.000000000000
      0.1170310816D+01  0.1000000000D+01
 S   1 1.00       0.000000000000
      0.4647474099D+00  0.1000000000D+01
 S   1 1.00       0.000000000000
      0.1850453636D+00  0.1000000000D+01
 P   4 1.00       0.000000000000
      0.6327495480D+02  0.1201833222D-01
      0.1462704938D+02  0.8300542179D-01
      0.4450122346D+01  0.3199174393D+00
      0.1527579965D+01  0.7071554292D+00
 P   1 1.00       0.000000000000
      0.5293511794D+00  0.1000000000D+01
 P   1 1.00       0.000000000000
      0.1747842127D+00  0.1000000000D+01
 D   1 1.00       0.000000000000
      0.2314000000D+01  0.1000000000D+01
 D   1 1.00       0.000000000000
      0.6450000000D+00  0.1000000000D+01
 F   1 1.00       0.000000000000
      0.1428000000D+01  0.1000000000D+01
 ****

 AO basis set (Overlap normalization):
 Atom Pa1      Shell     1 S   3     bf    1 -     1          1.322835345295          0.000869098271         -0.020714851214
      0.1204737600D+05  0.2857094961D-01
      0.1811684100D+04  0.2270769386D+00
      0.3477010400D+03  0.8325326273D+00
 Atom Pa1      Shell     2 S   3     bf    2 -     2          1.322835345295          0.000869098271         -0.020714851214
      0.5750737600D+02  0.9569327984D-01
      0.3350260100D+02 -0.4399944619D+00
      0.1955445100D+02  0.1335352847D+01
 Atom Pa1      Shell     3 S   1     bf    3 -     3          1.322835345295          0.000869098271         -0.020714851214
      0.9867801000D+02  0.1000000000D+01
 Atom Pa1      Shell     4 S   1     bf    4 -     4          1.322835345295          0.000869098271         -0.020714851214
      0.9716421000D+01  0.1000000000D+01
 Atom Pa1      Shell     5 S   1     bf    5 -     5          1.322835345295          0.000869098271         -0.020714851214
      0.2692096000D+01  0.1000000000D+01
 Atom Pa1      Shell     6 S   1     bf    6 -     6          1.322835345295          0.000869098271         -0.020714851214
      0.1453847000D+01  0.1000000000D+01
 Atom Pa1      Shell     7 S   1     bf    7 -     7          1.322835345295          0.000869098271         -0.020714851214
      0.5743520000D+00  0.1000000000D+01
 Atom Pa1      Shell     8 S   1     bf    8 -     8          1.322835345295          0.000869098271         -0.020714851214
      0.2634680000D+00  0.1000000000D+01
 Atom Pa1      Shell     9 S   1     bf    9 -     9          1.322835345295          0.000869098271         -0.020714851214
      0.5655700000D-01  0.1000000000D+01
 Atom Pa1      Shell    10 S   1     bf   10 -    10          1.322835345295          0.000869098271         -0.020714851214
      0.2316900000D-01  0.1000000000D+01
 Atom Pa1      Shell    11 P   5     bf   11 -    13          1.322835345295          0.000869098271         -0.020714851214
      0.2903367600D+04  0.2594222647D-02
      0.6448635600D+03  0.1519473264D-01
      0.2202589600D+03  0.9272492945D-01
      0.8027640100D+02  0.1821144298D+00
      0.2408021100D+02  0.8294100404D+00
 Atom Pa1      Shell    12 P   1     bf   14 -    16          1.322835345295          0.000869098271         -0.020714851214
      0.1407758000D+02  0.1000000000D+01
 Atom Pa1      Shell    13 P   1     bf   17 -    19          1.322835345295          0.000869098271         -0.020714851214
      0.8265846000D+01  0.1000000000D+01
 Atom Pa1      Shell    14 P   1     bf   20 -    22          1.322835345295          0.000869098271         -0.020714851214
      0.3594800000D+01  0.1000000000D+01
 Atom Pa1      Shell    15 P   1     bf   23 -    25          1.322835345295          0.000869098271         -0.020714851214
      0.1753111000D+01  0.1000000000D+01
 Atom Pa1      Shell    16 P   1     bf   26 -    28          1.322835345295          0.000869098271         -0.020714851214
      0.6577670000D+00  0.1000000000D+01
 Atom Pa1      Shell    17 P   1     bf   29 -    31          1.322835345295          0.000869098271         -0.020714851214
      0.2846390000D+00  0.1000000000D+01
 Atom Pa1      Shell    18 P   1     bf   32 -    34          1.322835345295          0.000869098271         -0.020714851214
      0.1005430000D+00  0.1000000000D+01
 Atom Pa1      Shell    19 P   1     bf   35 -    37          1.322835345295          0.000869098271         -0.020714851214
      0.3019000000D-01  0.1000000000D+01
 Atom Pa1      Shell    20 D   6     bf   38 -    42          1.322835345295          0.000869098271         -0.020714851214
      0.4481499100D+03  0.6556927566D-04
      0.1544614500D+03  0.5749921096D-03
      0.6092537700D+02  0.2279793277D-02
      0.1703209100D+02  0.6467904664D-01
      0.1001887700D+02 -0.2666929411D+00
      0.3409193000D+01  0.1128376621D+01
 Atom Pa1      Shell    21 D   1     bf   43 -    47          1.322835345295          0.000869098271         -0.020714851214
      0.1670213000D+01  0.1000000000D+01
 Atom Pa1      Shell    22 D   1     bf   48 -    52          1.322835345295          0.000869098271         -0.020714851214
      0.7410950000D+00  0.1000000000D+01
 Atom Pa1      Shell    23 D   1     bf   53 -    57          1.322835345295          0.000869098271         -0.020714851214
      0.2613930000D+00  0.1000000000D+01
 Atom Pa1      Shell    24 D   1     bf   58 -    62          1.322835345295          0.000869098271         -0.020714851214
      0.8281100000D-01  0.1000000000D+01
 Atom Pa1      Shell    25 F   5     bf   63 -    69          1.322835345295          0.000869098271         -0.020714851214
      0.8799132700D+02  0.4766318191D-03
      0.2834019500D+02  0.4899184583D-02
      0.1244099400D+02  0.9669720755D-02
      0.3957296000D+01  0.3310292343D+00
      0.1875944000D+01  0.7275531640D+00
 Atom Pa1      Shell    26 F   1     bf   70 -    76          1.322835345295          0.000869098271         -0.020714851214
      0.8275890000D+00  0.1000000000D+01
 Atom Pa1      Shell    27 F   1     bf   77 -    83          1.322835345295          0.000869098271         -0.020714851214
      0.3327480000D+00  0.1000000000D+01
 Atom Pa1      Shell    28 F   1     bf   84 -    90          1.322835345295          0.000869098271         -0.020714851214
      0.1146850000D+00  0.1000000000D+01
 Atom Pa1      Shell    29 G   1     bf   91 -    99          1.322835345295          0.000869098271         -0.020714851214
      0.3500000000D+00  0.1000000000D+01
 Atom O2       Shell    30 S   6     bf  100 -   100          1.321914998710          3.951612260388          0.558585814380
      0.2703238263D+05  0.5722733521D-03
      0.4052387139D+04  0.4435323349D-02
      0.9223272271D+03  0.2302010771D-01
      0.2612407099D+03  0.9282249067D-01
      0.8535464135D+02  0.2937850001D+00
      0.3103503524D+02  0.6740160450D+00
 Atom O2       Shell    31 S   2     bf  101 -   101          1.321914998710          3.951612260388          0.558585814380
      0.1226086073D+02  0.6383993703D+00
      0.4998707601D+01  0.3953458713D+00
 Atom O2       Shell    32 S   1     bf  102 -   102          1.321914998710          3.951612260388          0.558585814380
      0.1170310816D+01  0.1000000000D+01
 Atom O2       Shell    33 S   1     bf  103 -   103          1.321914998710          3.951612260388          0.558585814380
      0.4647474099D+00  0.1000000000D+01
 Atom O2       Shell    34 S   1     bf  104 -   104          1.321914998710          3.951612260388          0.558585814380
      0.1850453636D+00  0.1000000000D+01
 Atom O2       Shell    35 P   4     bf  105 -   107          1.321914998710          3.951612260388          0.558585814380
      0.6327495480D+02  0.1201833222D-01
      0.1462704938D+02  0.8300542179D-01
      0.4450122346D+01  0.3199174393D+00
      0.1527579965D+01  0.7071554292D+00
 Atom O2       Shell    36 P   1     bf  108 -   110          1.321914998710          3.951612260388          0.558585814380
      0.5293511794D+00  0.1000000000D+01
 Atom O2       Shell    37 P   1     bf  111 -   113          1.321914998710          3.951612260388          0.558585814380
      0.1747842127D+00  0.1000000000D+01
 Atom O2       Shell    38 D   1     bf  114 -   118          1.321914998710          3.951612260388          0.558585814380
      0.2314000000D+01  0.1000000000D+01
 Atom O2       Shell    39 D   1     bf  119 -   123          1.321914998710          3.951612260388          0.558585814380
      0.6450000000D+00  0.1000000000D+01
 Atom O2       Shell    40 F   1     bf  124 -   130          1.321914998710          3.951612260388          0.558585814380
      0.1428000000D+01  0.1000000000D+01
 Atom H3       Shell    41 S   3     bf  131 -   131          0.799086419238          5.452440336413         -0.336202118005
      0.3406134100D+02  0.2543930721D-01
      0.5123574600D+01  0.1900859489D+00
      0.1164662600D+01  0.8524411301D+00
 Atom H3       Shell    42 S   1     bf  132 -   132          0.799086419238          5.452440336413         -0.336202118005
      0.3272304100D+00  0.1000000000D+01
 Atom H3       Shell    43 S   1     bf  133 -   133          0.799086419238          5.452440336413         -0.336202118005
      0.1030724100D+00  0.1000000000D+01
 Atom H3       Shell    44 P   1     bf  134 -   136          0.799086419238          5.452440336413         -0.336202118005
      0.8000000000D+00  0.1000000000D+01
 Atom O4       Shell    45 S   6     bf  137 -   137          4.052263811497          0.340659884209         -2.982312494658
      0.2703238263D+05  0.5722733521D-03
      0.4052387139D+04  0.4435323349D-02
      0.9223272271D+03  0.2302010771D-01
      0.2612407099D+03  0.9282249067D-01
      0.8535464135D+02  0.2937850001D+00
      0.3103503524D+02  0.6740160450D+00
 Atom O4       Shell    46 S   2     bf  138 -   138          4.052263811497          0.340659884209         -2.982312494658
      0.1226086073D+02  0.6383993703D+00
      0.4998707601D+01  0.3953458713D+00
 Atom O4       Shell    47 S   1     bf  139 -   139          4.052263811497          0.340659884209         -2.982312494658
      0.1170310816D+01  0.1000000000D+01
 Atom O4       Shell    48 S   1     bf  140 -   140          4.052263811497          0.340659884209         -2.982312494658
      0.4647474099D+00  0.1000000000D+01
 Atom O4       Shell    49 S   1     bf  141 -   141          4.052263811497          0.340659884209         -2.982312494658
      0.1850453636D+00  0.1000000000D+01
 Atom O4       Shell    50 P   4     bf  142 -   144          4.052263811497          0.340659884209         -2.982312494658
      0.6327495480D+02  0.1201833222D-01
      0.1462704938D+02  0.8300542179D-01
      0.4450122346D+01  0.3199174393D+00
      0.1527579965D+01  0.7071554292D+00
 Atom O4       Shell    51 P   1     bf  145 -   147          4.052263811497          0.340659884209         -2.982312494658
      0.5293511794D+00  0.1000000000D+01
 Atom O4       Shell    52 P   1     bf  148 -   150          4.052263811497          0.340659884209         -2.982312494658
      0.1747842127D+00  0.1000000000D+01
 Atom O4       Shell    53 D   1     bf  151 -   155          4.052263811497          0.340659884209         -2.982312494658
      0.2314000000D+01  0.1000000000D+01
 Atom O4       Shell    54 D   1     bf  156 -   160          4.052263811497          0.340659884209         -2.982312494658
      0.6450000000D+00  0.1000000000D+01
 Atom O4       Shell    55 F   1     bf  161 -   167          4.052263811497          0.340659884209         -2.982312494658
      0.1428000000D+01  0.1000000000D+01
 Atom H5       Shell    56 S   3     bf  168 -   168          4.928577572815          1.796995913757         -3.641187535667
      0.3406134100D+02  0.2543930721D-01
      0.5123574600D+01  0.1900859489D+00
      0.1164662600D+01  0.8524411301D+00
 Atom H5       Shell    57 S   1     bf  169 -   169          4.928577572815          1.796995913757         -3.641187535667
      0.3272304100D+00  0.1000000000D+01
 Atom H5       Shell    58 S   1     bf  170 -   170          4.928577572815          1.796995913757         -3.641187535667
      0.1030724100D+00  0.1000000000D+01
 Atom H5       Shell    59 P   1     bf  171 -   173          4.928577572815          1.796995913757         -3.641187535667
      0.8000000000D+00  0.1000000000D+01
 Atom O6       Shell    60 S   6     bf  174 -   174          3.266238948034         -0.447515006817          3.483085327960
      0.2703238263D+05  0.5722733521D-03
      0.4052387139D+04  0.4435323349D-02
      0.9223272271D+03  0.2302010771D-01
      0.2612407099D+03  0.9282249067D-01
      0.8535464135D+02  0.2937850001D+00
      0.3103503524D+02  0.6740160450D+00
 Atom O6       Shell    61 S   2     bf  175 -   175          3.266238948034         -0.447515006817          3.483085327960
      0.1226086073D+02  0.6383993703D+00
      0.4998707601D+01  0.3953458713D+00
 Atom O6       Shell    62 S   1     bf  176 -   176          3.266238948034         -0.447515006817          3.483085327960
      0.1170310816D+01  0.1000000000D+01
 Atom O6       Shell    63 S   1     bf  177 -   177          3.266238948034         -0.447515006817          3.483085327960
      0.4647474099D+00  0.1000000000D+01
 Atom O6       Shell    64 S   1     bf  178 -   178          3.266238948034         -0.447515006817          3.483085327960
      0.1850453636D+00  0.1000000000D+01
 Atom O6       Shell    65 P   4     bf  179 -   181          3.266238948034         -0.447515006817          3.483085327960
      0.6327495480D+02  0.1201833222D-01
      0.1462704938D+02  0.8300542179D-01
      0.4450122346D+01  0.3199174393D+00
      0.1527579965D+01  0.7071554292D+00
 Atom O6       Shell    66 P   1     bf  182 -   184          3.266238948034         -0.447515006817          3.483085327960
      0.5293511794D+00  0.1000000000D+01
 Atom O6       Shell    67 P   1     bf  185 -   187          3.266238948034         -0.447515006817          3.483085327960
      0.1747842127D+00  0.1000000000D+01
 Atom O6       Shell    68 D   1     bf  188 -   192          3.266238948034         -0.447515006817          3.483085327960
      0.2314000000D+01  0.1000000000D+01
 Atom O6       Shell    69 D   1     bf  193 -   197          3.266238948034         -0.447515006817          3.483085327960
      0.6450000000D+00  0.1000000000D+01
 Atom O6       Shell    70 F   1     bf  198 -   204          3.266238948034         -0.447515006817          3.483085327960
      0.1428000000D+01  0.1000000000D+01
 Atom H7       Shell    71 S   3     bf  205 -   205          3.822985146573         -1.900751747088          4.431202011724
      0.3406134100D+02  0.2543930721D-01
      0.5123574600D+01  0.1900859489D+00
      0.1164662600D+01  0.8524411301D+00
 Atom H7       Shell    72 S   1     bf  206 -   206          3.822985146573         -1.900751747088          4.431202011724
      0.3272304100D+00  0.1000000000D+01
 Atom H7       Shell    73 S   1     bf  207 -   207          3.822985146573         -1.900751747088          4.431202011724
      0.1030724100D+00  0.1000000000D+01
 Atom H7       Shell    74 P   1     bf  208 -   210          3.822985146573         -1.900751747088          4.431202011724
      0.8000000000D+00  0.1000000000D+01
 Atom O8       Shell    75 S   6     bf  211 -   211          1.281615130395         -3.947353203637         -0.623186853194
      0.2703238263D+05  0.5722733521D-03
      0.4052387139D+04  0.4435323349D-02
      0.9223272271D+03  0.2302010771D-01
      0.2612407099D+03  0.9282249067D-01
      0.8535464135D+02  0.2937850001D+00
      0.3103503524D+02  0.6740160450D+00
 Atom O8       Shell    76 S   2     bf  212 -   212          1.281615130395         -3.947353203637         -0.623186853194
      0.1226086073D+02  0.6383993703D+00
      0.4998707601D+01  0.3953458713D+00
 Atom O8       Shell    77 S   1     bf  213 -   213          1.281615130395         -3.947353203637         -0.623186853194
      0.1170310816D+01  0.1000000000D+01
 Atom O8       Shell    78 S   1     bf  214 -   214          1.281615130395         -3.947353203637         -0.623186853194
      0.4647474099D+00  0.1000000000D+01
 Atom O8       Shell    79 S   1     bf  215 -   215          1.281615130395         -3.947353203637         -0.623186853194
      0.1850453636D+00  0.1000000000D+01
 Atom O8       Shell    80 P   4     bf  216 -   218          1.281615130395         -3.947353203637         -0.623186853194
      0.6327495480D+02  0.1201833222D-01
      0.1462704938D+02  0.8300542179D-01
      0.4450122346D+01  0.3199174393D+00
      0.1527579965D+01  0.7071554292D+00
 Atom O8       Shell    81 P   1     bf  219 -   221          1.281615130395         -3.947353203637         -0.623186853194
      0.5293511794D+00  0.1000000000D+01
 Atom O8       Shell    82 P   1     bf  222 -   224          1.281615130395         -3.947353203637         -0.623186853194
      0.1747842127D+00  0.1000000000D+01
 Atom O8       Shell    83 D   1     bf  225 -   229          1.281615130395         -3.947353203637         -0.623186853194
      0.2314000000D+01  0.1000000000D+01
 Atom O8       Shell    84 D   1     bf  230 -   234          1.281615130395         -3.947353203637         -0.623186853194
      0.6450000000D+00  0.1000000000D+01
 Atom O8       Shell    85 F   1     bf  235 -   241          1.281615130395         -3.947353203637         -0.623186853194
      0.1428000000D+01  0.1000000000D+01
 Atom H9       Shell    86 S   3     bf  242 -   242          0.566685405274         -5.432444533115          0.157790752491
      0.3406134100D+02  0.2543930721D-01
      0.5123574600D+01  0.1900859489D+00
      0.1164662600D+01  0.8524411301D+00
 Atom H9       Shell    87 S   1     bf  243 -   243          0.566685405274         -5.432444533115          0.157790752491
      0.3272304100D+00  0.1000000000D+01
 Atom H9       Shell    88 S   1     bf  244 -   244          0.566685405274         -5.432444533115          0.157790752491
      0.1030724100D+00  0.1000000000D+01
 Atom H9       Shell    89 P   1     bf  245 -   247          0.566685405274         -5.432444533115          0.157790752491
      0.8000000000D+00  0.1000000000D+01
 Atom O10      Shell    90 S   6     bf  248 -   248         -2.599985764860          0.361951911464         -2.220142786029
      0.2703238263D+05  0.5722733521D-03
      0.4052387139D+04  0.4435323349D-02
      0.9223272271D+03  0.2302010771D-01
      0.2612407099D+03  0.9282249067D-01
      0.8535464135D+02  0.2937850001D+00
      0.3103503524D+02  0.6740160450D+00
 Atom O10      Shell    91 S   2     bf  249 -   249         -2.599985764860          0.361951911464         -2.220142786029
      0.1226086073D+02  0.6383993703D+00
      0.4998707601D+01  0.3953458713D+00
 Atom O10      Shell    92 S   1     bf  250 -   250         -2.599985764860          0.361951911464         -2.220142786029
      0.1170310816D+01  0.1000000000D+01
 Atom O10      Shell    93 S   1     bf  251 -   251         -2.599985764860          0.361951911464         -2.220142786029
      0.4647474099D+00  0.1000000000D+01
 Atom O10      Shell    94 S   1     bf  252 -   252         -2.599985764860          0.361951911464         -2.220142786029
      0.1850453636D+00  0.1000000000D+01
 Atom O10      Shell    95 P   4     bf  253 -   255         -2.599985764860          0.361951911464         -2.220142786029
      0.6327495480D+02  0.1201833222D-01
      0.1462704938D+02  0.8300542179D-01
      0.4450122346D+01  0.3199174393D+00
      0.1527579965D+01  0.7071554292D+00
 Atom O10      Shell    96 P   1     bf  256 -   258         -2.599985764860          0.361951911464         -2.220142786029
      0.5293511794D+00  0.1000000000D+01
 Atom O10      Shell    97 P   1     bf  259 -   261         -2.599985764860          0.361951911464         -2.220142786029
      0.1747842127D+00  0.1000000000D+01
 Atom O10      Shell    98 D   1     bf  262 -   266         -2.599985764860          0.361951911464         -2.220142786029
      0.2314000000D+01  0.1000000000D+01
 Atom O10      Shell    99 D   1     bf  267 -   271         -2.599985764860          0.361951911464         -2.220142786029
      0.6450000000D+00  0.1000000000D+01
 Atom O10      Shell   100 F   1     bf  272 -   278         -2.599985764860          0.361951911464         -2.220142786029
      0.1428000000D+01  0.1000000000D+01
 Atom O11      Shell   101 S   6     bf  279 -   279         -2.657674484104         -0.343620834972          2.167805879250
      0.2703238263D+05  0.5722733521D-03
      0.4052387139D+04  0.4435323349D-02
      0.9223272271D+03  0.2302010771D-01
      0.2612407099D+03  0.9282249067D-01
      0.8535464135D+02  0.2937850001D+00
      0.3103503524D+02  0.6740160450D+00
 Atom O11      Shell   102 S   2     bf  280 -   280         -2.657674484104         -0.343620834972          2.167805879250
      0.1226086073D+02  0.6383993703D+00
      0.4998707601D+01  0.3953458713D+00
 Atom O11      Shell   103 S   1     bf  281 -   281         -2.657674484104         -0.343620834972          2.167805879250
      0.1170310816D+01  0.1000000000D+01
 Atom O11      Shell   104 S   1     bf  282 -   282         -2.657674484104         -0.343620834972          2.167805879250
      0.4647474099D+00  0.1000000000D+01
 Atom O11      Shell   105 S   1     bf  283 -   283         -2.657674484104         -0.343620834972          2.167805879250
      0.1850453636D+00  0.1000000000D+01
 Atom O11      Shell   106 P   4     bf  284 -   286         -2.657674484104         -0.343620834972          2.167805879250
      0.6327495480D+02  0.1201833222D-01
      0.1462704938D+02  0.8300542179D-01
      0.4450122346D+01  0.3199174393D+00
      0.1527579965D+01  0.7071554292D+00
 Atom O11      Shell   107 P   1     bf  287 -   289         -2.657674484104         -0.343620834972          2.167805879250
      0.5293511794D+00  0.1000000000D+01
 Atom O11      Shell   108 P   1     bf  290 -   292         -2.657674484104         -0.343620834972          2.167805879250
      0.1747842127D+00  0.1000000000D+01
 Atom O11      Shell   109 D   1     bf  293 -   297         -2.657674484104         -0.343620834972          2.167805879250
      0.2314000000D+01  0.1000000000D+01
 Atom O11      Shell   110 D   1     bf  298 -   302         -2.657674484104         -0.343620834972          2.167805879250
      0.6450000000D+00  0.1000000000D+01
 Atom O11      Shell   111 F   1     bf  303 -   309         -2.657674484104         -0.343620834972          2.167805879250
      0.1428000000D+01  0.1000000000D+01
 Atom S12      Shell   112 S   7     bf  310 -   310         -4.493266810035          0.017225923831         -0.044605859002
      0.6070092810D+05  0.5238007490D-03
      0.9102610685D+04  0.4050632678D-02
      0.2071416601D+04  0.2082700417D-01
      0.5860247682D+03  0.8149685034D-01
      0.1905539502D+03  0.2374911384D+00
      0.6763038426D+02  0.4472617151D+00
      0.2512730691D+02  0.3489191844D+00
 Atom S12      Shell   113 S   3     bf  311 -   311         -4.493266810035          0.017225923831         -0.044605859002
      0.1125746301D+03  0.1004556989D+00
      0.3479555422D+02  0.4339117295D+00
      0.6511555622D+01 -0.1208433059D+01
 Atom S12      Shell   114 S   2     bf  312 -   312         -4.493266810035          0.017225923831         -0.044605859002
      0.3239903226D+01  0.6749812942D+00
      0.1547716088D+01  0.3470879576D+00
 Atom S12      Shell   115 S   1     bf  313 -   313         -4.493266810035          0.017225923831         -0.044605859002
      0.4054103011D+00  0.1000000000D+01
 Atom S12      Shell   116 S   1     bf  314 -   314         -4.493266810035          0.017225923831         -0.044605859002
      0.1455065106D+00  0.1000000000D+01
 Atom S12      Shell   117 P   5     bf  315 -   317         -4.493266810035          0.017225923831         -0.044605859002
      0.5643671603D+03  0.3488692363D-02
      0.1334262438D+03  0.2768512678D-01
      0.4246827119D+02  0.1265940018D+00
      0.1561652758D+02  0.3616592567D+00
      0.6109398847D+01  0.6122203444D+00
 Atom S12      Shell   118 P   1     bf  318 -   320         -4.493266810035          0.017225923831         -0.044605859002
      0.2440416020D+01  0.1000000000D+01
 Atom S12      Shell   119 P   1     bf  321 -   323         -4.493266810035          0.017225923831         -0.044605859002
      0.8388220130D+00  0.1000000000D+01
 Atom S12      Shell   120 P   1     bf  324 -   326         -4.493266810035          0.017225923831         -0.044605859002
      0.3128874690D+00  0.1000000000D+01
 Atom S12      Shell   121 P   1     bf  327 -   329         -4.493266810035          0.017225923831         -0.044605859002
      0.1077010900D+00  0.1000000000D+01
 Atom S12      Shell   122 D   2     bf  330 -   334         -4.493266810035          0.017225923831         -0.044605859002
      0.3756000000D+01  0.1828519746D+00
      0.8120000000D+00  0.9142598730D+00
 Atom S12      Shell   123 D   1     bf  335 -   339         -4.493266810035          0.017225923831         -0.044605859002
      0.2730000000D+00  0.1000000000D+01
 Atom S12      Shell   124 F   1     bf  340 -   346         -4.493266810035          0.017225923831         -0.044605859002
      0.5570000000D+00  0.1000000000D+01
 Atom O13      Shell   125 S   6     bf  347 -   347         -5.988367215833          2.302160249393          0.298576799860
      0.2703238263D+05  0.5722733521D-03
      0.4052387139D+04  0.4435323349D-02
      0.9223272271D+03  0.2302010771D-01
      0.2612407099D+03  0.9282249067D-01
      0.8535464135D+02  0.2937850001D+00
      0.3103503524D+02  0.6740160450D+00
 Atom O13      Shell   126 S   2     bf  348 -   348         -5.988367215833          2.302160249393          0.298576799860
      0.1226086073D+02  0.6383993703D+00
      0.4998707601D+01  0.3953458713D+00
 Atom O13      Shell   127 S   1     bf  349 -   349         -5.988367215833          2.302160249393          0.298576799860
      0.1170310816D+01  0.1000000000D+01
 Atom O13      Shell   128 S   1     bf  350 -   350         -5.988367215833          2.302160249393          0.298576799860
      0.4647474099D+00  0.1000000000D+01
 Atom O13      Shell   129 S   1     bf  351 -   351         -5.988367215833          2.302160249393          0.298576799860
      0.1850453636D+00  0.1000000000D+01
 Atom O13      Shell   130 P   4     bf  352 -   354         -5.988367215833          2.302160249393          0.298576799860
      0.6327495480D+02  0.1201833222D-01
      0.1462704938D+02  0.8300542179D-01
      0.4450122346D+01  0.3199174393D+00
      0.1527579965D+01  0.7071554292D+00
 Atom O13      Shell   131 P   1     bf  355 -   357         -5.988367215833          2.302160249393          0.298576799860
      0.5293511794D+00  0.1000000000D+01
 Atom O13      Shell   132 P   1     bf  358 -   360         -5.988367215833          2.302160249393          0.298576799860
      0.1747842127D+00  0.1000000000D+01
 Atom O13      Shell   133 D   1     bf  361 -   365         -5.988367215833          2.302160249393          0.298576799860
      0.2314000000D+01  0.1000000000D+01
 Atom O13      Shell   134 D   1     bf  366 -   370         -5.988367215833          2.302160249393          0.298576799860
      0.6450000000D+00  0.1000000000D+01
 Atom O13      Shell   135 F   1     bf  371 -   377         -5.988367215833          2.302160249393          0.298576799860
      0.1428000000D+01  0.1000000000D+01
 Atom O14      Shell   136 S   6     bf  378 -   378         -6.001390674483         -2.251763096771         -0.434018925819
      0.2703238263D+05  0.5722733521D-03
      0.4052387139D+04  0.4435323349D-02
      0.9223272271D+03  0.2302010771D-01
      0.2612407099D+03  0.9282249067D-01
      0.8535464135D+02  0.2937850001D+00
      0.3103503524D+02  0.6740160450D+00
 Atom O14      Shell   137 S   2     bf  379 -   379         -6.001390674483         -2.251763096771         -0.434018925819
      0.1226086073D+02  0.6383993703D+00
      0.4998707601D+01  0.3953458713D+00
 Atom O14      Shell   138 S   1     bf  380 -   380         -6.001390674483         -2.251763096771         -0.434018925819
      0.1170310816D+01  0.1000000000D+01
 Atom O14      Shell   139 S   1     bf  381 -   381         -6.001390674483         -2.251763096771         -0.434018925819
      0.4647474099D+00  0.1000000000D+01
 Atom O14      Shell   140 S   1     bf  382 -   382         -6.001390674483         -2.251763096771         -0.434018925819
      0.1850453636D+00  0.1000000000D+01
 Atom O14      Shell   141 P   4     bf  383 -   385         -6.001390674483         -2.251763096771         -0.434018925819
      0.6327495480D+02  0.1201833222D-01
      0.1462704938D+02  0.8300542179D-01
      0.4450122346D+01  0.3199174393D+00
      0.1527579965D+01  0.7071554292D+00
 Atom O14      Shell   142 P   1     bf  386 -   388         -6.001390674483         -2.251763096771         -0.434018925819
      0.5293511794D+00  0.1000000000D+01
 Atom O14      Shell   143 P   1     bf  389 -   391         -6.001390674483         -2.251763096771         -0.434018925819
      0.1747842127D+00  0.1000000000D+01
 Atom O14      Shell   144 D   1     bf  392 -   396         -6.001390674483         -2.251763096771         -0.434018925819
      0.2314000000D+01  0.1000000000D+01
 Atom O14      Shell   145 D   1     bf  397 -   401         -6.001390674483         -2.251763096771         -0.434018925819
      0.6450000000D+00  0.1000000000D+01
 Atom O14      Shell   146 F   1     bf  402 -   408         -6.001390674483         -2.251763096771         -0.434018925819
      0.1428000000D+01  0.1000000000D+01
 Effective core potential in the form of general ECP input:
      1 0
 Pa1-ECP   5 60
 H component
  1
  2        1.0000000        0.00000000    0.00000000
 S-H projection
  1
  2       15.2691737      475.47573283    0.00000000
 P-H projection
  1
  2        9.9577370      207.66485962    0.00000000
 D-H projection
  1
  2        8.9431413      156.67411988    0.00000000
 F-H projection
  1
  2        7.0104666       67.98223685    0.00000000
 G-H projection
  1
  2       12.2010560      -57.63059989    0.00000000
 
 There are   476 symmetry adapted cartesian basis functions of A   symmetry.
 There are   408 symmetry adapted basis functions of A   symmetry.
   408 basis functions,   717 primitive gaussians,   476 cartesian basis functions
    58 alpha electrons       58 beta electrons
       nuclear repulsion energy      1108.8563914074 Hartrees.
 IExCor=  404 DFT=T Ex=B Corr=P86 ExCW=0 ScaHFX=  0.000000
 ScaDFX=  1.000000  1.000000  1.000000  1.000000 ScalE2=  1.000000  1.000000
 IRadAn=      5 IRanWt=     -1 IRanGd=            0 ICorTp=0 IEmpDi=  4
 NAtoms=   14 NActive=   14 NUniq=   14 SFac= 1.00D+00 NAtFMM=   60 NAOKFM=F Big=F
 Integral buffers will be    131072 words long.
 Raffenetti 2 integral format.
 Two-electron integral symmetry is turned on.
 Warning! Using old PCM defaults because the COSMOthermo output has been requested.
 These settings can be overridden by following keywords.
 ------------------------------------------------------------------------------
 Polarizable Continuum Model (PCM)
 =================================
 Model                : C-PCM.
 Atomic radii         : Klamt.
 XCosmo               : -1.000 (infinite dielectric limit)
 Polarization charges : Electronic and nuclear charges.
 Charge compensation  : Type 3 (Electronic density weighted correction).
 Solution method      : On-the-fly selection.
 Cavity type          : VdW (van der Waals Surface) (Alpha=1.000).
 Cavity algorithm     : GePol (No added spheres)
                        Default sphere list used, NSphG=   14.
                        Tesserae with average area of 0.200 Ang**2.
                        Smoothing algorithm: None.
                        Polarization charges: point-like.
                        Self-potential: constant (ISelfS= 1).
                        Self-field    : global E.n sum rule (ISelfD= 3).
 Solvent              : Water, Eps=  78.355300 Eps(inf)=   1.777849
 ------------------------------------------------------------------------------
 Spheres list:
 ISph  on   Nord     Re0    Alpha      Xe            Ye            Ze
    1  Pa      1    2.0000  1.170      0.700014      0.000460     -0.010962
    2   O      2    1.7200  1.000      0.699527      2.091103      0.295591
    3   H      3    1.3000  1.000      0.422858      2.885307     -0.177910
    4   O      4    1.7200  1.000      2.144366      0.180269     -1.578172
    5   H      5    1.3000  1.000      2.608091      0.950929     -1.926833
    6   O      6    1.7200  1.000      1.728419     -0.236815      1.843169
    7   H      7    1.3000  1.000      2.023037     -1.005835      2.344891
    8   O      8    1.7200  1.000      0.678202     -2.088849     -0.329776
    9   H      9    1.3000  1.000      0.299877     -2.874726      0.083499
   10   O     10    1.7200  1.000     -1.375853      0.191537     -1.174849
   11   O     11    1.7200  1.000     -1.406381     -0.181836      1.147153
   12   S     12    2.1600  1.000     -2.377734      0.009116     -0.023604
   13   O     13    1.7200  1.000     -3.168907      1.218251      0.158000
   14   O     14    1.7200  1.000     -3.175799     -1.191582     -0.229673
 ------------------------------------------------------------------------------
 GePol: Number of generator spheres                  =      14
 GePol: Total number of spheres                      =      14
 GePol: Number of exposed spheres                    =      14 (100.00%)
 GePol: Number of tesserae                           =    1304
 GePol: Average area of tesserae                     =       0.15 Ang**2
 GePol: Minimum area of tessera                      =   0.10D-02 Ang**2
 GePol: Maximum area of tessera                      =    0.35817 Ang**2
 GePol: Number of small tesserae                     =      10
 GePol: Fraction of small tesserae (<1% of avg)      =       0.77%
 GePol: Total count of vertices                      =    4352
 GePol: Maximum number of vertices in a tessera      =       6
 GePol: Cavity surface area                          =    197.099 Ang**2
 GePol: Cavity volume                                =    170.859 Ang**3
 DisRep: Neglecting contributions from atom    1 of solute.
 Leave Link  301 at Tue Jul  4 11:51:38 2023, MaxMem=  2147483648 cpu:               1.3 elap:               0.2
 (Enter /home/pcmt/gaussian/g16.C.01/g16/l302.exe)
 NPDir=0 NMtPBC=     1 NCelOv=     1 NCel=       1 NClECP=     1 NCelD=      1
         NCelK=      1 NCelE2=     1 NClLst=     1 CellRange=     0.0.
 One-electron integrals computed using PRISM.
 One-electron integral symmetry used in STVInt
   1 Symmetry operations used in ECPInt.
 ECPInt:  NShTT=   10731 NPrTT=   33418 LenC2=    9890 LenP2D=   22440.
 LDataN:  DoStor=T MaxTD1= 9 Len=  602
 NBasis=   408 RedAO= T EigKep=  5.57D-04  NBF=   408
 NBsUse=   408 1.00D-06 EigRej= -1.00D+00 NBFU=   408
 Precomputing XC quadrature grid using
 IXCGrd= 4 IRadAn=           5 IRanWt=          -1 IRanGd=           0 AccXCQ= 0.00D+00.
 Defaulting to unpruned grid for atomic number  91.
 Generated NRdTot=       0 NPtTot=           0 NUsed=           0 NTot=          32
 NSgBfM=   468   468   468   468   468 MxSgAt=    14 MxSgA2=    14.
 Leave Link  302 at Tue Jul  4 11:51:40 2023, MaxMem=  2147483648 cpu:               7.8 elap:               1.1
 (Enter /home/pcmt/gaussian/g16.C.01/g16/l303.exe)
 DipDrv:  MaxL=1.
 Leave Link  303 at Tue Jul  4 11:51:40 2023, MaxMem=  2147483648 cpu:               0.6 elap:               0.1
 (Enter /home/pcmt/gaussian/g16.C.01/g16/l401.exe)
 ExpMin= 2.32D-02 ExpMax= 6.07D+04 ExpMxC= 1.20D+04 IAcc=3 IRadAn=         5 AccDes= 0.00D+00
 Harris functional with IExCor=  404 and IRadAn=       5 diagonalized for initial guess.
 HarFok:  IExCor=  404 AccDes= 0.00D+00 IRadAn=         5 IDoV= 1 UseB2=F ITyADJ=14
 ICtDFT=  3500011 ScaDFX=  1.000000  1.000000  1.000000  1.000000
 Defaulting to unpruned grid for atomic number  91.
 FoFCou: FMM=F IPFlag=           0 FMFlag=      100000 FMFlg1=           0
         NFxFlg=           0 DoJE=T BraDBF=F KetDBF=T FulRan=T
         wScrn=  0.000000 ICntrl=       500 IOpCl=  0 I1Cent=   200000004 NGrid=           0
         NMat0=    1 NMatS0=      1 NMatT0=    0 NMatD0=    1 NMtDS0=    0 NMtDT0=    0
 Petite list used in FoFCou.
 Harris En= -1446.41805566564    
 JPrj=0 DoOrth=F DoCkMO=F.
 Leave Link  401 at Tue Jul  4 11:51:43 2023, MaxMem=  2147483648 cpu:              24.5 elap:               3.1
 (Enter /home/pcmt/gaussian/g16.C.01/g16/l502.exe)
 Integral symmetry usage will be decided dynamically.
 Closed shell SCF:
 Using DIIS extrapolation, IDIIS=  1040.
 NGot=  2147483648 LenX=  2147022300 LenY=  2146795248
 Requested convergence on RMS density matrix=1.00D-08 within 100 cycles.
 Requested convergence on MAX density matrix=1.00D-06.
 Requested convergence on             energy=1.00D-06.
 No special actions if energy rises.
 Fock matrices will be formed incrementally for  20 cycles.

 Cycle   1  Pass 1  IDiag  1:
 FoFJK:  IHMeth= 1 ICntrl=     500 DoSepK=F KAlg= 0 I1Cent=           0 FoldK=F
 IRaf= 880000000 NMat=       1 IRICut=       1 DoRegI=T DoRafI=F ISym2E= 0 IDoP0=0 IntGTp=1.
 FoFCou: FMM=F IPFlag=           0 FMFlag=      100000 FMFlg1=           0
         NFxFlg=           0 DoJE=T BraDBF=F KetDBF=F FulRan=T
         wScrn=  0.000000 ICntrl=       500 IOpCl=  0 I1Cent=           0 NGrid=           0
         NMat0=    1 NMatS0=      1 NMatT0=    0 NMatD0=    1 NMtDS0=    0 NMtDT0=    0
 Symmetry not used in FoFCou.
 Defaulting to unpruned grid for atomic number  91.
 Defaulting to unpruned grid for atomic number  91.
 Defaulting to unpruned grid for atomic number  91.
 Defaulting to unpruned grid for atomic number  91.
 Defaulting to unpruned grid for atomic number  91.
 Defaulting to unpruned grid for atomic number  91.
 Defaulting to unpruned grid for atomic number  91.
 Defaulting to unpruned grid for atomic number  91.
 Inv3:  Mode=1 IEnd=     5101248.
 Iteration    1 A*A^-1 deviation from unit magnitude is 3.33D-15 for    768.
 Iteration    1 A*A^-1 deviation from orthogonality  is 2.22D-15 for   1304    900.
 Iteration    1 A^-1*A deviation from unit magnitude is 3.77D-15 for   1304.
 Iteration    1 A^-1*A deviation from orthogonality  is 2.22D-15 for   1304    900.
 E= -1443.61079725986    
 DIIS: error= 4.10D-02 at cycle   1 NSaved=   1.
 NSaved= 1 IEnMin= 1 EnMin= -1443.61079725986     IErMin= 1 ErrMin= 4.10D-02
 ErrMax= 4.10D-02  0.00D+00 EMaxC= 1.00D-01 BMatC= 1.89D+00 BMatP= 1.89D+00
 IDIUse=3 WtCom= 5.90D-01 WtEn= 4.10D-01
 Coeff-Com:  0.100D+01
 Coeff-En:   0.100D+01
 Coeff:      0.100D+01
 Gap=     0.065 Goal=   None    Shift=    0.000
 GapD=    0.065 DampG=0.500 DampE=0.250 DampFc=0.1250 IDamp=-1.
 Damping current iteration by 1.25D-01
 RMSDP=1.04D-02 MaxDP=1.36D+00              OVMax= 9.94D-01

 Cycle   2  Pass 1  IDiag  1:
 RMSU=  1.27D-03    CP:  1.01D+00
 E= -1443.69774032885     Delta-E=       -0.086943068989 Rises=F Damp=T
 DIIS: error= 1.94D-02 at cycle   2 NSaved=   2.
 NSaved= 2 IEnMin= 2 EnMin= -1443.69774032885     IErMin= 2 ErrMin= 1.94D-02
 ErrMax= 1.94D-02  0.00D+00 EMaxC= 1.00D-01 BMatC= 3.46D-01 BMatP= 1.89D+00
 IDIUse=3 WtCom= 8.06D-01 WtEn= 1.94D-01
 Coeff-Com: -0.104D+00 0.110D+01
 Coeff-En:   0.464D+00 0.536D+00
 Coeff:      0.630D-02 0.994D+00
 Gap=    -0.029 Goal=   None    Shift=    0.000
 RMSDP=3.99D-03 MaxDP=2.38D-01 DE=-8.69D-02 OVMax= 9.46D-01

 Cycle   3  Pass 1  IDiag  1:
 RMSU=  3.96D-03    CP:  1.01D+00  5.86D-01
 E= -1443.62337341875     Delta-E=        0.074366910091 Rises=F Damp=F
 DIIS: error= 4.67D-02 at cycle   3 NSaved=   3.
 NSaved= 3 IEnMin= 2 EnMin= -1443.69774032885     IErMin= 2 ErrMin= 1.94D-02
 ErrMax= 4.67D-02  0.00D+00 EMaxC= 1.00D-01 BMatC= 1.58D+00 BMatP= 3.46D-01
 IDIUse=2 WtCom= 0.00D+00 WtEn= 1.00D+00
 EnCoef did     2 forward-backward iterations
 Coeff-En:   0.189D+00 0.404D+00 0.406D+00
 Coeff:      0.189D+00 0.404D+00 0.406D+00
 Gap=     0.253 Goal=   None    Shift=    0.000
 RMSDP=7.00D-03 MaxDP=6.63D-01 DE= 7.44D-02 OVMax= 8.24D-01

 Cycle   4  Pass 1  IDiag  1:
 RMSU=  3.24D-03    CP:  1.06D+00  3.00D+00 -8.15D-02
 E= -1416.41370770045     Delta-E=       27.209665718308 Rises=F Damp=F
 DIIS: error= 3.02D-01 at cycle   4 NSaved=   4.
 NSaved= 4 IEnMin= 2 EnMin= -1443.69774032885     IErMin= 2 ErrMin= 1.94D-02
 ErrMax= 3.02D-01  0.00D+00 EMaxC= 1.00D-01 BMatC= 5.47D+01 BMatP= 3.46D-01
 IDIUse=2 WtCom= 0.00D+00 WtEn= 1.00D+00
 EnCoef did   100 forward-backward iterations
 Coeff-En:   0.472D+00 0.150D-01 0.418D+00 0.943D-01
 Coeff:      0.472D+00 0.150D-01 0.418D+00 0.943D-01
 Gap=     0.006 Goal=   None    Shift=    0.000
 RMSDP=3.85D-03 MaxDP=2.45D-01 DE= 2.72D+01 OVMax= 9.39D-01

 Cycle   5  Pass 1  IDiag  1:
 RMSU=  2.04D-03    CP:  1.06D+00  2.34D+00  1.21D-01  2.13D-01
 E= -1444.03241044566     Delta-E=      -27.618702745218 Rises=F Damp=F
 DIIS: error= 6.16D-02 at cycle   5 NSaved=   5.
 NSaved= 5 IEnMin= 5 EnMin= -1444.03241044566     IErMin= 2 ErrMin= 1.94D-02
 ErrMax= 6.16D-02  0.00D+00 EMaxC= 1.00D-01 BMatC= 1.43D+00 BMatP= 3.46D-01
 IDIUse=2 WtCom= 0.00D+00 WtEn= 1.00D+00
 EnCoef did     2 forward-backward iterations
 Coeff-En:   0.317D+00 0.000D+00 0.175D+00 0.000D+00 0.509D+00
 Coeff:      0.317D+00 0.000D+00 0.175D+00 0.000D+00 0.509D+00
 Gap=     0.200 Goal=   None    Shift=    0.000
 RMSDP=1.87D-03 MaxDP=1.72D-01 DE=-2.76D+01 OVMax= 2.93D-01

 Cycle   6  Pass 1  IDiag  1:
 RMSU=  9.65D-04    CP:  1.05D+00  1.49D+00  2.50D-01  5.04D-02  5.62D-01
 E= -1444.69170557718     Delta-E=       -0.659295131512 Rises=F Damp=F
 DIIS: error= 1.75D-02 at cycle   6 NSaved=   6.
 NSaved= 6 IEnMin= 6 EnMin= -1444.69170557718     IErMin= 6 ErrMin= 1.75D-02
 ErrMax= 1.75D-02  0.00D+00 EMaxC= 1.00D-01 BMatC= 2.45D-01 BMatP= 3.46D-01
 IDIUse=3 WtCom= 8.25D-01 WtEn= 1.75D-01
 Coeff-Com: -0.797D-01 0.436D+00 0.133D+00-0.194D-01 0.206D+00 0.325D+00
 Coeff-En:   0.000D+00 0.000D+00 0.000D+00 0.000D+00 0.276D+00 0.724D+00
 Coeff:     -0.658D-01 0.360D+00 0.109D+00-0.160D-01 0.218D+00 0.394D+00
 Gap=     0.212 Goal=   None    Shift=    0.000
 RMSDP=6.86D-04 MaxDP=5.41D-02 DE=-6.59D-01 OVMax= 6.34D-02

 Cycle   7  Pass 1  IDiag  1:
 RMSU=  4.60D-04    CP:  1.04D+00  1.37D+00  2.69D-01  6.67D-02  5.61D-01
                    CP:  5.08D-01
 E= -1444.77543749543     Delta-E=       -0.083731918251 Rises=F Damp=F
 DIIS: error= 1.39D-02 at cycle   7 NSaved=   7.
 NSaved= 7 IEnMin= 7 EnMin= -1444.77543749543     IErMin= 7 ErrMin= 1.39D-02
 ErrMax= 1.39D-02  0.00D+00 EMaxC= 1.00D-01 BMatC= 1.32D-01 BMatP= 2.45D-01
 IDIUse=3 WtCom= 8.61D-01 WtEn= 1.39D-01
 EnCoef did     5 forward-backward iterations
 Coeff-Com: -0.151D+00 0.215D+00-0.142D-01-0.635D-02 0.129D+00 0.290D+00
 Coeff-Com:  0.537D+00
 Coeff-En:   0.000D+00 0.000D+00 0.000D+00 0.000D+00 0.213D+00 0.224D+00
 Coeff-En:   0.563D+00
 Coeff:     -0.130D+00 0.185D+00-0.122D-01-0.547D-02 0.141D+00 0.281D+00
 Coeff:      0.541D+00
 Gap=     0.162 Goal=   None    Shift=    0.000
 RMSDP=6.48D-04 MaxDP=7.15D-02 DE=-8.37D-02 OVMax= 6.15D-02

 Cycle   8  Pass 1  IDiag  1:
 RMSU=  1.91D-04    CP:  1.05D+00  1.69D+00  2.05D-01  8.36D-02  6.99D-01
                    CP:  6.29D-01  5.78D-01
 E= -1444.87627688536     Delta-E=       -0.100839389937 Rises=F Damp=F
 DIIS: error= 4.85D-03 at cycle   8 NSaved=   8.
 NSaved= 8 IEnMin= 8 EnMin= -1444.87627688536     IErMin= 8 ErrMin= 4.85D-03
 ErrMax= 4.85D-03  0.00D+00 EMaxC= 1.00D-01 BMatC= 1.61D-02 BMatP= 1.32D-01
 IDIUse=3 WtCom= 9.51D-01 WtEn= 4.85D-02
 Coeff-Com: -0.713D-01 0.645D-01-0.328D-01-0.158D-02 0.769D-01 0.794D-01
 Coeff-Com:  0.193D+00 0.692D+00
 Coeff-En:   0.000D+00 0.000D+00 0.000D+00 0.000D+00 0.356D-01 0.000D+00
 Coeff-En:   0.000D+00 0.964D+00
 Coeff:     -0.679D-01 0.614D-01-0.312D-01-0.150D-02 0.749D-01 0.755D-01
 Coeff:      0.184D+00 0.705D+00
 Gap=     0.116 Goal=   None    Shift=    0.000
 RMSDP=2.42D-04 MaxDP=2.39D-02 DE=-1.01D-01 OVMax= 2.11D-02

 Cycle   9  Pass 1  IDiag  1:
 RMSU=  1.29D-04    CP:  1.06D+00  1.80D+00  1.95D-01  1.00D-01  7.58D-01
                    CP:  6.36D-01  6.32D-01  9.36D-01
 E= -1444.88896076671     Delta-E=       -0.012683881345 Rises=F Damp=F
 DIIS: error= 1.92D-03 at cycle   9 NSaved=   9.
 NSaved= 9 IEnMin= 9 EnMin= -1444.88896076671     IErMin= 9 ErrMin= 1.92D-03
 ErrMax= 1.92D-03  0.00D+00 EMaxC= 1.00D-01 BMatC= 1.37D-03 BMatP= 1.61D-02
 IDIUse=3 WtCom= 9.81D-01 WtEn= 1.92D-02
 Coeff-Com:  0.219D-02-0.124D-01-0.111D-01 0.625D-03 0.169D-01-0.405D-01
 Coeff-Com: -0.698D-01 0.450D+00 0.664D+00
 Coeff-En:   0.000D+00 0.000D+00 0.000D+00 0.000D+00 0.000D+00 0.000D+00
 Coeff-En:   0.000D+00 0.000D+00 0.100D+01
 Coeff:      0.215D-02-0.122D-01-0.109D-01 0.613D-03 0.166D-01-0.398D-01
 Coeff:     -0.685D-01 0.442D+00 0.670D+00
 Gap=     0.109 Goal=   None    Shift=    0.000
 RMSDP=1.71D-04 MaxDP=1.50D-02 DE=-1.27D-02 OVMax= 1.75D-02

 Cycle  10  Pass 1  IDiag  1:
 RMSU=  9.87D-05    CP:  1.06D+00  1.86D+00  1.90D-01  1.07D-01  7.85D-01
                    CP:  6.45D-01  6.49D-01  1.29D+00  1.50D+00
 E= -1444.88968353813     Delta-E=       -0.000722771418 Rises=F Damp=F
 DIIS: error= 1.91D-03 at cycle  10 NSaved=  10.
 NSaved=10 IEnMin=10 EnMin= -1444.88968353813     IErMin=10 ErrMin= 1.91D-03
 ErrMax= 1.91D-03  0.00D+00 EMaxC= 1.00D-01 BMatC= 2.53D-03 BMatP= 1.37D-03
 IDIUse=3 WtCom= 9.81D-01 WtEn= 1.92D-02
 Coeff-Com:  0.313D-01-0.288D-01 0.870D-02 0.937D-03-0.165D-01-0.677D-01
 Coeff-Com: -0.126D+00 0.168D+00 0.603D+00 0.428D+00
 Coeff-En:   0.000D+00 0.000D+00 0.000D+00 0.000D+00 0.000D+00 0.000D+00
 Coeff-En:   0.000D+00 0.000D+00 0.367D+00 0.633D+00
 Coeff:      0.307D-01-0.283D-01 0.853D-02 0.919D-03-0.162D-01-0.664D-01
 Coeff:     -0.124D+00 0.165D+00 0.598D+00 0.432D+00
 Gap=     0.108 Goal=   None    Shift=    0.000
 RMSDP=9.73D-05 MaxDP=8.87D-03 DE=-7.23D-04 OVMax= 1.42D-02

 Cycle  11  Pass 1  IDiag  1:
 RMSU=  4.77D-05    CP:  1.06D+00  1.88D+00  1.88D-01  1.08D-01  7.91D-01
                    CP:  6.48D-01  6.71D-01  1.52D+00  2.02D+00  1.13D+00
 E= -1444.88966068404     Delta-E=        0.000022854089 Rises=F Damp=F
[...]
  96         V                 0.323325          1.320023
  97         V                 0.339617          1.359173
  98         V                 0.348766          1.409105
  99         V                 0.354860          1.590067
 100         V                 0.395695          2.135098
 101         V                 0.400750          1.570265
 102         V                 0.417387          1.389910
 103         V                 0.418107          2.026416
 104         V                 0.420036          1.394750
 105         V                 0.427712          2.115697
 106         V                 0.435770          2.550143
 107         V                 0.441510          2.053024
 108         V                 0.451840          1.490363
 109         V                 0.457212          1.526960
 110         V                 0.468570          1.726800
 111         V                 0.494051          2.411369
 112         V                 0.494966          2.348761
 113         V                 0.504262          1.596896
 114         V                 0.506227          1.752993
 115         V                 0.523683          1.556065
 116         V                 0.526630          1.531237
 117         V                 0.545567          1.604778
 118         V                 0.551880          1.808194
 119         V                 0.567557          1.730435
 120         V                 0.580931          1.693804
 121         V                 0.584705          2.865421
 122         V                 0.591421          1.906501
 123         V                 0.602058          1.884061
 124         V                 0.621422          1.642784
 125         V                 0.625632          1.667161
 126         V                 0.631472          1.560216
 127         V                 0.674858          1.902743
 128         V                 0.678843          1.931591
 129         V                 0.700979          2.041956
 130         V                 0.727300          1.837996
 131         V                 0.731926          1.932891
 132         V                 0.760144          1.630462
 133         V                 0.762436          1.987741
 134         V                 0.776218          2.117167
 135         V                 0.781105          1.865772
 136         V                 0.831933          3.002330
 137         V                 0.842695          2.245291
 138         V                 0.850344          1.946901
 139         V                 0.885175          2.558761
 140         V                 0.894267          2.196494
 141         V                 0.904903          2.542988
 142         V                 0.926345          2.944450
 143         V                 0.953793          2.394191
 144         V                 0.989871          2.272792
 145         V                 1.023366          2.928389
 146         V                 1.052389          2.255540
 147         V                 1.071731          2.385352
 148         V                 1.084660          3.149128
 149         V                 1.089548          3.031951
 150         V                 1.115817          2.624401
 151         V                 1.125721          2.942703
 152         V                 1.131936          2.668876
 153         V                 1.153729          3.127603
 154         V                 1.161937          3.021974
 155         V                 1.166871          2.749800
 156         V                 1.175718          2.611347
 157         V                 1.191990          2.787942
 158         V                 1.236471          2.897909
 159         V                 1.239277          3.060330
 160         V                 1.250631          3.003972
 161         V                 1.265679          3.476199
 162         V                 1.281544          3.104483
 163         V                 1.287892          3.041209
 164         V                 1.299712          2.516794
 165         V                 1.316619          2.712547
 166         V                 1.332011          3.041088
 167         V                 1.339676          2.570224
 168         V                 1.362293          2.922317
 169         V                 1.375135          2.597700
 170         V                 1.395551          3.029502
 171         V                 1.400083          2.494595
 172         V                 1.438580          2.726234
 173         V                 1.457901          3.031897
 174         V                 1.469182          3.059829
 175         V                 1.483519          2.823091
 176         V                 1.485807          2.802578
 177         V                 1.529390          3.170794
 178         V                 1.538795          3.262655
 179         V                 1.550160          3.491756
 180         V                 1.558190          3.592039
 181         V                 1.566041          3.387069
 182         V                 1.572558          3.415024
 183         V                 1.579841          3.181254
 184         V                 1.591048          3.427543
 185         V                 1.610235          3.418550
 186         V                 1.628921          3.220110
 187         V                 1.645073          3.176912
 188         V                 1.660943          3.289203
 189         V                 1.679366          3.273745
 190         V                 1.684200          3.355380
 191         V                 1.714552          3.398627
 192         V                 1.736959          3.434329
 193         V                 1.741379          3.275922
 194         V                 1.753525          3.458932
 195         V                 1.782273          3.301924
 196         V                 1.796038          3.351639
 197         V                 1.821089          3.349895
 198         V                 1.825194          3.192961
 199         V                 1.861527          3.274071
 200         V                 1.872557          3.222972
 201         V                 1.900797          3.568547
 202         V                 1.909037          3.490526
 203         V                 1.915453          3.722983
 204         V                 1.962906          3.790378
 205         V                 1.994243          4.018985
 206         V                 2.005757          3.652789
 207         V                 2.019379          3.662136
 208         V                 2.039450          3.965422
 209         V                 2.052215          3.964602
 210         V                 2.071654          3.779309
 211         V                 2.077503          3.872090
 212         V                 2.105527          4.171429
 213         V                 2.128612          3.675613
 214         V                 2.154164          3.969004
 215         V                 2.176142          3.957835
 216         V                 2.182826          3.542682
 217         V                 2.190868          3.517299
 218         V                 2.226950          4.177453
 219         V                 2.246126          4.491004
 220         V                 2.248622          4.338556
 221         V                 2.269106          4.455621
 222         V                 2.279187          4.056972
 223         V                 2.284043          4.128074
 224         V                 2.301612          5.282978
 225         V                 2.335712          4.810953
 226         V                 2.338686          4.582348
 227         V                 2.352374          4.983786
 228         V                 2.392986          5.045571
 229         V                 2.406338          5.498363
 230         V                 2.407537          5.326460
 231         V                 2.457793          4.817266
 232         V                 2.464003          4.382915
 233         V                 2.475155          4.552938
 234         V                 2.483993          4.504763
 235         V                 2.514591          4.913613
 236         V                 2.519129          4.702894
 237         V                 2.615357          6.787102
 238         V                 2.624713          6.183044
 239         V                 2.635183          6.628216
 240         V                 2.644427          6.212864
 241         V                 2.679457          5.790413
 242         V                 2.695733          5.911136
 243         V                 2.743580          6.199177
 244         V                 2.758278          6.512364
 245         V                 2.769144          6.415922
 246         V                 2.774286          6.379375
 247         V                 2.785366          6.127729
 248         V                 2.805800          6.306580
 249         V                 2.868237          7.202527
 250         V                 2.890299          6.478333
 251         V                 2.924738          6.706885
 252         V                 2.950202          6.847341
 253         V                 2.962743          6.772177
 254         V                 2.981491          6.723763
 255         V                 2.990726          6.869356
 256         V                 3.039661          6.734079
 257         V                 3.062986          7.003209
 258         V                 3.083288          7.639784
 259         V                 3.129332          7.919893
 260         V                 3.181195          7.809115
 261         V                 3.361723          8.552224
 262         V                 3.408528          8.903060
 263         V                 3.456126          8.463840
 264         V                 3.485463          8.060739
 265         V                 3.689506          7.544670
 266         V                 3.695269          6.957326
 267         V                 3.706453          7.056603
 268         V                 3.713750          6.784436
 269         V                 3.733469          7.643833
 270         V                 3.757931          9.346153
 271         V                 3.815434          8.939590
 272         V                 3.857103          9.407268
 273         V                 3.918131          8.477171
 274         V                 3.971351          8.797343
 275         V                 3.980026          9.038099
 276         V                 4.026526          9.180015
 277         V                 4.132349          9.655076
 278         V                 4.182392          9.247815
 279         V                 4.242616          9.268384
 280         V                 4.965312          6.442510
 281         V                 4.965667          6.444201
 282         V                 4.982839          6.484510
 283         V                 5.004833          6.481428
 284         V                 5.013220          6.448515
 285         V                 5.014746          6.444248
 286         V                 5.018167          6.469342
 287         V                 5.022137          6.466796
 288         V                 5.023953          6.464309
 289         V                 5.025199          6.443577
 290         V                 5.026069          6.446456
 291         V                 5.027557          6.523858
 292         V                 5.030812          6.491280
 293         V                 5.030894          6.490855
 294         V                 5.037142          6.488180
 295         V                 5.044625          6.481695
 296         V                 5.051333          6.971248
 297         V                 5.053139          6.670858
 298         V                 5.054555          6.599322
 299         V                 5.066646          6.644459
 300         V                 5.072344          6.806449
 301         V                 5.084064          6.718679
 302         V                 5.090766          6.773397
 303         V                 5.096927          6.859185
 304         V                 5.104944          6.846009
 305         V                 5.121177          6.830909
 306         V                 5.146410          6.794285
 307         V                 5.149057          6.981460
 308         V                 5.164487          6.943386
 309         V                 5.185240          6.998546
 310         V                 5.185869          6.951937
 311         V                 5.197859          6.922232
 312         V                 5.202476          6.958780
 313         V                 5.221678          7.212405
 314         V                 5.243784          7.219107
 315         V                 5.265339          7.431911
 316         V                 5.279317          7.337590
 317         V                 5.317342          6.926902
 318         V                 5.335600          7.425661
 319         V                 5.343330          7.045590
 320         V                 5.354553          7.065971
 321         V                 5.358013          7.032301
 322         V                 5.378529          7.572522
 323         V                 5.391144          7.092278
 324         V                 5.469004          7.259958
 325         V                 5.491680          7.344418
 326         V                 5.505479          7.374309
 327         V                 5.554415          7.716503
 328         V                 5.566991          8.629198
 329         V                 5.579638          7.569076
 330         V                 5.594796          8.122666
 331         V                 5.682267          7.783414
 332         V                 5.998302         10.885411
 333         V                 6.095436          8.933482
 334         V                 6.104805          9.009669
 335         V                 6.133300          9.114293
 336         V                 6.138964          9.186159
 337         V                 6.147611          9.319933
 338         V                 6.174855          9.198948
 339         V                 6.182442          9.347125
 340         V                 6.184768          9.227822
 341         V                 6.197231          9.212761
 342         V                 6.203750          9.520755
 343         V                 6.228549          9.404000
 344         V                 6.241366          9.246927
 345         V                 6.247796          9.405078
 346         V                 6.252680          9.371416
 347         V                 6.271399          9.441598
 348         V                 6.320947          9.410815
 349         V                 6.350410          9.470445
 350         V                 6.362284          9.537353
 351         V                 6.406700          9.574556
 352         V                 6.424175          9.732625
 353         V                 6.444419          9.686068
 354         V                 6.456585          9.632936
 355         V                 6.468117          9.370736
 356         V                 6.476202          9.691428
 357         V                 6.483755          9.935452
 358         V                 6.517714          9.394437
 359         V                 6.557953          9.829123
 360         V                 6.578416          9.719811
 361         V                 6.613479          9.786764
 362         V                 6.637660          9.784071
 363         V                 6.640744          9.904784
 364         V                 6.680978         10.274163
 365         V                 6.690511         10.233355
 366         V                 6.730440          9.912552
 367         V                 6.781410         10.032423
 368         V                 6.788101         10.257100
 369         V                 6.794423         10.448839
 370         V                 6.803574         10.357475
 371         V                 6.861447         10.250820
 372         V                 6.875484         10.165260
 373         V                 6.937145          9.824669
 374         V                 6.965349         10.310099
 375         V                 6.972324          9.965163
 376         V                 7.094291         10.675647
 377         V                 7.393127         13.363263
 378         V                 7.449401         13.537498
 379         V                 7.457285         13.691464
 380         V                 8.195533         15.799264
 381         V                 8.216103         15.807856
 382         V                 8.402466         15.892944
 383         V                 8.672902         16.169817
 384         V                 8.961887         16.370691
 385         V                 9.170391         27.350725
 386         V                 9.372080         27.262238
 387         V                 9.405386         27.330159
 388         V                22.557214         38.951967
 389         V                29.365511         36.102523
 390         V                29.416871         36.139748
 391         V                29.444974         36.186314
 392         V                43.040264        108.342247
 393         V                43.220952        108.573618
 394         V                43.236837        108.622288
 395         V                43.287095        108.620368
 396         V                43.346641        108.726552
 397         V                43.393641        108.758028
 398         V                43.454043        108.795419
 399         V                43.463821        108.832842
 400         V                54.037758         39.942099
 401         V                70.239418         84.026984
 402         V                70.266141         84.076426
 403         V                70.288897         84.117695
 404         V               142.664098        242.531409
 405         V               142.716668        242.596652
 406         V               142.757751        242.649463
 407         V               202.553469        130.057621
 408         V               626.060931       1034.493769
 Total kinetic energy from orbitals= 1.162903052075D+03
 No NMR shielding tensors so no spin-rotation constants.
 Leave Link  601 at Tue Jul  4 11:55:33 2023, MaxMem=  2147483648 cpu:               4.3 elap:               0.6
 (Enter /home/pcmt/gaussian/g16.C.01/g16/l9999.exe)

 Test job not archived.
 1\1\GINC-U-0-0\SP\RBP86\Gen\H4O8Pa1S1(1-)\ROOT\04-Jul-2023\0\\#p BP86/
 GEN Pseudo=Read GFInput GFPrint IOP(6/7=3) Symm=(Loose) Int=(UltraFine
 ) Guess=(Harris) SCRF=(COSMORS) Scf=(NoVarAcc,MaxCycle=100,conver=8)\\
 pa_oh4_so4-bp86-cosmors-deftzvp-klamt.com SGP in PCM calculation\\-1,1
 \Pa,0,0.4198954992,-0.1475377136,-0.2198168187\O,0,1.0253673119,1.3627
 463659,-1.5678560887\H,0,1.453418682,2.2270123409,-1.5314466843\O,0,-1
 .0867448004,1.1252990819,0.6075590916\H,0,-1.3585538897,2.0205696213,0
 .3727546083\O,0,-0.4196430786,-1.2257796623,-1.8581964149\H,0,-0.85480
 62666,-2.0828756044,-1.9352357839\O,0,-0.1652797728,-1.6534140144,1.14
 29884243\H,0,0.0280206055,-2.5837578661,1.3121725169\O,0,2.3250222014,
 0.3294675319,1.1378752966\O,0,2.512565318,-1.2977902693,-0.5499914886\
 S,0,3.3615524562,-0.6364384593,0.5420245876\O,0,4.4678902104,0.1053167
 909,-0.0468376875\O,0,3.7732523347,-1.6172395244,1.5367999749\\Version
 =ES64L-G16RevC.01\State=1-A\HF=-1444.8914868\RMSD=6.962e-09\Dipole=-4.
 2583162,0.8005564,-1.0358546\Quadrupole=-18.2831969,19.8982303,-1.6150
 333,5.2202951,-3.8664517,1.2027753\PG=C01 [X(H4O8Pa1S1)]\\@


 "A LITTLE BIT GOES A LONG WAY"
 R.S. MULLIKEN AS QUOTED BY K. RUEDENBERG
 Job cpu time:       0 days  0 hours 30 minutes 56.5 seconds.
 Elapsed time:       0 days  0 hours  3 minutes 55.5 seconds.
 File lengths (MBytes):  RWF=    104 Int=      0 D2E=      0 Chk=     11 Scr=      1
 Normal termination of Gaussian 16 at Tue Jul  4 11:55:34 2023.
