 Entering Gaussian System, Link 0=/home/pcmt/gaussian/g16.C.01/g16/g16
 AtFile(1): /home/shaaban/basis.gaussian/Pa-def-TZVP
 AtFile(1): /home/shaaban/basis.gaussian/Pa-ECP60MWB
 Initial command:
 /home/pcmt/gaussian/g16.C.01/g16/l1.exe "/state/partition2/shaaban/972900.phlam-s-sakura/Gau-39959.inp" -scrdir="/state/partition2/shaaban/972900.phlam-s-sakura/"
 Entering Link 1 = /home/pcmt/gaussian/g16.C.01/g16/l1.exe PID=     39960.
  
 Copyright (c) 1988-2019, Gaussian, Inc.  All Rights Reserved.
  
 This is part of the Gaussian(R) 16 program.  It is based on
 the Gaussian(R) 09 system (copyright 2009, Gaussian, Inc.),
 the Gaussian(R) 03 system (copyright 2003, Gaussian, Inc.),
 the Gaussian(R) 98 system (copyright 1998, Gaussian, Inc.),
 the Gaussian(R) 94 system (copyright 1995, Gaussian, Inc.),
 the Gaussian 92(TM) system (copyright 1992, Gaussian, Inc.),
 the Gaussian 90(TM) system (copyright 1990, Gaussian, Inc.),
 the Gaussian 88(TM) system (copyright 1988, Gaussian, Inc.),
 the Gaussian 86(TM) system (copyright 1986, Carnegie Mellon
 University), and the Gaussian 82(TM) system (copyright 1983,
 Carnegie Mellon University). Gaussian is a federally registered
 trademark of Gaussian, Inc.
  
 This software contains proprietary and confidential information,
 including trade secrets, belonging to Gaussian, Inc.
  
 This software is provided under written license and may be
 used, copied, transmitted, or stored only in accord with that
 written license.
  
 The following legend is applicable only to US Government
 contracts under FAR:
  
                    RESTRICTED RIGHTS LEGEND
  
 Use, reproduction and disclosure by the US Government is
 subject to restrictions as set forth in subparagraphs (a)
 and (c) of the Commercial Computer Software - Restricted
 Rights clause in FAR 52.227-19.
  
 Gaussian, Inc.
 340 Quinnipiac St., Bldg. 40, Wallingford CT 06492
  
  
 ---------------------------------------------------------------
 Warning -- This program may not be used in any manner that
 competes with the business of Gaussian, Inc. or will provide
 assistance to any competitor of Gaussian, Inc.  The licensee
 of this program is prohibited from giving any competitor of
 Gaussian, Inc. access to this program.  By using this program,
 the user acknowledges that Gaussian, Inc. is engaged in the
 business of creating and licensing software in the field of
 computational chemistry and represents and warrants to the
 licensee that it is not a competitor of Gaussian, Inc. and that
 it will not use this program in any manner prohibited above.
 ---------------------------------------------------------------
  

 Cite this work as:
 Gaussian 16, Revision C.01,
 M. J. Frisch, G. W. Trucks, H. B. Schlegel, G. E. Scuseria, 
 M. A. Robb, J. R. Cheeseman, G. Scalmani, V. Barone, 
 G. A. Petersson, H. Nakatsuji, X. Li, M. Caricato, A. V. Marenich, 
 J. Bloino, B. G. Janesko, R. Gomperts, B. Mennucci, H. P. Hratchian, 
 J. V. Ortiz, A. F. Izmaylov, J. L. Sonnenberg, D. Williams-Young, 
 F. Ding, F. Lipparini, F. Egidi, J. Goings, B. Peng, A. Petrone, 
 T. Henderson, D. Ranasinghe, V. G. Zakrzewski, J. Gao, N. Rega, 
 G. Zheng, W. Liang, M. Hada, M. Ehara, K. Toyota, R. Fukuda, 
 J. Hasegawa, M. Ishida, T. Nakajima, Y. Honda, O. Kitao, H. Nakai, 
 T. Vreven, K. Throssell, J. A. Montgomery, Jr., J. E. Peralta, 
 F. Ogliaro, M. J. Bearpark, J. J. Heyd, E. N. Brothers, K. N. Kudin, 
 V. N. Staroverov, T. A. Keith, R. Kobayashi, J. Normand, 
 K. Raghavachari, A. P. Rendell, J. C. Burant, S. S. Iyengar, 
 J. Tomasi, M. Cossi, J. M. Millam, M. Klene, C. Adamo, R. Cammi, 
 J. W. Ochterski, R. L. Martin, K. Morokuma, O. Farkas, 
 J. B. Foresman, and D. J. Fox, Gaussian, Inc., Wallingford CT, 2019.
 
 ******************************************
 Gaussian 16:  ES64L-G16RevC.01  3-Jul-2019
                 4-Jul-2023 
 ******************************************
 %mem=16Gb
 %NProc=8
 Will use up to    8 processors via shared memory.
 %chk=pa_oh4_so4-bp86-cosmors-deftzvp-gp.chk
 ----------------------------------------------------------------------
 #p BP86/GEN Pseudo=Read GFInput GFPrint IOP(6/7=3) Symm=(Loose) Int=(U
 ltraFine) Guess=(Harris) Scf=(NoVarAcc,MaxCycle=100,conver=8)
 ----------------------------------------------------------------------
 1/38=1,172=1/1;
 2/12=2,17=4,18=3,40=1/2;
 3/5=7,11=2,16=1,17=8,24=110,25=1,30=1,74=404,75=-5/1,2,3;
 4/11=8/1;
 5/5=2,6=8,7=100,38=1/2;
 6/7=3,8=2,9=2,10=2,28=1/1;
 99/5=1,9=1/99;
 Leave Link    1 at Tue Jul  4 11:52:09 2023, MaxMem=  2147483648 cpu:               0.5 elap:               0.1
 (Enter /home/pcmt/gaussian/g16.C.01/g16/l101.exe)
 -------------------------------------------------------------
 pa_oh4_so4-bp86-cosmors-deftzvp-gp.com SGP in PCM calculation
 -------------------------------------------------------------
 Symbolic Z-matrix:
 Charge = -1 Multiplicity = 1
 Pa                    0.4199   -0.14754  -0.21982 
 O                     1.02537   1.36275  -1.56786 
 H                     1.45342   2.22701  -1.53145 
 O                    -1.08674   1.1253    0.60756 
 H                    -1.35855   2.02057   0.37275 
 O                    -0.41964  -1.22578  -1.8582 
 H                    -0.85481  -2.08288  -1.93524 
 O                    -0.16528  -1.65341   1.14299 
 H                     0.02802  -2.58376   1.31217 
 O                     2.32502   0.32947   1.13788 
 O                     2.51257  -1.29779  -0.54999 
 S                     3.36155  -0.63644   0.54202 
 O                     4.46789   0.10532  -0.04684 
 O                     3.77325  -1.61724   1.5368 
 
 ITRead=  0  0  0  0  0  0  0  0  0  0  0  0  0  0
 MicOpt= -1 -1 -1 -1 -1 -1 -1 -1 -1 -1 -1 -1 -1 -1
 NAtoms=     14 NQM=       14 NQMF=       0 NMMI=      0 NMMIF=      0
                NMic=       0 NMicF=      0.
                    Isotopes and Nuclear Properties:
 (Nuclear quadrupole moments (NQMom) in fm**2, nuclear magnetic moments (NMagM)
  in nuclear magnetons)

  Atom         1           2           3           4           5           6           7           8           9          10
 IAtWgt=         231          16           1          16           1          16           1          16           1          16
 AtmWgt= 231.0359000  15.9949146   1.0078250  15.9949146   1.0078250  15.9949146   1.0078250  15.9949146   1.0078250  15.9949146
 NucSpn=           3           0           1           0           1           0           1           0           1           0
 AtZEff=  -0.0000000  -0.0000000  -0.0000000  -0.0000000  -0.0000000  -0.0000000  -0.0000000  -0.0000000  -0.0000000  -0.0000000
 NQMom= -172.0000000   0.0000000   0.0000000   0.0000000   0.0000000   0.0000000   0.0000000   0.0000000   0.0000000   0.0000000
 NMagM=    2.0100000   0.0000000   2.7928460   0.0000000   2.7928460   0.0000000   2.7928460   0.0000000   2.7928460   0.0000000
 AtZNuc=  91.0000000   8.0000000   1.0000000   8.0000000   1.0000000   8.0000000   1.0000000   8.0000000   1.0000000   8.0000000

  Atom        11          12          13          14
 IAtWgt=          16          32          16          16
 AtmWgt=  15.9949146  31.9720718  15.9949146  15.9949146
 NucSpn=           0           0           0           0
 AtZEff=  -0.0000000  -0.0000000  -0.0000000  -0.0000000
 NQMom=    0.0000000   0.0000000   0.0000000   0.0000000
 NMagM=    0.0000000   0.0000000   0.0000000   0.0000000
 AtZNuc=   8.0000000  16.0000000   8.0000000   8.0000000
 Leave Link  101 at Tue Jul  4 11:52:09 2023, MaxMem=  2147483648 cpu:               1.3 elap:               0.2
 (Enter /home/pcmt/gaussian/g16.C.01/g16/l202.exe)
                          Input orientation:                          
 ---------------------------------------------------------------------
 Center     Atomic      Atomic             Coordinates (Angstroms)
 Number     Number       Type             X           Y           Z
 ---------------------------------------------------------------------
      1         91           0        0.419895   -0.147538   -0.219817
      2          8           0        1.025367    1.362746   -1.567856
      3          1           0        1.453419    2.227012   -1.531447
      4          8           0       -1.086745    1.125299    0.607559
      5          1           0       -1.358554    2.020570    0.372755
      6          8           0       -0.419643   -1.225780   -1.858196
      7          1           0       -0.854806   -2.082876   -1.935236
      8          8           0       -0.165280   -1.653414    1.142988
      9          1           0        0.028021   -2.583758    1.312173
     10          8           0        2.325022    0.329468    1.137875
     11          8           0        2.512565   -1.297790   -0.549991
     12         16           0        3.361552   -0.636438    0.542025
     13          8           0        4.467890    0.105317   -0.046838
     14          8           0        3.773252   -1.617240    1.536800
 ---------------------------------------------------------------------
                    Distance matrix (angstroms):
                    1          2          3          4          5
     1  Pa   0.000000
     2  O    2.112999   0.000000
     3  H    2.902935   0.965147   0.000000
     4  O    2.138838   3.041353   3.498792   0.000000
     5  H    2.866132   3.143530   3.402321   0.964636   0.000000
     6  O    2.133476   2.978728   3.941687   3.471678   4.049380
     7  H    2.883238   3.942376   4.905719   4.100242   4.734854
     8  O    2.113606   4.226528   4.983021   2.976076   3.938949
     9  H    2.904432   4.986398   5.767273   3.936532   4.899482
    10  O    2.387545   3.174547   3.389048   3.543266   4.124799
    11  O    2.410677   3.213450   3.809105   4.490692   5.181557
    12  S    3.077787   3.729088   4.017413   4.784910   5.419202
    13  O    4.059571   3.968071   3.974002   5.685294   6.147496
    14  O    4.060878   5.105887   5.438202   5.657259   6.397194
                    6          7          8          9         10
     6  O    0.000000
     7  H    0.964321   0.000000
     8  O    3.042151   3.183606   0.000000
     9  H    3.477894   3.402341   0.965157   0.000000
    10  O    4.350681   5.037333   3.183308   3.713957   0.000000
    11  O    3.211609   3.724843   3.188025   3.360704   2.352028
    12  S    4.517281   5.099675   3.719401   3.936701   1.537012
    13  O    5.379667   6.056842   5.096576   5.365675   2.458795
    14  O    5.409216   5.804376   3.958337   3.874452   2.458898
                   11         12         13         14
    11  O    0.000000
    12  S    1.533188   0.000000
    13  O    2.458692   1.456346   0.000000
    14  O    2.458877   1.456381   2.440826   0.000000
 Stoichiometry    H4O8PaS(1-)
 Framework group  C1[X(H4O8PaS)]
 Deg. of freedom    36
 Full point group                 C1      NOp   1
 Largest Abelian subgroup         C1      NOp   1
 Largest concise Abelian subgroup C1      NOp   1
                         Standard orientation:                         
 ---------------------------------------------------------------------
 Center     Atomic      Atomic             Coordinates (Angstroms)
 Number     Number       Type             X           Y           Z
 ---------------------------------------------------------------------
      1         91           0        0.700014    0.000460   -0.010962
      2          8           0        0.699527    2.091103    0.295591
      3          1           0        0.422858    2.885307   -0.177910
      4          8           0        2.144366    0.180269   -1.578172
      5          1           0        2.608091    0.950929   -1.926833
      6          8           0        1.728419   -0.236815    1.843169
      7          1           0        2.023037   -1.005835    2.344891
      8          8           0        0.678202   -2.088849   -0.329776
      9          1           0        0.299877   -2.874726    0.083499
     10          8           0       -1.375853    0.191537   -1.174849
     11          8           0       -1.406381   -0.181836    1.147153
     12         16           0       -2.377734    0.009116   -0.023604
     13          8           0       -3.168907    1.218251    0.158000
     14          8           0       -3.175799   -1.191582   -0.229673
 ---------------------------------------------------------------------
 Rotational constants (GHZ):           1.4100455           0.5188296           0.4900699
 Leave Link  202 at Tue Jul  4 11:52:09 2023, MaxMem=  2147483648 cpu:               0.1 elap:               0.1
 (Enter /home/pcmt/gaussian/g16.C.01/g16/l301.exe)
 General basis read from cards:  (5D, 7F)
 Centers:       1
 S 3 1.00
     Exponent=  1.2047376000D+04 Coefficients=  3.4500000000D-04
     Exponent=  1.8116841000D+03 Coefficients=  2.7420000000D-03
     Exponent=  3.4770104000D+02 Coefficients=  1.0053000000D-02
 S 1 1.00
     Exponent=  9.8678010000D+01 Coefficients=  1.0000000000D+00
 S 3 1.00
     Exponent=  5.7507376000D+01 Coefficients=  5.1528000000D-02
     Exponent=  3.3502601000D+01 Coefficients= -2.3692400000D-01
     Exponent=  1.9554451000D+01 Coefficients=  7.1904800000D-01
 S 1 1.00
     Exponent=  9.7164210000D+00 Coefficients=  1.0000000000D+00
 S 1 1.00
     Exponent=  2.6920960000D+00 Coefficients=  1.0000000000D+00
 S 1 1.00
     Exponent=  1.4538470000D+00 Coefficients=  1.0000000000D+00
 S 1 1.00
     Exponent=  5.7435200000D-01 Coefficients=  1.0000000000D+00
 S 1 1.00
     Exponent=  2.6346800000D-01 Coefficients=  1.0000000000D+00
 S 1 1.00
     Exponent=  5.6557000000D-02 Coefficients=  1.0000000000D+00
 S 1 1.00
     Exponent=  2.3169000000D-02 Coefficients=  1.0000000000D+00
 P 5 1.00
     Exponent=  2.9033676000D+03 Coefficients=  3.5000000000D-05
     Exponent=  6.4486356000D+02 Coefficients=  2.0500000000D-04
     Exponent=  2.2025896000D+02 Coefficients=  1.2510000000D-03
     Exponent=  8.0276401000D+01 Coefficients=  2.4570000000D-03
     Exponent=  2.4080211000D+01 Coefficients=  1.1190000000D-02
 P 1 1.00
     Exponent=  1.4077580000D+01 Coefficients=  1.0000000000D+00
 P 1 1.00
     Exponent=  8.2658460000D+00 Coefficients=  1.0000000000D+00
 P 1 1.00
     Exponent=  3.5948000000D+00 Coefficients=  1.0000000000D+00
 P 1 1.00
     Exponent=  1.7531110000D+00 Coefficients=  1.0000000000D+00
 P 1 1.00
     Exponent=  6.5776700000D-01 Coefficients=  1.0000000000D+00
 P 1 1.00
     Exponent=  2.8463900000D-01 Coefficients=  1.0000000000D+00
 P 1 1.00
     Exponent=  1.0054300000D-01 Coefficients=  1.0000000000D+00
 P 1 1.00
     Exponent=  3.0190000000D-02 Coefficients=  1.0000000000D+00
 D 6 1.00
     Exponent=  4.4814991000D+02 Coefficients=  2.6000000000D-05
     Exponent=  1.5446145000D+02 Coefficients=  2.2800000000D-04
     Exponent=  6.0925377000D+01 Coefficients=  9.0400000000D-04
     Exponent=  1.7032091000D+01 Coefficients=  2.5647000000D-02
     Exponent=  1.0018877000D+01 Coefficients= -1.0575100000D-01
     Exponent=  3.4091930000D+00 Coefficients=  4.4743200000D-01
 D 1 1.00
     Exponent=  1.6702130000D+00 Coefficients=  1.0000000000D+00
 D 1 1.00
     Exponent=  7.4109500000D-01 Coefficients=  1.0000000000D+00
 D 1 1.00
     Exponent=  2.6139300000D-01 Coefficients=  1.0000000000D+00
 D 1 1.00
     Exponent=  8.2811000000D-02 Coefficients=  1.0000000000D+00
 F 5 1.00
     Exponent=  8.7991327000D+01 Coefficients=  2.2600000000D-04
     Exponent=  2.8340195000D+01 Coefficients=  2.3230000000D-03
     Exponent=  1.2440994000D+01 Coefficients=  4.5850000000D-03
     Exponent=  3.9572960000D+00 Coefficients=  1.5696100000D-01
     Exponent=  1.8759440000D+00 Coefficients=  3.4497700000D-01
 F 1 1.00
     Exponent=  8.2758900000D-01 Coefficients=  1.0000000000D+00
 F 1 1.00
     Exponent=  3.3274800000D-01 Coefficients=  1.0000000000D+00
 F 1 1.00
     Exponent=  1.1468500000D-01 Coefficients=  1.0000000000D+00
 G 1 1.00
     Exponent=  3.5000000000D-01 Coefficients=  1.0000000000D+00
 ****
 Centers:       2      4      6      8     10     11     13     14
 Def2TZVP
 ****
 Centers:       3      5      7      9
 Def2TZVP
 ****
 Centers:      12
 Def2TZVP
 ****
 ======================================================================================================
                                       Pseudopotential Parameters
 ======================================================================================================
  Center     Atomic      Valence      Angular      Power
  Number     Number     Electrons     Momentum     of R      Exponent        Coefficient   SO-Coeffient
 ======================================================================================================
    1         91           31
                                      H and up 
                                                     2        1.0000000        0.00000000    0.00000000
                                      S - H
                                                     2       15.2691737      475.47573283    0.00000000
                                      P - H
                                                     2        9.9577370      207.66485962    0.00000000
                                      D - H
                                                     2        8.9431413      156.67411988    0.00000000
                                      F - H
                                                     2        7.0104666       67.98223685    0.00000000
                                      G - H
                                                     2       12.2010560      -57.63059989    0.00000000
    2          8
                                   No pseudopotential on this center.
    3          1
                                   No pseudopotential on this center.
    4          8
                                   No pseudopotential on this center.
    5          1
                                   No pseudopotential on this center.
    6          8
                                   No pseudopotential on this center.
    7          1
                                   No pseudopotential on this center.
    8          8
                                   No pseudopotential on this center.
    9          1
                                   No pseudopotential on this center.
   10          8
                                   No pseudopotential on this center.
   11          8
                                   No pseudopotential on this center.
   12         16
                                   No pseudopotential on this center.
   13          8
                                   No pseudopotential on this center.
   14          8
                                   No pseudopotential on this center.
 ======================================================================================================
 Ernie: Thresh=  0.10000D-02 Tol=  0.10000D-05 Strict=F.
 AO basis set in the form of general basis input (Overlap normalization):
      1 0
 S   3 1.00       0.000000000000
      0.1204737600D+05  0.2857094961D-01
      0.1811684100D+04  0.2270769386D+00
      0.3477010400D+03  0.8325326273D+00
 S   3 1.00       0.000000000000
      0.5750737600D+02  0.9569327984D-01
      0.3350260100D+02 -0.4399944619D+00
      0.1955445100D+02  0.1335352847D+01
 S   1 1.00       0.000000000000
      0.9867801000D+02  0.1000000000D+01
 S   1 1.00       0.000000000000
      0.9716421000D+01  0.1000000000D+01
 S   1 1.00       0.000000000000
      0.2692096000D+01  0.1000000000D+01
 S   1 1.00       0.000000000000
      0.1453847000D+01  0.1000000000D+01
 S   1 1.00       0.000000000000
      0.5743520000D+00  0.1000000000D+01
 S   1 1.00       0.000000000000
      0.2634680000D+00  0.1000000000D+01
 S   1 1.00       0.000000000000
      0.5655700000D-01  0.1000000000D+01
 S   1 1.00       0.000000000000
      0.2316900000D-01  0.1000000000D+01
 P   5 1.00       0.000000000000
      0.2903367600D+04  0.2594222647D-02
      0.6448635600D+03  0.1519473264D-01
      0.2202589600D+03  0.9272492945D-01
      0.8027640100D+02  0.1821144298D+00
      0.2408021100D+02  0.8294100404D+00
 P   1 1.00       0.000000000000
      0.1407758000D+02  0.1000000000D+01
 P   1 1.00       0.000000000000
      0.8265846000D+01  0.1000000000D+01
 P   1 1.00       0.000000000000
      0.3594800000D+01  0.1000000000D+01
 P   1 1.00       0.000000000000
      0.1753111000D+01  0.1000000000D+01
 P   1 1.00       0.000000000000
      0.6577670000D+00  0.1000000000D+01
 P   1 1.00       0.000000000000
      0.2846390000D+00  0.1000000000D+01
 P   1 1.00       0.000000000000
      0.1005430000D+00  0.1000000000D+01
 P   1 1.00       0.000000000000
      0.3019000000D-01  0.1000000000D+01
 D   6 1.00       0.000000000000
      0.4481499100D+03  0.6556927566D-04
      0.1544614500D+03  0.5749921096D-03
      0.6092537700D+02  0.2279793277D-02
      0.1703209100D+02  0.6467904664D-01
      0.1001887700D+02 -0.2666929411D+00
      0.3409193000D+01  0.1128376621D+01
 D   1 1.00       0.000000000000
      0.1670213000D+01  0.1000000000D+01
 D   1 1.00       0.000000000000
      0.7410950000D+00  0.1000000000D+01
 D   1 1.00       0.000000000000
      0.2613930000D+00  0.1000000000D+01
 D   1 1.00       0.000000000000
      0.8281100000D-01  0.1000000000D+01
 F   5 1.00       0.000000000000
      0.8799132700D+02  0.4766318191D-03
      0.2834019500D+02  0.4899184583D-02
      0.1244099400D+02  0.9669720755D-02
      0.3957296000D+01  0.3310292343D+00
      0.1875944000D+01  0.7275531640D+00
 F   1 1.00       0.000000000000
      0.8275890000D+00  0.1000000000D+01
 F   1 1.00       0.000000000000
      0.3327480000D+00  0.1000000000D+01
 F   1 1.00       0.000000000000
      0.1146850000D+00  0.1000000000D+01
 G   1 1.00       0.000000000000
      0.3500000000D+00  0.1000000000D+01
 ****
      2 0
 S   6 1.00       0.000000000000
      0.2703238263D+05  0.5722733521D-03
      0.4052387139D+04  0.4435323349D-02
      0.9223272271D+03  0.2302010771D-01
      0.2612407099D+03  0.9282249067D-01
      0.8535464135D+02  0.2937850001D+00
      0.3103503524D+02  0.6740160450D+00
 S   2 1.00       0.000000000000
      0.1226086073D+02  0.6383993703D+00
      0.4998707601D+01  0.3953458713D+00
 S   1 1.00       0.000000000000
      0.1170310816D+01  0.1000000000D+01
 S   1 1.00       0.000000000000
      0.4647474099D+00  0.1000000000D+01
 S   1 1.00       0.000000000000
      0.1850453636D+00  0.1000000000D+01
 P   4 1.00       0.000000000000
      0.6327495480D+02  0.1201833222D-01
      0.1462704938D+02  0.8300542179D-01
      0.4450122346D+01  0.3199174393D+00
      0.1527579965D+01  0.7071554292D+00
 P   1 1.00       0.000000000000
      0.5293511794D+00  0.1000000000D+01
 P   1 1.00       0.000000000000
      0.1747842127D+00  0.1000000000D+01
 D   1 1.00       0.000000000000
      0.2314000000D+01  0.1000000000D+01
 D   1 1.00       0.000000000000
      0.6450000000D+00  0.1000000000D+01
 F   1 1.00       0.000000000000
      0.1428000000D+01  0.1000000000D+01
 ****
      3 0
 S   3 1.00       0.000000000000
      0.3406134100D+02  0.2543930721D-01
      0.5123574600D+01  0.1900859489D+00
      0.1164662600D+01  0.8524411301D+00
 S   1 1.00       0.000000000000
      0.3272304100D+00  0.1000000000D+01
 S   1 1.00       0.000000000000
      0.1030724100D+00  0.1000000000D+01
 P   1 1.00       0.000000000000
      0.8000000000D+00  0.1000000000D+01
 ****
      4 0
 S   6 1.00       0.000000000000
      0.2703238263D+05  0.5722733521D-03
      0.4052387139D+04  0.4435323349D-02
      0.9223272271D+03  0.2302010771D-01
      0.2612407099D+03  0.9282249067D-01
      0.8535464135D+02  0.2937850001D+00
      0.3103503524D+02  0.6740160450D+00
 S   2 1.00       0.000000000000
      0.1226086073D+02  0.6383993703D+00
      0.4998707601D+01  0.3953458713D+00
 S   1 1.00       0.000000000000
      0.1170310816D+01  0.1000000000D+01
 S   1 1.00       0.000000000000
      0.4647474099D+00  0.1000000000D+01
 S   1 1.00       0.000000000000
      0.1850453636D+00  0.1000000000D+01
 P   4 1.00       0.000000000000
      0.6327495480D+02  0.1201833222D-01
      0.1462704938D+02  0.8300542179D-01
      0.4450122346D+01  0.3199174393D+00
      0.1527579965D+01  0.7071554292D+00
 P   1 1.00       0.000000000000
      0.5293511794D+00  0.1000000000D+01
 P   1 1.00       0.000000000000
      0.1747842127D+00  0.1000000000D+01
 D   1 1.00       0.000000000000
      0.2314000000D+01  0.1000000000D+01
 D   1 1.00       0.000000000000
      0.6450000000D+00  0.1000000000D+01
 F   1 1.00       0.000000000000
      0.1428000000D+01  0.1000000000D+01
 ****
      5 0
 S   3 1.00       0.000000000000
      0.3406134100D+02  0.2543930721D-01
      0.5123574600D+01  0.1900859489D+00
      0.1164662600D+01  0.8524411301D+00
 S   1 1.00       0.000000000000
      0.3272304100D+00  0.1000000000D+01
 S   1 1.00       0.000000000000
      0.1030724100D+00  0.1000000000D+01
 P   1 1.00       0.000000000000
      0.8000000000D+00  0.1000000000D+01
 ****
      6 0
 S   6 1.00       0.000000000000
      0.2703238263D+05  0.5722733521D-03
      0.4052387139D+04  0.4435323349D-02
      0.9223272271D+03  0.2302010771D-01
      0.2612407099D+03  0.9282249067D-01
      0.8535464135D+02  0.2937850001D+00
      0.3103503524D+02  0.6740160450D+00
 S   2 1.00       0.000000000000
      0.1226086073D+02  0.6383993703D+00
      0.4998707601D+01  0.3953458713D+00
 S   1 1.00       0.000000000000
      0.1170310816D+01  0.1000000000D+01
 S   1 1.00       0.000000000000
      0.4647474099D+00  0.1000000000D+01
 S   1 1.00       0.000000000000
      0.1850453636D+00  0.1000000000D+01
 P   4 1.00       0.000000000000
      0.6327495480D+02  0.1201833222D-01
      0.1462704938D+02  0.8300542179D-01
      0.4450122346D+01  0.3199174393D+00
      0.1527579965D+01  0.7071554292D+00
 P   1 1.00       0.000000000000
      0.5293511794D+00  0.1000000000D+01
 P   1 1.00       0.000000000000
      0.1747842127D+00  0.1000000000D+01
 D   1 1.00       0.000000000000
      0.2314000000D+01  0.1000000000D+01
 D   1 1.00       0.000000000000
      0.6450000000D+00  0.1000000000D+01
 F   1 1.00       0.000000000000
      0.1428000000D+01  0.1000000000D+01
 ****
      7 0
 S   3 1.00       0.000000000000
      0.3406134100D+02  0.2543930721D-01
      0.5123574600D+01  0.1900859489D+00
      0.1164662600D+01  0.8524411301D+00
 S   1 1.00       0.000000000000
      0.3272304100D+00  0.1000000000D+01
 S   1 1.00       0.000000000000
      0.1030724100D+00  0.1000000000D+01
 P   1 1.00       0.000000000000
      0.8000000000D+00  0.1000000000D+01
 ****
      8 0
 S   6 1.00       0.000000000000
      0.2703238263D+05  0.5722733521D-03
      0.4052387139D+04  0.4435323349D-02
      0.9223272271D+03  0.2302010771D-01
      0.2612407099D+03  0.9282249067D-01
      0.8535464135D+02  0.2937850001D+00
      0.3103503524D+02  0.6740160450D+00
 S   2 1.00       0.000000000000
      0.1226086073D+02  0.6383993703D+00
      0.4998707601D+01  0.3953458713D+00
 S   1 1.00       0.000000000000
      0.1170310816D+01  0.1000000000D+01
 S   1 1.00       0.000000000000
      0.4647474099D+00  0.1000000000D+01
 S   1 1.00       0.000000000000
      0.1850453636D+00  0.1000000000D+01
 P   4 1.00       0.000000000000
      0.6327495480D+02  0.1201833222D-01
      0.1462704938D+02  0.8300542179D-01
      0.4450122346D+01  0.3199174393D+00
      0.1527579965D+01  0.7071554292D+00
 P   1 1.00       0.000000000000
      0.5293511794D+00  0.1000000000D+01
 P   1 1.00       0.000000000000
      0.1747842127D+00  0.1000000000D+01
 D   1 1.00       0.000000000000
      0.2314000000D+01  0.1000000000D+01
 D   1 1.00       0.000000000000
      0.6450000000D+00  0.1000000000D+01
 F   1 1.00       0.000000000000
      0.1428000000D+01  0.1000000000D+01
 ****
      9 0
 S   3 1.00       0.000000000000
      0.3406134100D+02  0.2543930721D-01
      0.5123574600D+01  0.1900859489D+00
      0.1164662600D+01  0.8524411301D+00
 S   1 1.00       0.000000000000
      0.3272304100D+00  0.1000000000D+01
 S   1 1.00       0.000000000000
      0.1030724100D+00  0.1000000000D+01
 P   1 1.00       0.000000000000
      0.8000000000D+00  0.1000000000D+01
 ****
     10 0
 S   6 1.00       0.000000000000
      0.2703238263D+05  0.5722733521D-03
      0.4052387139D+04  0.4435323349D-02
      0.9223272271D+03  0.2302010771D-01
      0.2612407099D+03  0.9282249067D-01
      0.8535464135D+02  0.2937850001D+00
      0.3103503524D+02  0.6740160450D+00
 S   2 1.00       0.000000000000
      0.1226086073D+02  0.6383993703D+00
      0.4998707601D+01  0.3953458713D+00
 S   1 1.00       0.000000000000
      0.1170310816D+01  0.1000000000D+01
 S   1 1.00       0.000000000000
      0.4647474099D+00  0.1000000000D+01
 S   1 1.00       0.000000000000
      0.1850453636D+00  0.1000000000D+01
 P   4 1.00       0.000000000000
      0.6327495480D+02  0.1201833222D-01
      0.1462704938D+02  0.8300542179D-01
      0.4450122346D+01  0.3199174393D+00
      0.1527579965D+01  0.7071554292D+00
 P   1 1.00       0.000000000000
      0.5293511794D+00  0.1000000000D+01
 P   1 1.00       0.000000000000
      0.1747842127D+00  0.1000000000D+01
 D   1 1.00       0.000000000000
      0.2314000000D+01  0.1000000000D+01
 D   1 1.00       0.000000000000
      0.6450000000D+00  0.1000000000D+01
 F   1 1.00       0.000000000000
      0.1428000000D+01  0.1000000000D+01
 ****
     11 0
 S   6 1.00       0.000000000000
      0.2703238263D+05  0.5722733521D-03
      0.4052387139D+04  0.4435323349D-02
      0.9223272271D+03  0.2302010771D-01
      0.2612407099D+03  0.9282249067D-01
      0.8535464135D+02  0.2937850001D+00
      0.3103503524D+02  0.6740160450D+00
 S   2 1.00       0.000000000000
      0.1226086073D+02  0.6383993703D+00
      0.4998707601D+01  0.3953458713D+00
 S   1 1.00       0.000000000000
      0.1170310816D+01  0.1000000000D+01
 S   1 1.00       0.000000000000
      0.4647474099D+00  0.1000000000D+01
 S   1 1.00       0.000000000000
      0.1850453636D+00  0.1000000000D+01
 P   4 1.00       0.000000000000
      0.6327495480D+02  0.1201833222D-01
      0.1462704938D+02  0.8300542179D-01
      0.4450122346D+01  0.3199174393D+00
      0.1527579965D+01  0.7071554292D+00
 P   1 1.00       0.000000000000
      0.5293511794D+00  0.1000000000D+01
 P   1 1.00       0.000000000000
      0.1747842127D+00  0.1000000000D+01
 D   1 1.00       0.000000000000
      0.2314000000D+01  0.1000000000D+01
 D   1 1.00       0.000000000000
      0.6450000000D+00  0.1000000000D+01
 F   1 1.00       0.000000000000
      0.1428000000D+01  0.1000000000D+01
 ****
     12 0
 S   7 1.00       0.000000000000
      0.6070092810D+05  0.5238007490D-03
      0.9102610685D+04  0.4050632678D-02
      0.2071416601D+04  0.2082700417D-01
      0.5860247682D+03  0.8149685034D-01
      0.1905539502D+03  0.2374911384D+00
      0.6763038426D+02  0.4472617151D+00
      0.2512730691D+02  0.3489191844D+00
 S   3 1.00       0.000000000000
      0.1125746301D+03  0.1004556989D+00
      0.3479555422D+02  0.4339117295D+00
      0.6511555622D+01 -0.1208433059D+01
 S   2 1.00       0.000000000000
      0.3239903226D+01  0.6749812942D+00
      0.1547716088D+01  0.3470879576D+00
 S   1 1.00       0.000000000000
      0.4054103011D+00  0.1000000000D+01
 S   1 1.00       0.000000000000
      0.1455065106D+00  0.1000000000D+01
 P   5 1.00       0.000000000000
      0.5643671603D+03  0.3488692363D-02
      0.1334262438D+03  0.2768512678D-01
      0.4246827119D+02  0.1265940018D+00
      0.1561652758D+02  0.3616592567D+00
      0.6109398847D+01  0.6122203444D+00
 P   1 1.00       0.000000000000
      0.2440416020D+01  0.1000000000D+01
 P   1 1.00       0.000000000000
      0.8388220130D+00  0.1000000000D+01
 P   1 1.00       0.000000000000
      0.3128874690D+00  0.1000000000D+01
 P   1 1.00       0.000000000000
      0.1077010900D+00  0.1000000000D+01
 D   2 1.00       0.000000000000
      0.3756000000D+01  0.1828519746D+00
      0.8120000000D+00  0.9142598730D+00
 D   1 1.00       0.000000000000
      0.2730000000D+00  0.1000000000D+01
 F   1 1.00       0.000000000000
      0.5570000000D+00  0.1000000000D+01
 ****
     13 0
 S   6 1.00       0.000000000000
      0.2703238263D+05  0.5722733521D-03
      0.4052387139D+04  0.4435323349D-02
      0.9223272271D+03  0.2302010771D-01
      0.2612407099D+03  0.9282249067D-01
      0.8535464135D+02  0.2937850001D+00
      0.3103503524D+02  0.6740160450D+00
 S   2 1.00       0.000000000000
      0.1226086073D+02  0.6383993703D+00
      0.4998707601D+01  0.3953458713D+00
 S   1 1.00       0.000000000000
      0.1170310816D+01  0.1000000000D+01
 S   1 1.00       0.000000000000
      0.4647474099D+00  0.1000000000D+01
 S   1 1.00       0.000000000000
      0.1850453636D+00  0.1000000000D+01
 P   4 1.00       0.000000000000
      0.6327495480D+02  0.1201833222D-01
      0.1462704938D+02  0.8300542179D-01
      0.4450122346D+01  0.3199174393D+00
      0.1527579965D+01  0.7071554292D+00
 P   1 1.00       0.000000000000
      0.5293511794D+00  0.1000000000D+01
 P   1 1.00       0.000000000000
      0.1747842127D+00  0.1000000000D+01
 D   1 1.00       0.000000000000
      0.2314000000D+01  0.1000000000D+01
 D   1 1.00       0.000000000000
      0.6450000000D+00  0.1000000000D+01
 F   1 1.00       0.000000000000
      0.1428000000D+01  0.1000000000D+01
 ****
     14 0
 S   6 1.00       0.000000000000
      0.2703238263D+05  0.5722733521D-03
      0.4052387139D+04  0.4435323349D-02
      0.9223272271D+03  0.2302010771D-01
      0.2612407099D+03  0.9282249067D-01
      0.8535464135D+02  0.2937850001D+00
      0.3103503524D+02  0.6740160450D+00
 S   2 1.00       0.000000000000
      0.1226086073D+02  0.6383993703D+00
      0.4998707601D+01  0.3953458713D+00
 S   1 1.00       0.000000000000
      0.1170310816D+01  0.1000000000D+01
 S   1 1.00       0.000000000000
      0.4647474099D+00  0.1000000000D+01
 S   1 1.00       0.000000000000
      0.1850453636D+00  0.1000000000D+01
 P   4 1.00       0.000000000000
      0.6327495480D+02  0.1201833222D-01
      0.1462704938D+02  0.8300542179D-01
      0.4450122346D+01  0.3199174393D+00
      0.1527579965D+01  0.7071554292D+00
 P   1 1.00       0.000000000000
      0.5293511794D+00  0.1000000000D+01
 P   1 1.00       0.000000000000
      0.1747842127D+00  0.1000000000D+01
 D   1 1.00       0.000000000000
      0.2314000000D+01  0.1000000000D+01
 D   1 1.00       0.000000000000
      0.6450000000D+00  0.1000000000D+01
 F   1 1.00       0.000000000000
      0.1428000000D+01  0.1000000000D+01
 ****

 AO basis set (Overlap normalization):
 Atom Pa1      Shell     1 S   3     bf    1 -     1          1.322835345295          0.000869098271         -0.020714851214
      0.1204737600D+05  0.2857094961D-01
      0.1811684100D+04  0.2270769386D+00
      0.3477010400D+03  0.8325326273D+00
 Atom Pa1      Shell     2 S   3     bf    2 -     2          1.322835345295          0.000869098271         -0.020714851214
      0.5750737600D+02  0.9569327984D-01
      0.3350260100D+02 -0.4399944619D+00
      0.1955445100D+02  0.1335352847D+01
 Atom Pa1      Shell     3 S   1     bf    3 -     3          1.322835345295          0.000869098271         -0.020714851214
      0.9867801000D+02  0.1000000000D+01
 Atom Pa1      Shell     4 S   1     bf    4 -     4          1.322835345295          0.000869098271         -0.020714851214
      0.9716421000D+01  0.1000000000D+01
 Atom Pa1      Shell     5 S   1     bf    5 -     5          1.322835345295          0.000869098271         -0.020714851214
      0.2692096000D+01  0.1000000000D+01
 Atom Pa1      Shell     6 S   1     bf    6 -     6          1.322835345295          0.000869098271         -0.020714851214
      0.1453847000D+01  0.1000000000D+01
 Atom Pa1      Shell     7 S   1     bf    7 -     7          1.322835345295          0.000869098271         -0.020714851214
      0.5743520000D+00  0.1000000000D+01
 Atom Pa1      Shell     8 S   1     bf    8 -     8          1.322835345295          0.000869098271         -0.020714851214
      0.2634680000D+00  0.1000000000D+01
 Atom Pa1      Shell     9 S   1     bf    9 -     9          1.322835345295          0.000869098271         -0.020714851214
      0.5655700000D-01  0.1000000000D+01
 Atom Pa1      Shell    10 S   1     bf   10 -    10          1.322835345295          0.000869098271         -0.020714851214
      0.2316900000D-01  0.1000000000D+01
 Atom Pa1      Shell    11 P   5     bf   11 -    13          1.322835345295          0.000869098271         -0.020714851214
      0.2903367600D+04  0.2594222647D-02
      0.6448635600D+03  0.1519473264D-01
      0.2202589600D+03  0.9272492945D-01
      0.8027640100D+02  0.1821144298D+00
      0.2408021100D+02  0.8294100404D+00
 Atom Pa1      Shell    12 P   1     bf   14 -    16          1.322835345295          0.000869098271         -0.020714851214
      0.1407758000D+02  0.1000000000D+01
 Atom Pa1      Shell    13 P   1     bf   17 -    19          1.322835345295          0.000869098271         -0.020714851214
      0.8265846000D+01  0.1000000000D+01
 Atom Pa1      Shell    14 P   1     bf   20 -    22          1.322835345295          0.000869098271         -0.020714851214
      0.3594800000D+01  0.1000000000D+01
 Atom Pa1      Shell    15 P   1     bf   23 -    25          1.322835345295          0.000869098271         -0.020714851214
      0.1753111000D+01  0.1000000000D+01
 Atom Pa1      Shell    16 P   1     bf   26 -    28          1.322835345295          0.000869098271         -0.020714851214
      0.6577670000D+00  0.1000000000D+01
 Atom Pa1      Shell    17 P   1     bf   29 -    31          1.322835345295          0.000869098271         -0.020714851214
      0.2846390000D+00  0.1000000000D+01
 Atom Pa1      Shell    18 P   1     bf   32 -    34          1.322835345295          0.000869098271         -0.020714851214
      0.1005430000D+00  0.1000000000D+01
 Atom Pa1      Shell    19 P   1     bf   35 -    37          1.322835345295          0.000869098271         -0.020714851214
      0.3019000000D-01  0.1000000000D+01
 Atom Pa1      Shell    20 D   6     bf   38 -    42          1.322835345295          0.000869098271         -0.020714851214
      0.4481499100D+03  0.6556927566D-04
      0.1544614500D+03  0.5749921096D-03
      0.6092537700D+02  0.2279793277D-02
      0.1703209100D+02  0.6467904664D-01
      0.1001887700D+02 -0.2666929411D+00
      0.3409193000D+01  0.1128376621D+01
 Atom Pa1      Shell    21 D   1     bf   43 -    47          1.322835345295          0.000869098271         -0.020714851214
      0.1670213000D+01  0.1000000000D+01
 Atom Pa1      Shell    22 D   1     bf   48 -    52          1.322835345295          0.000869098271         -0.020714851214
      0.7410950000D+00  0.1000000000D+01
 Atom Pa1      Shell    23 D   1     bf   53 -    57          1.322835345295          0.000869098271         -0.020714851214
      0.2613930000D+00  0.1000000000D+01
 Atom Pa1      Shell    24 D   1     bf   58 -    62          1.322835345295          0.000869098271         -0.020714851214
      0.8281100000D-01  0.1000000000D+01
 Atom Pa1      Shell    25 F   5     bf   63 -    69          1.322835345295          0.000869098271         -0.020714851214
      0.8799132700D+02  0.4766318191D-03
      0.2834019500D+02  0.4899184583D-02
      0.1244099400D+02  0.9669720755D-02
      0.3957296000D+01  0.3310292343D+00
      0.1875944000D+01  0.7275531640D+00
 Atom Pa1      Shell    26 F   1     bf   70 -    76          1.322835345295          0.000869098271         -0.020714851214
      0.8275890000D+00  0.1000000000D+01
 Atom Pa1      Shell    27 F   1     bf   77 -    83          1.322835345295          0.000869098271         -0.020714851214
      0.3327480000D+00  0.1000000000D+01
 Atom Pa1      Shell    28 F   1     bf   84 -    90          1.322835345295          0.000869098271         -0.020714851214
      0.1146850000D+00  0.1000000000D+01
 Atom Pa1      Shell    29 G   1     bf   91 -    99          1.322835345295          0.000869098271         -0.020714851214
      0.3500000000D+00  0.1000000000D+01
 Atom O2       Shell    30 S   6     bf  100 -   100          1.321914998710          3.951612260388          0.558585814380
      0.2703238263D+05  0.5722733521D-03
      0.4052387139D+04  0.4435323349D-02
      0.9223272271D+03  0.2302010771D-01
      0.2612407099D+03  0.9282249067D-01
      0.8535464135D+02  0.2937850001D+00
      0.3103503524D+02  0.6740160450D+00
 Atom O2       Shell    31 S   2     bf  101 -   101          1.321914998710          3.951612260388          0.558585814380
      0.1226086073D+02  0.6383993703D+00
      0.4998707601D+01  0.3953458713D+00
 Atom O2       Shell    32 S   1     bf  102 -   102          1.321914998710          3.951612260388          0.558585814380
      0.1170310816D+01  0.1000000000D+01
 Atom O2       Shell    33 S   1     bf  103 -   103          1.321914998710          3.951612260388          0.558585814380
      0.4647474099D+00  0.1000000000D+01
 Atom O2       Shell    34 S   1     bf  104 -   104          1.321914998710          3.951612260388          0.558585814380
      0.1850453636D+00  0.1000000000D+01
 Atom O2       Shell    35 P   4     bf  105 -   107          1.321914998710          3.951612260388          0.558585814380
      0.6327495480D+02  0.1201833222D-01
      0.1462704938D+02  0.8300542179D-01
      0.4450122346D+01  0.3199174393D+00
      0.1527579965D+01  0.7071554292D+00
 Atom O2       Shell    36 P   1     bf  108 -   110          1.321914998710          3.951612260388          0.558585814380
      0.5293511794D+00  0.1000000000D+01
 Atom O2       Shell    37 P   1     bf  111 -   113          1.321914998710          3.951612260388          0.558585814380
      0.1747842127D+00  0.1000000000D+01
 Atom O2       Shell    38 D   1     bf  114 -   118          1.321914998710          3.951612260388          0.558585814380
      0.2314000000D+01  0.1000000000D+01
 Atom O2       Shell    39 D   1     bf  119 -   123          1.321914998710          3.951612260388          0.558585814380
      0.6450000000D+00  0.1000000000D+01
 Atom O2       Shell    40 F   1     bf  124 -   130          1.321914998710          3.951612260388          0.558585814380
      0.1428000000D+01  0.1000000000D+01
 Atom H3       Shell    41 S   3     bf  131 -   131          0.799086419238          5.452440336413         -0.336202118005
      0.3406134100D+02  0.2543930721D-01
      0.5123574600D+01  0.1900859489D+00
      0.1164662600D+01  0.8524411301D+00
 Atom H3       Shell    42 S   1     bf  132 -   132          0.799086419238          5.452440336413         -0.336202118005
      0.3272304100D+00  0.1000000000D+01
 Atom H3       Shell    43 S   1     bf  133 -   133          0.799086419238          5.452440336413         -0.336202118005
      0.1030724100D+00  0.1000000000D+01
 Atom H3       Shell    44 P   1     bf  134 -   136          0.799086419238          5.452440336413         -0.336202118005
      0.8000000000D+00  0.1000000000D+01
 Atom O4       Shell    45 S   6     bf  137 -   137          4.052263811497          0.340659884209         -2.982312494658
      0.2703238263D+05  0.5722733521D-03
      0.4052387139D+04  0.4435323349D-02
      0.9223272271D+03  0.2302010771D-01
      0.2612407099D+03  0.9282249067D-01
      0.8535464135D+02  0.2937850001D+00
      0.3103503524D+02  0.6740160450D+00
 Atom O4       Shell    46 S   2     bf  138 -   138          4.052263811497          0.340659884209         -2.982312494658
      0.1226086073D+02  0.6383993703D+00
      0.4998707601D+01  0.3953458713D+00
 Atom O4       Shell    47 S   1     bf  139 -   139          4.052263811497          0.340659884209         -2.982312494658
      0.1170310816D+01  0.1000000000D+01
 Atom O4       Shell    48 S   1     bf  140 -   140          4.052263811497          0.340659884209         -2.982312494658
      0.4647474099D+00  0.1000000000D+01
 Atom O4       Shell    49 S   1     bf  141 -   141          4.052263811497          0.340659884209         -2.982312494658
      0.1850453636D+00  0.1000000000D+01
 Atom O4       Shell    50 P   4     bf  142 -   144          4.052263811497          0.340659884209         -2.982312494658
      0.6327495480D+02  0.1201833222D-01
      0.1462704938D+02  0.8300542179D-01
      0.4450122346D+01  0.3199174393D+00
      0.1527579965D+01  0.7071554292D+00
 Atom O4       Shell    51 P   1     bf  145 -   147          4.052263811497          0.340659884209         -2.982312494658
      0.5293511794D+00  0.1000000000D+01
 Atom O4       Shell    52 P   1     bf  148 -   150          4.052263811497          0.340659884209         -2.982312494658
      0.1747842127D+00  0.1000000000D+01
 Atom O4       Shell    53 D   1     bf  151 -   155          4.052263811497          0.340659884209         -2.982312494658
      0.2314000000D+01  0.1000000000D+01
 Atom O4       Shell    54 D   1     bf  156 -   160          4.052263811497          0.340659884209         -2.982312494658
      0.6450000000D+00  0.1000000000D+01
 Atom O4       Shell    55 F   1     bf  161 -   167          4.052263811497          0.340659884209         -2.982312494658
      0.1428000000D+01  0.1000000000D+01
 Atom H5       Shell    56 S   3     bf  168 -   168          4.928577572815          1.796995913757         -3.641187535667
      0.3406134100D+02  0.2543930721D-01
      0.5123574600D+01  0.1900859489D+00
      0.1164662600D+01  0.8524411301D+00
 Atom H5       Shell    57 S   1     bf  169 -   169          4.928577572815          1.796995913757         -3.641187535667
      0.3272304100D+00  0.1000000000D+01
 Atom H5       Shell    58 S   1     bf  170 -   170          4.928577572815          1.796995913757         -3.641187535667
      0.1030724100D+00  0.1000000000D+01
 Atom H5       Shell    59 P   1     bf  171 -   173          4.928577572815          1.796995913757         -3.641187535667
      0.8000000000D+00  0.1000000000D+01
 Atom O6       Shell    60 S   6     bf  174 -   174          3.266238948034         -0.447515006817          3.483085327960
      0.2703238263D+05  0.5722733521D-03
      0.4052387139D+04  0.4435323349D-02
      0.9223272271D+03  0.2302010771D-01
      0.2612407099D+03  0.9282249067D-01
      0.8535464135D+02  0.2937850001D+00
      0.3103503524D+02  0.6740160450D+00
 Atom O6       Shell    61 S   2     bf  175 -   175          3.266238948034         -0.447515006817          3.483085327960
      0.1226086073D+02  0.6383993703D+00
      0.4998707601D+01  0.3953458713D+00
 Atom O6       Shell    62 S   1     bf  176 -   176          3.266238948034         -0.447515006817          3.483085327960
      0.1170310816D+01  0.1000000000D+01
 Atom O6       Shell    63 S   1     bf  177 -   177          3.266238948034         -0.447515006817          3.483085327960
      0.4647474099D+00  0.1000000000D+01
 Atom O6       Shell    64 S   1     bf  178 -   178          3.266238948034         -0.447515006817          3.483085327960
      0.1850453636D+00  0.1000000000D+01
 Atom O6       Shell    65 P   4     bf  179 -   181          3.266238948034         -0.447515006817          3.483085327960
      0.6327495480D+02  0.1201833222D-01
      0.1462704938D+02  0.8300542179D-01
      0.4450122346D+01  0.3199174393D+00
      0.1527579965D+01  0.7071554292D+00
 Atom O6       Shell    66 P   1     bf  182 -   184          3.266238948034         -0.447515006817          3.483085327960
      0.5293511794D+00  0.1000000000D+01
 Atom O6       Shell    67 P   1     bf  185 -   187          3.266238948034         -0.447515006817          3.483085327960
      0.1747842127D+00  0.1000000000D+01
 Atom O6       Shell    68 D   1     bf  188 -   192          3.266238948034         -0.447515006817          3.483085327960
      0.2314000000D+01  0.1000000000D+01
 Atom O6       Shell    69 D   1     bf  193 -   197          3.266238948034         -0.447515006817          3.483085327960
      0.6450000000D+00  0.1000000000D+01
 Atom O6       Shell    70 F   1     bf  198 -   204          3.266238948034         -0.447515006817          3.483085327960
      0.1428000000D+01  0.1000000000D+01
 Atom H7       Shell    71 S   3     bf  205 -   205          3.822985146573         -1.900751747088          4.431202011724
      0.3406134100D+02  0.2543930721D-01
      0.5123574600D+01  0.1900859489D+00
      0.1164662600D+01  0.8524411301D+00
 Atom H7       Shell    72 S   1     bf  206 -   206          3.822985146573         -1.900751747088          4.431202011724
      0.3272304100D+00  0.1000000000D+01
 Atom H7       Shell    73 S   1     bf  207 -   207          3.822985146573         -1.900751747088          4.431202011724
      0.1030724100D+00  0.1000000000D+01
 Atom H7       Shell    74 P   1     bf  208 -   210          3.822985146573         -1.900751747088          4.431202011724
      0.8000000000D+00  0.1000000000D+01
 Atom O8       Shell    75 S   6     bf  211 -   211          1.281615130395         -3.947353203637         -0.623186853194
      0.2703238263D+05  0.5722733521D-03
      0.4052387139D+04  0.4435323349D-02
      0.9223272271D+03  0.2302010771D-01
      0.2612407099D+03  0.9282249067D-01
      0.8535464135D+02  0.2937850001D+00
      0.3103503524D+02  0.6740160450D+00
 Atom O8       Shell    76 S   2     bf  212 -   212          1.281615130395         -3.947353203637         -0.623186853194
      0.1226086073D+02  0.6383993703D+00
      0.4998707601D+01  0.3953458713D+00
 Atom O8       Shell    77 S   1     bf  213 -   213          1.281615130395         -3.947353203637         -0.623186853194
      0.1170310816D+01  0.1000000000D+01
 Atom O8       Shell    78 S   1     bf  214 -   214          1.281615130395         -3.947353203637         -0.623186853194
      0.4647474099D+00  0.1000000000D+01
 Atom O8       Shell    79 S   1     bf  215 -   215          1.281615130395         -3.947353203637         -0.623186853194
      0.1850453636D+00  0.1000000000D+01
 Atom O8       Shell    80 P   4     bf  216 -   218          1.281615130395         -3.947353203637         -0.623186853194
      0.6327495480D+02  0.1201833222D-01
      0.1462704938D+02  0.8300542179D-01
      0.4450122346D+01  0.3199174393D+00
      0.1527579965D+01  0.7071554292D+00
 Atom O8       Shell    81 P   1     bf  219 -   221          1.281615130395         -3.947353203637         -0.623186853194
      0.5293511794D+00  0.1000000000D+01
 Atom O8       Shell    82 P   1     bf  222 -   224          1.281615130395         -3.947353203637         -0.623186853194
      0.1747842127D+00  0.1000000000D+01
 Atom O8       Shell    83 D   1     bf  225 -   229          1.281615130395         -3.947353203637         -0.623186853194
      0.2314000000D+01  0.1000000000D+01
 Atom O8       Shell    84 D   1     bf  230 -   234          1.281615130395         -3.947353203637         -0.623186853194
      0.6450000000D+00  0.1000000000D+01
 Atom O8       Shell    85 F   1     bf  235 -   241          1.281615130395         -3.947353203637         -0.623186853194
      0.1428000000D+01  0.1000000000D+01
 Atom H9       Shell    86 S   3     bf  242 -   242          0.566685405274         -5.432444533115          0.157790752491
      0.3406134100D+02  0.2543930721D-01
      0.5123574600D+01  0.1900859489D+00
      0.1164662600D+01  0.8524411301D+00
 Atom H9       Shell    87 S   1     bf  243 -   243          0.566685405274         -5.432444533115          0.157790752491
      0.3272304100D+00  0.1000000000D+01
 Atom H9       Shell    88 S   1     bf  244 -   244          0.566685405274         -5.432444533115          0.157790752491
      0.1030724100D+00  0.1000000000D+01
 Atom H9       Shell    89 P   1     bf  245 -   247          0.566685405274         -5.432444533115          0.157790752491
      0.8000000000D+00  0.1000000000D+01
 Atom O10      Shell    90 S   6     bf  248 -   248         -2.599985764860          0.361951911464         -2.220142786029
      0.2703238263D+05  0.5722733521D-03
      0.4052387139D+04  0.4435323349D-02
      0.9223272271D+03  0.2302010771D-01
      0.2612407099D+03  0.9282249067D-01
      0.8535464135D+02  0.2937850001D+00
      0.3103503524D+02  0.6740160450D+00
 Atom O10      Shell    91 S   2     bf  249 -   249         -2.599985764860          0.361951911464         -2.220142786029
      0.1226086073D+02  0.6383993703D+00
      0.4998707601D+01  0.3953458713D+00
 Atom O10      Shell    92 S   1     bf  250 -   250         -2.599985764860          0.361951911464         -2.220142786029
      0.1170310816D+01  0.1000000000D+01
 Atom O10      Shell    93 S   1     bf  251 -   251         -2.599985764860          0.361951911464         -2.220142786029
      0.4647474099D+00  0.1000000000D+01
 Atom O10      Shell    94 S   1     bf  252 -   252         -2.599985764860          0.361951911464         -2.220142786029
      0.1850453636D+00  0.1000000000D+01
 Atom O10      Shell    95 P   4     bf  253 -   255         -2.599985764860          0.361951911464         -2.220142786029
      0.6327495480D+02  0.1201833222D-01
      0.1462704938D+02  0.8300542179D-01
      0.4450122346D+01  0.3199174393D+00
      0.1527579965D+01  0.7071554292D+00
 Atom O10      Shell    96 P   1     bf  256 -   258         -2.599985764860          0.361951911464         -2.220142786029
      0.5293511794D+00  0.1000000000D+01
 Atom O10      Shell    97 P   1     bf  259 -   261         -2.599985764860          0.361951911464         -2.220142786029
      0.1747842127D+00  0.1000000000D+01
 Atom O10      Shell    98 D   1     bf  262 -   266         -2.599985764860          0.361951911464         -2.220142786029
      0.2314000000D+01  0.1000000000D+01
 Atom O10      Shell    99 D   1     bf  267 -   271         -2.599985764860          0.361951911464         -2.220142786029
      0.6450000000D+00  0.1000000000D+01
 Atom O10      Shell   100 F   1     bf  272 -   278         -2.599985764860          0.361951911464         -2.220142786029
      0.1428000000D+01  0.1000000000D+01
 Atom O11      Shell   101 S   6     bf  279 -   279         -2.657674484104         -0.343620834972          2.167805879250
      0.2703238263D+05  0.5722733521D-03
      0.4052387139D+04  0.4435323349D-02
      0.9223272271D+03  0.2302010771D-01
      0.2612407099D+03  0.9282249067D-01
      0.8535464135D+02  0.2937850001D+00
      0.3103503524D+02  0.6740160450D+00
 Atom O11      Shell   102 S   2     bf  280 -   280         -2.657674484104         -0.343620834972          2.167805879250
      0.1226086073D+02  0.6383993703D+00
      0.4998707601D+01  0.3953458713D+00
 Atom O11      Shell   103 S   1     bf  281 -   281         -2.657674484104         -0.343620834972          2.167805879250
      0.1170310816D+01  0.1000000000D+01
 Atom O11      Shell   104 S   1     bf  282 -   282         -2.657674484104         -0.343620834972          2.167805879250
      0.4647474099D+00  0.1000000000D+01
 Atom O11      Shell   105 S   1     bf  283 -   283         -2.657674484104         -0.343620834972          2.167805879250
      0.1850453636D+00  0.1000000000D+01
 Atom O11      Shell   106 P   4     bf  284 -   286         -2.657674484104         -0.343620834972          2.167805879250
      0.6327495480D+02  0.1201833222D-01
      0.1462704938D+02  0.8300542179D-01
      0.4450122346D+01  0.3199174393D+00
      0.1527579965D+01  0.7071554292D+00
 Atom O11      Shell   107 P   1     bf  287 -   289         -2.657674484104         -0.343620834972          2.167805879250
      0.5293511794D+00  0.1000000000D+01
 Atom O11      Shell   108 P   1     bf  290 -   292         -2.657674484104         -0.343620834972          2.167805879250
      0.1747842127D+00  0.1000000000D+01
 Atom O11      Shell   109 D   1     bf  293 -   297         -2.657674484104         -0.343620834972          2.167805879250
      0.2314000000D+01  0.1000000000D+01
 Atom O11      Shell   110 D   1     bf  298 -   302         -2.657674484104         -0.343620834972          2.167805879250
      0.6450000000D+00  0.1000000000D+01
 Atom O11      Shell   111 F   1     bf  303 -   309         -2.657674484104         -0.343620834972          2.167805879250
      0.1428000000D+01  0.1000000000D+01
 Atom S12      Shell   112 S   7     bf  310 -   310         -4.493266810035          0.017225923831         -0.044605859002
      0.6070092810D+05  0.5238007490D-03
      0.9102610685D+04  0.4050632678D-02
      0.2071416601D+04  0.2082700417D-01
      0.5860247682D+03  0.8149685034D-01
      0.1905539502D+03  0.2374911384D+00
      0.6763038426D+02  0.4472617151D+00
      0.2512730691D+02  0.3489191844D+00
 Atom S12      Shell   113 S   3     bf  311 -   311         -4.493266810035          0.017225923831         -0.044605859002
      0.1125746301D+03  0.1004556989D+00
      0.3479555422D+02  0.4339117295D+00
      0.6511555622D+01 -0.1208433059D+01
 Atom S12      Shell   114 S   2     bf  312 -   312         -4.493266810035          0.017225923831         -0.044605859002
      0.3239903226D+01  0.6749812942D+00
      0.1547716088D+01  0.3470879576D+00
 Atom S12      Shell   115 S   1     bf  313 -   313         -4.493266810035          0.017225923831         -0.044605859002
      0.4054103011D+00  0.1000000000D+01
 Atom S12      Shell   116 S   1     bf  314 -   314         -4.493266810035          0.017225923831         -0.044605859002
      0.1455065106D+00  0.1000000000D+01
 Atom S12      Shell   117 P   5     bf  315 -   317         -4.493266810035          0.017225923831         -0.044605859002
      0.5643671603D+03  0.3488692363D-02
      0.1334262438D+03  0.2768512678D-01
      0.4246827119D+02  0.1265940018D+00
      0.1561652758D+02  0.3616592567D+00
      0.6109398847D+01  0.6122203444D+00
 Atom S12      Shell   118 P   1     bf  318 -   320         -4.493266810035          0.017225923831         -0.044605859002
      0.2440416020D+01  0.1000000000D+01
 Atom S12      Shell   119 P   1     bf  321 -   323         -4.493266810035          0.017225923831         -0.044605859002
      0.8388220130D+00  0.1000000000D+01
 Atom S12      Shell   120 P   1     bf  324 -   326         -4.493266810035          0.017225923831         -0.044605859002
      0.3128874690D+00  0.1000000000D+01
 Atom S12      Shell   121 P   1     bf  327 -   329         -4.493266810035          0.017225923831         -0.044605859002
      0.1077010900D+00  0.1000000000D+01
 Atom S12      Shell   122 D   2     bf  330 -   334         -4.493266810035          0.017225923831         -0.044605859002
      0.3756000000D+01  0.1828519746D+00
      0.8120000000D+00  0.9142598730D+00
 Atom S12      Shell   123 D   1     bf  335 -   339         -4.493266810035          0.017225923831         -0.044605859002
      0.2730000000D+00  0.1000000000D+01
 Atom S12      Shell   124 F   1     bf  340 -   346         -4.493266810035          0.017225923831         -0.044605859002
      0.5570000000D+00  0.1000000000D+01
 Atom O13      Shell   125 S   6     bf  347 -   347         -5.988367215833          2.302160249393          0.298576799860
      0.2703238263D+05  0.5722733521D-03
      0.4052387139D+04  0.4435323349D-02
      0.9223272271D+03  0.2302010771D-01
      0.2612407099D+03  0.9282249067D-01
      0.8535464135D+02  0.2937850001D+00
      0.3103503524D+02  0.6740160450D+00
 Atom O13      Shell   126 S   2     bf  348 -   348         -5.988367215833          2.302160249393          0.298576799860
      0.1226086073D+02  0.6383993703D+00
      0.4998707601D+01  0.3953458713D+00
 Atom O13      Shell   127 S   1     bf  349 -   349         -5.988367215833          2.302160249393          0.298576799860
      0.1170310816D+01  0.1000000000D+01
 Atom O13      Shell   128 S   1     bf  350 -   350         -5.988367215833          2.302160249393          0.298576799860
      0.4647474099D+00  0.1000000000D+01
 Atom O13      Shell   129 S   1     bf  351 -   351         -5.988367215833          2.302160249393          0.298576799860
      0.1850453636D+00  0.1000000000D+01
 Atom O13      Shell   130 P   4     bf  352 -   354         -5.988367215833          2.302160249393          0.298576799860
      0.6327495480D+02  0.1201833222D-01
      0.1462704938D+02  0.8300542179D-01
      0.4450122346D+01  0.3199174393D+00
      0.1527579965D+01  0.7071554292D+00
 Atom O13      Shell   131 P   1     bf  355 -   357         -5.988367215833          2.302160249393          0.298576799860
      0.5293511794D+00  0.1000000000D+01
 Atom O13      Shell   132 P   1     bf  358 -   360         -5.988367215833          2.302160249393          0.298576799860
      0.1747842127D+00  0.1000000000D+01
 Atom O13      Shell   133 D   1     bf  361 -   365         -5.988367215833          2.302160249393          0.298576799860
      0.2314000000D+01  0.1000000000D+01
 Atom O13      Shell   134 D   1     bf  366 -   370         -5.988367215833          2.302160249393          0.298576799860
      0.6450000000D+00  0.1000000000D+01
 Atom O13      Shell   135 F   1     bf  371 -   377         -5.988367215833          2.302160249393          0.298576799860
      0.1428000000D+01  0.1000000000D+01
 Atom O14      Shell   136 S   6     bf  378 -   378         -6.001390674483         -2.251763096771         -0.434018925819
      0.2703238263D+05  0.5722733521D-03
      0.4052387139D+04  0.4435323349D-02
      0.9223272271D+03  0.2302010771D-01
      0.2612407099D+03  0.9282249067D-01
      0.8535464135D+02  0.2937850001D+00
      0.3103503524D+02  0.6740160450D+00
 Atom O14      Shell   137 S   2     bf  379 -   379         -6.001390674483         -2.251763096771         -0.434018925819
      0.1226086073D+02  0.6383993703D+00
      0.4998707601D+01  0.3953458713D+00
 Atom O14      Shell   138 S   1     bf  380 -   380         -6.001390674483         -2.251763096771         -0.434018925819
      0.1170310816D+01  0.1000000000D+01
 Atom O14      Shell   139 S   1     bf  381 -   381         -6.001390674483         -2.251763096771         -0.434018925819
      0.4647474099D+00  0.1000000000D+01
 Atom O14      Shell   140 S   1     bf  382 -   382         -6.001390674483         -2.251763096771         -0.434018925819
      0.1850453636D+00  0.1000000000D+01
 Atom O14      Shell   141 P   4     bf  383 -   385         -6.001390674483         -2.251763096771         -0.434018925819
      0.6327495480D+02  0.1201833222D-01
      0.1462704938D+02  0.8300542179D-01
      0.4450122346D+01  0.3199174393D+00
      0.1527579965D+01  0.7071554292D+00
 Atom O14      Shell   142 P   1     bf  386 -   388         -6.001390674483         -2.251763096771         -0.434018925819
      0.5293511794D+00  0.1000000000D+01
 Atom O14      Shell   143 P   1     bf  389 -   391         -6.001390674483         -2.251763096771         -0.434018925819
      0.1747842127D+00  0.1000000000D+01
 Atom O14      Shell   144 D   1     bf  392 -   396         -6.001390674483         -2.251763096771         -0.434018925819
      0.2314000000D+01  0.1000000000D+01
 Atom O14      Shell   145 D   1     bf  397 -   401         -6.001390674483         -2.251763096771         -0.434018925819
      0.6450000000D+00  0.1000000000D+01
 Atom O14      Shell   146 F   1     bf  402 -   408         -6.001390674483         -2.251763096771         -0.434018925819
      0.1428000000D+01  0.1000000000D+01
 Effective core potential in the form of general ECP input:
      1 0
 Pa1-ECP   5 60
 H component
  1
  2        1.0000000        0.00000000    0.00000000
 S-H projection
  1
  2       15.2691737      475.47573283    0.00000000
 P-H projection
  1
  2        9.9577370      207.66485962    0.00000000
 D-H projection
  1
  2        8.9431413      156.67411988    0.00000000
 F-H projection
  1
  2        7.0104666       67.98223685    0.00000000
 G-H projection
  1
  2       12.2010560      -57.63059989    0.00000000
 
 There are   476 symmetry adapted cartesian basis functions of A   symmetry.
 There are   408 symmetry adapted basis functions of A   symmetry.
   408 basis functions,   717 primitive gaussians,   476 cartesian basis functions
    58 alpha electrons       58 beta electrons
       nuclear repulsion energy      1108.8563914074 Hartrees.
 IExCor=  404 DFT=T Ex=B Corr=P86 ExCW=0 ScaHFX=  0.000000
 ScaDFX=  1.000000  1.000000  1.000000  1.000000 ScalE2=  1.000000  1.000000
 IRadAn=      5 IRanWt=     -1 IRanGd=            0 ICorTp=0 IEmpDi=  4
 NAtoms=   14 NActive=   14 NUniq=   14 SFac= 1.00D+00 NAtFMM=   60 NAOKFM=F Big=F
 Integral buffers will be    131072 words long.
 Raffenetti 2 integral format.
 Two-electron integral symmetry is turned on.
 Leave Link  301 at Tue Jul  4 11:52:09 2023, MaxMem=  2147483648 cpu:               1.0 elap:               0.2
 (Enter /home/pcmt/gaussian/g16.C.01/g16/l302.exe)
 NPDir=0 NMtPBC=     1 NCelOv=     1 NCel=       1 NClECP=     1 NCelD=      1
         NCelK=      1 NCelE2=     1 NClLst=     1 CellRange=     0.0.
 One-electron integrals computed using PRISM.
 One-electron integral symmetry used in STVInt
   1 Symmetry operations used in ECPInt.
 ECPInt:  NShTT=   10731 NPrTT=   33418 LenC2=    9890 LenP2D=   22440.
 LDataN:  DoStor=T MaxTD1= 9 Len=  602
 NBasis=   408 RedAO= T EigKep=  5.57D-04  NBF=   408
 NBsUse=   408 1.00D-06 EigRej= -1.00D+00 NBFU=   408
 Precomputing XC quadrature grid using
 IXCGrd= 4 IRadAn=           5 IRanWt=          -1 IRanGd=           0 AccXCQ= 0.00D+00.
 Defaulting to unpruned grid for atomic number  91.
 Generated NRdTot=       0 NPtTot=           0 NUsed=           0 NTot=          32
 NSgBfM=   468   468   468   468   468 MxSgAt=    14 MxSgA2=    14.
 Leave Link  302 at Tue Jul  4 11:52:11 2023, MaxMem=  2147483648 cpu:               8.0 elap:               1.1
 (Enter /home/pcmt/gaussian/g16.C.01/g16/l303.exe)
 DipDrv:  MaxL=1.
 Leave Link  303 at Tue Jul  4 11:52:11 2023, MaxMem=  2147483648 cpu:               0.7 elap:               0.1
 (Enter /home/pcmt/gaussian/g16.C.01/g16/l401.exe)
 ExpMin= 2.32D-02 ExpMax= 6.07D+04 ExpMxC= 1.20D+04 IAcc=3 IRadAn=         5 AccDes= 0.00D+00
 Harris functional with IExCor=  404 and IRadAn=       5 diagonalized for initial guess.
 HarFok:  IExCor=  404 AccDes= 0.00D+00 IRadAn=         5 IDoV= 1 UseB2=F ITyADJ=14
 ICtDFT=  3500011 ScaDFX=  1.000000  1.000000  1.000000  1.000000
 Defaulting to unpruned grid for atomic number  91.
 FoFCou: FMM=F IPFlag=           0 FMFlag=      100000 FMFlg1=           0
         NFxFlg=           0 DoJE=T BraDBF=F KetDBF=T FulRan=T
         wScrn=  0.000000 ICntrl=       500 IOpCl=  0 I1Cent=   200000004 NGrid=           0
         NMat0=    1 NMatS0=      1 NMatT0=    0 NMatD0=    1 NMtDS0=    0 NMtDT0=    0
 Petite list used in FoFCou.
 Harris En= -1446.41805566564    
 JPrj=0 DoOrth=F DoCkMO=F.
 Leave Link  401 at Tue Jul  4 11:52:14 2023, MaxMem=  2147483648 cpu:              25.3 elap:               3.2
 (Enter /home/pcmt/gaussian/g16.C.01/g16/l502.exe)
 Integral symmetry usage will be decided dynamically.
 Closed shell SCF:
 Using DIIS extrapolation, IDIIS=  1040.
 NGot=  2147483648 LenX=  2147022300 LenY=  2146795248
 Requested convergence on RMS density matrix=1.00D-08 within 100 cycles.
 Requested convergence on MAX density matrix=1.00D-06.
 Requested convergence on             energy=1.00D-06.
 No special actions if energy rises.
 Fock matrices will be formed incrementally for  20 cycles.

 Cycle   1  Pass 1  IDiag  1:
 FoFJK:  IHMeth= 1 ICntrl=     500 DoSepK=F KAlg= 0 I1Cent=           0 FoldK=F
 IRaf= 880000000 NMat=       1 IRICut=       1 DoRegI=T DoRafI=F ISym2E= 0 IDoP0=0 IntGTp=1.
 FoFCou: FMM=F IPFlag=           0 FMFlag=      100000 FMFlg1=           0
         NFxFlg=           0 DoJE=T BraDBF=F KetDBF=F FulRan=T
         wScrn=  0.000000 ICntrl=       500 IOpCl=  0 I1Cent=           0 NGrid=           0
         NMat0=    1 NMatS0=      1 NMatT0=    0 NMatD0=    1 NMtDS0=    0 NMtDT0=    0
 Symmetry not used in FoFCou.
 Defaulting to unpruned grid for atomic number  91.
 Defaulting to unpruned grid for atomic number  91.
 Defaulting to unpruned grid for atomic number  91.
 Defaulting to unpruned grid for atomic number  91.
 Defaulting to unpruned grid for atomic number  91.
 Defaulting to unpruned grid for atomic number  91.
 Defaulting to unpruned grid for atomic number  91.
 Defaulting to unpruned grid for atomic number  91.
 E= -1443.47074750935    
 DIIS: error= 4.10D-02 at cycle   1 NSaved=   1.
 NSaved= 1 IEnMin= 1 EnMin= -1443.47074750935     IErMin= 1 ErrMin= 4.10D-02
 ErrMax= 4.10D-02  0.00D+00 EMaxC= 1.00D-01 BMatC= 1.91D+00 BMatP= 1.91D+00
 IDIUse=3 WtCom= 5.90D-01 WtEn= 4.10D-01
 Coeff-Com:  0.100D+01
 Coeff-En:   0.100D+01
 Coeff:      0.100D+01
 Gap=    -0.010 Goal=   None    Shift=    0.000
 GapD=   -0.010 DampG=0.250 DampE=0.250 DampFc=0.1250 IDamp=-1.
 Damping current iteration by 1.25D-01
 RMSDP=1.06D-02 MaxDP=1.39D+00              OVMax= 9.92D-01

 Cycle   2  Pass 1  IDiag  1:
 RMSU=  1.30D-03    CP:  1.01D+00
 E= -1443.54333735819     Delta-E=       -0.072589848834 Rises=F Damp=T
 DIIS: error= 2.20D-02 at cycle   2 NSaved=   2.
 NSaved= 2 IEnMin= 2 EnMin= -1443.54333735819     IErMin= 2 ErrMin= 2.20D-02
 ErrMax= 2.20D-02  0.00D+00 EMaxC= 1.00D-01 BMatC= 3.73D-01 BMatP= 1.91D+00
 IDIUse=3 WtCom= 7.80D-01 WtEn= 2.20D-01
 Coeff-Com: -0.775D-01 0.108D+01
 Coeff-En:   0.472D+00 0.528D+00
 Coeff:      0.433D-01 0.957D+00
 Gap=     0.036 Goal=   None    Shift=    0.000
 RMSDP=4.91D-03 MaxDP=2.51D-01 DE=-7.26D-02 OVMax= 8.97D-01

 Cycle   3  Pass 1  IDiag  1:
 RMSU=  4.90D-03    CP:  1.01D+00  7.87D-01
 E= -1443.03693502160     Delta-E=        0.506402336590 Rises=F Damp=F
 DIIS: error= 4.76D-02 at cycle   3 NSaved=   3.
 NSaved= 3 IEnMin= 2 EnMin= -1443.54333735819     IErMin= 2 ErrMin= 2.20D-02
 ErrMax= 4.76D-02  0.00D+00 EMaxC= 1.00D-01 BMatC= 2.12D+00 BMatP= 3.73D-01
 IDIUse=2 WtCom= 0.00D+00 WtEn= 1.00D+00
 EnCoef did     2 forward-backward iterations
 Coeff-En:   0.234D+00 0.441D+00 0.325D+00
 Coeff:      0.234D+00 0.441D+00 0.325D+00
 Gap=     0.212 Goal=   None    Shift=    0.000
 RMSDP=7.21D-03 MaxDP=6.35D-01 DE= 5.06D-01 OVMax= 9.49D-01

 Cycle   4  Pass 1  IDiag  1:
 RMSU=  3.34D-03    CP:  1.06D+00  3.00D+00 -1.32D-02
 E= -1409.64874879827     Delta-E=       33.388186223325 Rises=F Damp=F
 DIIS: error= 3.27D-01 at cycle   4 NSaved=   4.
 NSaved= 4 IEnMin= 2 EnMin= -1443.54333735819     IErMin= 2 ErrMin= 2.20D-02
 ErrMax= 3.27D-01  0.00D+00 EMaxC= 1.00D-01 BMatC= 5.71D+01 BMatP= 3.73D-01
 IDIUse=2 WtCom= 0.00D+00 WtEn= 1.00D+00
 EnCoef did   100 forward-backward iterations
 Coeff-En:   0.513D+00 0.234D-01 0.374D+00 0.897D-01
 Coeff:      0.513D+00 0.234D-01 0.374D+00 0.897D-01
 Gap=     0.064 Goal=   None    Shift=    0.000
 RMSDP=3.78D-03 MaxDP=2.14D-01 DE= 3.34D+01 OVMax= 9.39D-01

 Cycle   5  Pass 1  IDiag  1:
 RMSU=  2.51D-03    CP:  1.06D+00  2.80D+00  5.11D-02  1.98D-01
 E= -1439.23959179429     Delta-E=      -29.590842996019 Rises=F Damp=F
 DIIS: error= 1.63D-01 at cycle   5 NSaved=   5.
 NSaved= 5 IEnMin= 2 EnMin= -1443.54333735819     IErMin= 2 ErrMin= 2.20D-02
 ErrMax= 1.63D-01  0.00D+00 EMaxC= 1.00D-01 BMatC= 1.14D+01 BMatP= 3.73D-01
 IDIUse=2 WtCom= 0.00D+00 WtEn= 1.00D+00
 EnCoef did   100 forward-backward iterations
 Coeff-En:   0.517D+00 0.112D-01 0.262D+00 0.211D-01 0.188D+00
 Coeff:      0.517D+00 0.112D-01 0.262D+00 0.211D-01 0.188D+00
 Gap=     0.014 Goal=   None    Shift=    0.000
 RMSDP=3.20D-03 MaxDP=1.02D-01 DE=-2.96D+01 OVMax= 7.02D-01

 Cycle   6  Pass 1  IDiag  1:
 RMSU=  2.18D-03    CP:  1.05D+00  2.42D+00  1.33D-01  4.06D-01  1.47D-01
 E= -1439.14281368362     Delta-E=        0.096778110667 Rises=F Damp=F
 DIIS: error= 1.69D-01 at cycle   6 NSaved=   6.
 NSaved= 6 IEnMin= 2 EnMin= -1443.54333735819     IErMin= 2 ErrMin= 2.20D-02
 ErrMax= 1.69D-01  0.00D+00 EMaxC= 1.00D-01 BMatC= 6.97D+00 BMatP= 3.73D-01
 IDIUse=2 WtCom= 0.00D+00 WtEn= 1.00D+00
 EnCoef did   100 forward-backward iterations
 Coeff-En:   0.475D+00 0.321D-02 0.263D+00 0.255D-02 0.136D+00 0.120D+00
 Coeff:      0.475D+00 0.321D-02 0.263D+00 0.255D-02 0.136D+00 0.120D+00
 Gap=     0.020 Goal=   None    Shift=    0.000
 RMSDP=2.54D-03 MaxDP=1.47D-01 DE= 9.68D-02 OVMax= 9.67D-01

 Cycle   7  Pass 1  IDiag  1:
 RMSU=  1.17D-03    CP:  1.06D+00  1.79D+00  2.05D-01  1.15D-01  4.22D-01
                    CP:  2.24D-01
 E= -1444.73544379574     Delta-E=       -5.592630112119 Rises=F Damp=F
 DIIS: error= 9.11D-03 at cycle   7 NSaved=   7.
 NSaved= 7 IEnMin= 7 EnMin= -1444.73544379574     IErMin= 7 ErrMin= 9.11D-03
 ErrMax= 9.11D-03  0.00D+00 EMaxC= 1.00D-01 BMatC= 5.38D-02 BMatP= 3.73D-01
 IDIUse=3 WtCom= 9.09D-01 WtEn= 9.11D-02
 Coeff-Com:  0.699D-01 0.129D+00 0.831D-02-0.241D-02-0.143D-01 0.229D-01
 Coeff-Com:  0.787D+00
 Coeff-En:   0.000D+00 0.000D+00 0.000D+00 0.000D+00 0.000D+00 0.000D+00
 Coeff-En:   0.100D+01
 Coeff:      0.636D-01 0.117D+00 0.755D-02-0.219D-02-0.130D-01 0.208D-01
 Coeff:      0.806D+00
 Gap=     0.092 Goal=   None    Shift=    0.000
 RMSDP=5.97D-04 MaxDP=3.11D-02 DE=-5.59D+00 OVMax= 9.83D-02

 Cycle   8  Pass 1  IDiag  1:
 RMSU=  4.75D-04    CP:  1.05D+00  1.64D+00  1.68D-01  9.56D-02  3.42D-01
                    CP:  2.81D-01  9.90D-01
 E= -1444.72005910360     Delta-E=        0.015384692140 Rises=F Damp=F
 DIIS: error= 1.22D-02 at cycle   8 NSaved=   8.
 NSaved= 8 IEnMin= 7 EnMin= -1444.73544379574     IErMin= 7 ErrMin= 9.11D-03
 ErrMax= 1.22D-02  0.00D+00 EMaxC= 1.00D-01 BMatC= 6.91D-02 BMatP= 5.38D-02
 IDIUse=2 WtCom= 0.00D+00 WtEn= 1.00D+00
 Coeff-En:   0.000D+00 0.000D+00 0.000D+00 0.000D+00 0.000D+00 0.000D+00
 Coeff-En:   0.569D+00 0.431D+00
 Coeff:      0.000D+00 0.000D+00 0.000D+00 0.000D+00 0.000D+00 0.000D+00
 Coeff:      0.569D+00 0.431D+00
 Gap=     0.026 Goal=   None    Shift=    0.000
 RMSDP=7.70D-04 MaxDP=6.61D-02 DE= 1.54D-02 OVMax= 1.04D-01

 Cycle   9  Pass 1  IDiag  1:
 RMSU=  4.00D-04    CP:  1.06D+00  1.92D+00  9.10D-02  1.45D-01  4.44D-01
                    CP:  3.24D-01  1.06D+00  6.02D-01
 E= -1444.71280376541     Delta-E=        0.007255338196 Rises=F Damp=F
 DIIS: error= 1.22D-02 at cycle   9 NSaved=   9.
 NSaved= 9 IEnMin= 7 EnMin= -1444.73544379574     IErMin= 7 ErrMin= 9.11D-03
 ErrMax= 1.22D-02  0.00D+00 EMaxC= 1.00D-01 BMatC= 7.36D-02 BMatP= 5.38D-02
 IDIUse=2 WtCom= 0.00D+00 WtEn= 1.00D+00
 EnCoef did     5 forward-backward iterations
 Coeff-En:   0.000D+00 0.000D+00 0.000D+00 0.000D+00 0.000D+00 0.000D+00
 Coeff-En:   0.379D+00 0.384D+00 0.237D+00
 Coeff:      0.000D+00 0.000D+00 0.000D+00 0.000D+00 0.000D+00 0.000D+00
 Coeff:      0.379D+00 0.384D+00 0.237D+00
 Gap=     0.083 Goal=   None    Shift=    0.000
 RMSDP=5.55D-04 MaxDP=4.88D-02 DE= 7.26D-03 OVMax= 1.13D-01

 Cycle  10  Pass 1  IDiag  1:
 RMSU=  1.61D-04    CP:  1.05D+00  1.74D+00  1.54D-01  1.11D-01  3.96D-01
                    CP:  2.60D-01  1.03D+00  4.87D-01  3.17D-01
 E= -1444.76965491206     Delta-E=       -0.056851146654 Rises=F Damp=F
 DIIS: error= 2.78D-03 at cycle  10 NSaved=  10.
 NSaved=10 IEnMin=10 EnMin= -1444.76965491206     IErMin=10 ErrMin= 2.78D-03
 ErrMax= 2.78D-03  0.00D+00 EMaxC= 1.00D-01 BMatC= 7.13D-03 BMatP= 5.38D-02
 IDIUse=3 WtCom= 9.72D-01 WtEn= 2.78D-02
 Coeff-Com: -0.198D-01 0.195D-01 0.112D-01-0.146D-03 0.928D-03-0.232D-02
 Coeff-Com:  0.149D+00 0.239D+00 0.170D+00 0.432D+00
 Coeff-En:   0.000D+00 0.000D+00 0.000D+00 0.000D+00 0.000D+00 0.000D+00
 Coeff-En:   0.000D+00 0.000D+00 0.339D-01 0.966D+00
 Coeff:     -0.192D-01 0.189D-01 0.109D-01-0.142D-03 0.902D-03-0.225D-02
 Coeff:      0.145D+00 0.233D+00 0.166D+00 0.447D+00
 Gap=     0.074 Goal=   None    Shift=    0.000
 RMSDP=1.56D-04 MaxDP=1.01D-02 DE=-5.69D-02 OVMax= 2.59D-02

 Cycle  11  Pass 1  IDiag  1:
 RMSU=  1.02D-04    CP:  1.06D+00  1.79D+00  1.56D-01  1.16D-01  4.05D-01
                    CP:  2.74D-01  1.04D+00  6.15D-01  3.55D-01  6.53D-01
 E= -1444.77475797448     Delta-E=       -0.005103062420 Rises=F Damp=F
 DIIS: error= 1.12D-03 at cycle  11 NSaved=  11.
 NSaved=11 IEnMin=11 EnMin= -1444.77475797448     IErMin=11 ErrMin= 1.12D-03
 ErrMax= 1.12D-03  0.00D+00 EMaxC= 1.00D-01 BMatC= 1.04D-03 BMatP= 7.13D-03
 IDIUse=3 WtCom= 9.89D-01 WtEn= 1.12D-02
 Coeff-Com: -0.134D-01-0.234D-02 0.702D-02 0.919D-04 0.626D-03 0.650D-03
 Coeff-Com: -0.647D-01 0.176D-01 0.199D-01 0.348D+00 0.686D+00
 Coeff-En:   0.000D+00 0.000D+00 0.000D+00 0.000D+00 0.000D+00 0.000D+00
 Coeff-En:   0.000D+00 0.000D+00 0.000D+00 0.885D-01 0.911D+00
 Coeff:     -0.133D-01-0.232D-02 0.694D-02 0.909D-04 0.619D-03 0.643D-03
 Coeff:     -0.639D-01 0.174D-01 0.197D-01 0.345D+00 0.689D+00
 Gap=     0.075 Goal=   None    Shift=    0.000
 RMSDP=1.44D-04 MaxDP=1.33D-02 DE=-5.10D-03 OVMax= 2.11D-02

 Cycle  12  Pass 1  IDiag  1:
 RMSU=  8.56D-05    CP:  1.06D+00  1.80D+00  1.58D-01  1.16D-01  4.08D-01
                    CP:  2.75D-01  1.06D+00  6.24D-01  4.09D-01  1.18D+00
                    CP:  1.66D+00
 E= -1444.77646984995     Delta-E=       -0.001711875471 Rises=F Damp=F
 DIIS: error= 1.10D-03 at cycle  12 NSaved=  12.
 NSaved=12 IEnMin=12 EnMin= -1444.77646984995     IErMin=12 ErrMin= 1.10D-03
 ErrMax= 1.10D-03  0.00D+00 EMaxC= 1.00D-01 BMatC= 6.97D-04 BMatP= 1.04D-03
 IDIUse=3 WtCom= 9.89D-01 WtEn= 1.10D-02
 Coeff-Com:  0.256D-02-0.464D-02 0.870D-02 0.915D-04-0.126D-03 0.680D-03
 Coeff-Com: -0.143D+00-0.106D+00-0.567D-01 0.578D-01 0.502D+00 0.739D+00
 Coeff-En:   0.000D+00 0.000D+00 0.000D+00 0.000D+00 0.000D+00 0.000D+00
 Coeff-En:   0.000D+00 0.000D+00 0.000D+00 0.000D+00 0.000D+00 0.100D+01
 Coeff:      0.254D-02-0.459D-02 0.861D-02 0.905D-04-0.125D-03 0.673D-03
 Coeff:     -0.142D+00-0.105D+00-0.561D-01 0.571D-01 0.496D+00 0.742D+00
 Gap=     0.075 Goal=   None    Shift=    0.000
 RMSDP=2.12D-04 MaxDP=1.97D-02 DE=-1.71D-03 OVMax= 4.33D-02

 Cycle  13  Pass 1  IDiag  1:
 RMSU=  5.60D-05    CP:  1.06D+00  1.82D+00  1.60D-01  1.18D-01  4.11D-01
                    CP:  2.79D-01  1.08D+00  6.97D-01  5.15D-01  1.76D+00
                    CP:  3.00D+00  2.03D+00
 E= -1444.77584423594     Delta-E=        0.000625614009 Rises=F Damp=F
 DIIS: error= 2.15D-03 at cycle  13 NSaved=  13.
 NSaved=13 IEnMin=12 EnMin= -1444.77646984995     IErMin=12 ErrMin= 1.10D-03
 ErrMax= 2.15D-03  0.00D+00 EMaxC= 1.00D-01 BMatC= 3.27D-03 BMatP= 6.97D-04
 IDIUse=3 WtCom= 9.89D-01 WtEn= 1.10D-02
 Coeff-Com: -0.190D-02 0.240D-02 0.110D-01-0.764D-04-0.942D-05 0.122D-02
 Coeff-Com: -0.128D+00-0.767D-01-0.467D-01 0.141D+00 0.510D+00 0.449D+00
 Coeff-Com:  0.139D+00
 Coeff-En:   0.000D+00 0.000D+00 0.000D+00 0.000D+00 0.000D+00 0.000D+00
 Coeff-En:   0.000D+00 0.000D+00 0.000D+00 0.000D+00 0.000D+00 0.756D+00
 Coeff-En:   0.244D+00
 Coeff:     -0.188D-02 0.237D-02 0.108D-01-0.756D-04-0.931D-05 0.121D-02
 Coeff:     -0.127D+00-0.759D-01-0.462D-01 0.139D+00 0.504D+00 0.452D+00
 Coeff:      0.140D+00
 Gap=     0.073 Goal=   None    Shift=    0.000
 RMSDP=1.00D-04 MaxDP=1.01D-02 DE= 6.26D-04 OVMax= 1.85D-02

 Cycle  14  Pass 1  IDiag  1:
 RMSU=  1.39D-05    CP:  1.06D+00  1.80D+00  1.60D-01  1.16D-01  4.06D-01
                    CP:  2.76D-01  1.07D+00  6.68D-01  4.67D-01  1.55D+00
                    CP:  2.47D+00  1.45D+00  5.14D-01
 E= -1444.77721049803     Delta-E=       -0.001366262092 Rises=F Damp=F
 DIIS: error= 8.42D-04 at cycle  14 NSaved=  14.
 NSaved=14 IEnMin=14 EnMin= -1444.77721049803     IErMin=14 ErrMin= 8.42D-04
 ErrMax= 8.42D-04  0.00D+00 EMaxC= 1.00D-01 BMatC= 5.31D-04 BMatP= 6.97D-04
 IDIUse=3 WtCom= 9.92D-01 WtEn= 8.42D-03
 Coeff-Com: -0.542D-02 0.119D-01 0.488D-02-0.102D-03 0.117D-02 0.150D-03
 Coeff-Com: -0.465D-01-0.180D-01-0.194D-01 0.338D-01 0.572D-01-0.980D+00
 Coeff-Com: -0.641D+00 0.260D+01
 Coeff-En:   0.000D+00 0.000D+00 0.000D+00 0.000D+00 0.000D+00 0.000D+00
 Coeff-En:   0.000D+00 0.000D+00 0.000D+00 0.000D+00 0.000D+00 0.000D+00
 Coeff-En:   0.000D+00 0.100D+01
 Coeff:     -0.537D-02 0.118D-01 0.484D-02-0.101D-03 0.116D-02 0.149D-03
 Coeff:     -0.461D-01-0.179D-01-0.193D-01 0.335D-01 0.567D-01-0.972D+00
[...]
  95         V                 0.447049          2.096890
  96         V                 0.464462          1.268112
  97         V                 0.474166          1.389189
  98         V                 0.488713          1.368527
  99         V                 0.506284          1.665117
 100         V                 0.532318          3.043813
 101         V                 0.537675          1.426394
 102         V                 0.547595          1.838256
 103         V                 0.552072          1.521142
 104         V                 0.559218          1.693692
 105         V                 0.576133          1.526779
 106         V                 0.583670          2.107438
 107         V                 0.586054          1.710851
 108         V                 0.595652          1.765072
 109         V                 0.599582          2.539019
 110         V                 0.608924          1.985545
 111         V                 0.616818          2.103520
 112         V                 0.618401          2.276142
 113         V                 0.630702          1.425389
 114         V                 0.648412          1.543350
 115         V                 0.671010          1.534015
 116         V                 0.674160          1.423173
 117         V                 0.684247          1.926192
 118         V                 0.689248          1.538354
 119         V                 0.710379          1.574563
 120         V                 0.720190          2.895733
 121         V                 0.727609          1.795136
 122         V                 0.734903          1.712412
 123         V                 0.747530          2.118191
 124         V                 0.770319          1.828881
 125         V                 0.774546          1.647509
 126         V                 0.786915          1.547202
 127         V                 0.815086          1.971166
 128         V                 0.826613          2.001457
 129         V                 0.849251          1.777117
 130         V                 0.860055          1.930021
 131         V                 0.883189          1.682727
 132         V                 0.889224          1.580795
 133         V                 0.906474          2.085832
 134         V                 0.914869          2.024725
 135         V                 0.925217          1.950623
 136         V                 0.973826          1.938625
 137         V                 0.983807          2.194834
 138         V                 0.993122          3.032297
 139         V                 1.031800          2.518815
 140         V                 1.040945          2.469947
 141         V                 1.045152          2.799082
 142         V                 1.083554          2.833476
 143         V                 1.106194          2.314989
 144         V                 1.124592          2.308999
 145         V                 1.170982          2.843249
 146         V                 1.191172          2.241632
 147         V                 1.206193          2.419771
 148         V                 1.217034          3.097437
 149         V                 1.234786          2.994772
 150         V                 1.246743          2.667922
 151         V                 1.260741          2.992699
 152         V                 1.268327          2.666691
 153         V                 1.292503          3.055836
 154         V                 1.295958          2.646799
 155         V                 1.297561          3.039534
 156         V                 1.307394          2.654804
 157         V                 1.324991          2.762911
 158         V                 1.368160          2.635334
 159         V                 1.388607          3.054494
 160         V                 1.394880          3.361932
 161         V                 1.405753          3.519791
 162         V                 1.424856          2.987808
 163         V                 1.431069          3.016942
 164         V                 1.458950          2.532645
 165         V                 1.465354          2.579717
 166         V                 1.468211          2.912960
 167         V                 1.477203          2.568545
 168         V                 1.501960          2.948378
 169         V                 1.507214          2.645039
 170         V                 1.527630          2.709606
 171         V                 1.532251          2.965191
 172         V                 1.569843          2.673307
 173         V                 1.591368          3.009550
 174         V                 1.605710          3.066543
 175         V                 1.636093          2.863141
 176         V                 1.647990          2.899343
 177         V                 1.665879          3.086083
 178         V                 1.682475          2.928664
 179         V                 1.700218          3.389274
 180         V                 1.711880          3.370055
 181         V                 1.713786          3.415479
 182         V                 1.715833          3.601005
 183         V                 1.722134          3.430311
 184         V                 1.725962          3.490161
 185         V                 1.761715          3.375226
 186         V                 1.769057          3.394393
 187         V                 1.783563          3.444963
 188         V                 1.795168          3.241645
 189         V                 1.824238          3.276757
 190         V                 1.827200          3.378468
 191         V                 1.835642          3.417284
 192         V                 1.854242          3.561066
 193         V                 1.883471          3.361147
 194         V                 1.889170          3.447988
 195         V                 1.920584          3.250537
 196         V                 1.941424          3.200034
 197         V                 1.950988          3.168987
 198         V                 1.956970          3.322800
 199         V                 1.992757          3.275130
 200         V                 2.000916          3.270911
 201         V                 2.033004          3.467682
 202         V                 2.042678          3.664250
 203         V                 2.059286          3.529153
 204         V                 2.104877          3.816870
 205         V                 2.154190          3.612065
 206         V                 2.158216          4.021676
 207         V                 2.171909          3.771656
 208         V                 2.178014          3.862352
 209         V                 2.210891          3.916100
 210         V                 2.221216          3.788086
 211         V                 2.231981          3.711027
 212         V                 2.244457          3.933779
 213         V                 2.262564          3.846554
 214         V                 2.295904          4.031835
 215         V                 2.299980          4.003381
 216         V                 2.305131          3.593912
 217         V                 2.312889          3.527509
 218         V                 2.359912          4.100130
 219         V                 2.388852          4.622934
 220         V                 2.397473          4.217115
 221         V                 2.401382          4.085285
 222         V                 2.413236          4.560080
 223         V                 2.427899          4.440928
 224         V                 2.448157          5.130981
 225         V                 2.492163          4.812912
 226         V                 2.504068          4.590442
 227         V                 2.521068          4.955331
 228         V                 2.541989          4.751510
 229         V                 2.566064          4.997496
 230         V                 2.569125          5.360702
 231         V                 2.578188          4.549638
 232         V                 2.590642          4.557167
 233         V                 2.609527          5.042285
 234         V                 2.624704          4.707720
 235         V                 2.642409          4.810097
 236         V                 2.665657          4.775573
 237         V                 2.739180          6.725967
 238         V                 2.750143          6.159749
 239         V                 2.758773          6.516814
 240         V                 2.766491          6.410490
 241         V                 2.792785          5.842721
 242         V                 2.813048          5.889953
 243         V                 2.876639          6.292282
 244         V                 2.893988          6.533271
 245         V                 2.901188          6.739680
 246         V                 2.928692          6.186882
 247         V                 2.949179          5.840975
 248         V                 2.965772          6.427734
 249         V                 3.025616          7.116499
 250         V                 3.057827          6.686726
 251         V                 3.059743          6.508397
 252         V                 3.087281          6.970681
 253         V                 3.125426          6.801629
 254         V                 3.140339          6.643435
 255         V                 3.160910          6.904496
 256         V                 3.170641          6.679423
 257         V                 3.219146          7.016302
 258         V                 3.255315          7.669625
 259         V                 3.277749          7.932529
 260         V                 3.332298          7.815875
 261         V                 3.490679          8.528619
 262         V                 3.571461          8.785139
 263         V                 3.585794          8.487232
 264         V                 3.614530          8.101895
 265         V                 3.809325          6.875394
 266         V                 3.816013          7.377517
 267         V                 3.828281          6.673750
 268         V                 3.834581          6.747230
 269         V                 3.884580          8.858976
 270         V                 3.893036          8.625714
 271         V                 3.946386          9.032130
 272         V                 3.987722          9.507094
 273         V                 4.079280          8.496318
 274         V                 4.109456          9.354038
 275         V                 4.144159          8.491337
 276         V                 4.160539          9.209309
 277         V                 4.265510          9.661397
 278         V                 4.313175          9.292372
 279         V                 4.373902          9.280749
 280         V                 5.132203          6.444600
 281         V                 5.133193          6.443558
 282         V                 5.139651          6.453213
 283         V                 5.141863          6.454105
 284         V                 5.143676          6.456053
 285         V                 5.144452          6.466596
 286         V                 5.151843          6.461517
 287         V                 5.152746          6.462807
 288         V                 5.158132          6.487669
 289         V                 5.159392          6.484143
 290         V                 5.165484          6.495560
 291         V                 5.166220          6.489596
 292         V                 5.187123          6.767711
 293         V                 5.191281          6.722027
 294         V                 5.195153          6.591875
 295         V                 5.200546          6.436484
 296         V                 5.202342          6.609559
 297         V                 5.212810          6.565512
 298         V                 5.216647          6.482374
 299         V                 5.219695          6.670460
 300         V                 5.225672          6.609794
 301         V                 5.232199          6.800870
 302         V                 5.238034          6.854642
 303         V                 5.240334          6.699005
 304         V                 5.254082          6.934006
 305         V                 5.261145          6.789830
 306         V                 5.286299          6.844130
 307         V                 5.290091          6.925200
 308         V                 5.307121          6.926502
 309         V                 5.316597          6.894106
 310         V                 5.323742          6.931549
 311         V                 5.342358          7.117450
 312         V                 5.367391          6.971555
 313         V                 5.384572          7.241935
 314         V                 5.408130          7.213868
 315         V                 5.420389          7.381713
 316         V                 5.429577          7.307929
 317         V                 5.440174          7.010126
 318         V                 5.464556          6.998923
 319         V                 5.477189          7.422414
 320         V                 5.480478          7.027262
 321         V                 5.486092          7.073934
 322         V                 5.514792          7.034745
 323         V                 5.542067          7.628734
 324         V                 5.593536          7.263840
 325         V                 5.616917          7.352030
 326         V                 5.664773          7.387373
 327         V                 5.720807          7.688387
 328         V                 5.737205          8.645226
 329         V                 5.746567          7.576823
 330         V                 5.761515          8.141489
 331         V                 5.851029          7.784340
 332         V                 6.132031         10.898944
 333         V                 6.215526          8.917384
 334         V                 6.228624          8.964869
 335         V                 6.259943          9.137315
 336         V                 6.265751          9.174460
 337         V                 6.304682          9.203311
 338         V                 6.311519          9.200434
 339         V                 6.314135          9.248147
 340         V                 6.320798          9.338056
 341         V                 6.346350          9.368524
 342         V                 6.362924          9.420434
 343         V                 6.367802          9.355415
 344         V                 6.375407          9.378425
 345         V                 6.380113          9.362557
 346         V                 6.391314          9.406820
 347         V                 6.441510          9.443573
 348         V                 6.446060          9.413598
 349         V                 6.478863          9.477615
 350         V                 6.488094          9.533993
 351         V                 6.556150          9.685180
 352         V                 6.564090          9.578346
 353         V                 6.580147          9.692427
 354         V                 6.602228          9.666881
 355         V                 6.605320          9.626420
 356         V                 6.629936          9.970954
 357         V                 6.633052          9.385846
 358         V                 6.680124          9.409455
 359         V                 6.706403          9.942176
 360         V                 6.743883          9.695473
 361         V                 6.760761          9.938916
 362         V                 6.790971          9.763361
 363         V                 6.803811          9.765393
 364         V                 6.814151         10.176861
 365         V                 6.841162         10.065277
 366         V                 6.868700         10.049065
 367         V                 6.943440         10.286307
 368         V                 6.949844         10.039969
 369         V                 6.958720         10.368215
 370         V                 6.967507         10.449490
 371         V                 6.996322         10.317924
 372         V                 7.033132         10.006466
 373         V                 7.058262          9.833695
 374         V                 7.091399         10.337348
 375         V                 7.097760          9.964789
 376         V                 7.222130         10.706176
 377         V                 7.526262         13.367131
 378         V                 7.582459         13.550401
 379         V                 7.589231         13.699729
 380         V                 8.329080         15.799605
 381         V                 8.348895         15.808991
 382         V                 8.536782         15.890379
 383         V                 8.807432         16.159051
 384         V                 9.095251         16.364800
 385         V                 9.336493         27.363346
 386         V                 9.539912         27.257889
 387         V                 9.571601         27.338450
 388         V                22.724012         38.952045
 389         V                29.499052         36.102573
 390         V                29.550970         36.139691
 391         V                29.578200         36.186359
 392         V                43.209835        108.342185
 393         V                43.344856        108.571105
 394         V                43.387577        108.617971
 395         V                43.414459        108.626685
 396         V                43.517685        108.727813
 397         V                43.524081        108.756481
 398         V                43.581193        108.794931
 399         V                43.615830        108.833149
 400         V                54.171335         39.942015
 401         V                70.372788         84.026934
 402         V                70.400057         84.076240
 403         V                70.422047         84.117649
 404         V               142.797391        242.531475
 405         V               142.850291        242.596918
 406         V               142.890891        242.649520
 407         V               202.687005        130.057542
 408         V               626.194220       1034.494498
 Total kinetic energy from orbitals= 1.162833691318D+03
 No NMR shielding tensors so no spin-rotation constants.
 Leave Link  601 at Tue Jul  4 11:56:28 2023, MaxMem=  2147483648 cpu:               4.5 elap:               0.6
 (Enter /home/pcmt/gaussian/g16.C.01/g16/l9999.exe)

 Test job not archived.
 1\1\GINC-U-0-0\SP\RBP86\Gen\H4O8Pa1S1(1-)\ROOT\04-Jul-2023\0\\#p BP86/
 GEN Pseudo=Read GFInput GFPrint IOP(6/7=3) Symm=(Loose) Int=(UltraFine
 ) Guess=(Harris) Scf=(NoVarAcc,MaxCycle=100,conver=8)\\pa_oh4_so4-bp86
 -cosmors-deftzvp-gp.com SGP in PCM calculation\\-1,1\Pa,0,0.4198954992
 ,-0.1475377136,-0.2198168187\O,0,1.0253673119,1.3627463659,-1.56785608
 87\H,0,1.453418682,2.2270123409,-1.5314466843\O,0,-1.0867448004,1.1252
 990819,0.6075590916\H,0,-1.3585538897,2.0205696213,0.3727546083\O,0,-0
 .4196430786,-1.2257796623,-1.8581964149\H,0,-0.8548062666,-2.082875604
 4,-1.9352357839\O,0,-0.1652797728,-1.6534140144,1.1429884243\H,0,0.028
 0206055,-2.5837578661,1.3121725169\O,0,2.3250222014,0.3294675319,1.137
 8752966\O,0,2.512565318,-1.2977902693,-0.5499914886\S,0,3.3615524562,-
 0.6364384593,0.5420245876\O,0,4.4678902104,0.1053167909,-0.0468376875\
 O,0,3.7732523347,-1.6172395244,1.5367999749\\Version=ES64L-G16RevC.01\
 State=1-A\HF=-1444.7773482\RMSD=9.533e-09\Dipole=-3.2750716,0.5926671,
 -0.8238274\Quadrupole=-16.2033281,16.8333806,-0.6300525,4.5944933,-3.6
 772476,1.2395376\PG=C01 [X(H4O8Pa1S1)]\\@


 IF YOU'RE NOT PART OF THE SOLUTION,
 THEN YOU'RE PART OF THE PRECIPITATE.
 Job cpu time:       0 days  0 hours 34 minutes  0.1 seconds.
 Elapsed time:       0 days  0 hours  4 minutes 19.1 seconds.
 File lengths (MBytes):  RWF=     89 Int=      0 D2E=      0 Chk=     11 Scr=      1
 Normal termination of Gaussian 16 at Tue Jul  4 11:56:28 2023.
