

 Parallel Execution: Process Information
 ==============================================================================
 Rank   Node Name                              NodeID   MyNodeRank  NodeMaster
    0   u-0-5.local                               0          0          0
    1   u-0-5.local                               0          1         -1
    2   u-0-5.local                               1          0          1
    3   u-0-5.local                               1          1         -1
    4   u-0-5.local                               2          0          2
    5   u-0-5.local                               2          1         -1
    6   u-0-5.local                               3          0          3
    7   u-0-5.local                               3          1         -1
 ==============================================================================


May use up to 31228MB of RAM as shared memory on node 0
May use up to 31250MB of RAM as shared memory on node 1
May use up to 31250MB of RAM as shared memory on node 2
May use up to 31250MB of RAM as shared memory on node 3

 *******************************************************************************
 *                                                                             *
 *  --------------------------------                                           *
 *   Amsterdam Modeling Suite (AMS)              2022.103                      *
 *  --------------------------------                                           *
 *                                               r104886 2022-06-17            *
 *                                                                             *
 *                                                                             *
 *                              =================                              *
 *                              |               |                              *
 *                              |     A M S     |                              *
 *                              |               |                              *
 *                              =================                              *
 *                                                                             *
 *                                                                             *
 *   Online information and documentation:  https://www.scm.com/support/       *
 *   E-mail:  support@scm.com   info@scm.com                                   *
 *                                                                             *
 *   Scientific publications using AMS results must be properly referenced     *
 *   See the User Manuals (or the web site) for recommended citations          *
 *   The terms and conditions of the End User License Agreement apply to       *
 *   the use of AMS, https://www.scm.com/license-terms/                        *
 *                                                                             *
 **********************  x86_64_linux_intel / intelmpi  ************************
 
 Licensed to: Dr. Val?rie Vallet / Laboratoire PhLAM UMR 8523 / Villeneuve d'Ascq Cedex / FRANCE 2023-02-21 11:49:39
 SCM User ID: u10325
  
 AMS 2022.103  RunTime: Mar03-2023 11:05:03  ShM Nodes: 4  Procs: 8

 AMS jobname: pa_oh4_so4.SR.b3lyp.tz2p.opt-freq-B21-solvation-2
 AMS jobid  : 1600567844

 Start   directory: /home/shaaban/ams/PhD/sulfate/pa_oh4_so4/solvation/B21/
 Results directory: /home/shaaban/ams/PhD/sulfate/pa_oh4_so4/solvation/B21/pa_oh4_so4.SR.b3lyp.tz2p.opt-freq-B21-solvation-2.results/
 Scratch directory: /state/partition2/shaaban/930364.phlam-s-sakura/amstmp_pa_oh4_so4.SR.b3lyp.tz2p.opt-freq-B21-solvation-2_kid0.1600567844/


 Communication costs MPI_COMM_WORLD:      2.805 usec per message,   0.0095 usec per 8-byte item
 Communication costs for intra-node:      0.520 usec per message,   0.0024 usec per 8-byte item

 RNG seed: 1953151739 1205358767 -1763909918 298733742 452847910 152666397 201413908 548925949



                      ************************************************************************
                      *  ADF 2022.103  RunTime: Mar03-2023 11:05:03  ShM Nodes: 4  Procs: 8  *
                      ************************************************************************
  
       ***************************
       *  GEOMETRY OPTIMIZATION  *
       ***************************

Optimization Method                    Quasi Newton
Optimization Coordinates               Delocalized Coordinates
Optimize lattice                       F
 
 ------------------------------------------------------
 Convergence criteria (Hartree,Angstrom)
 ------------------------------------------------------
 Maximum gradient               0.000100000000
 Maximum rms gradient           0.000066666667
 Maximum step allowed           0.001000000000
 Maximum rms step allowed       0.000666666667
 Maximum energy change allowe   0.000014000000
 Maximum stress energy allowe   0.000500000000
 
 Initial Hessian from file: dep-adf.rkf
 
------------------------------------
Quasi-Newton Optimizer Parameters
------------------------------------
Hessian Update Method                  BFGS
Maximum number of steps                  250
First GDIIS cycle                          0
Maximum GDIIS vectors                      0
Trust radius (bohr)                        0.200000
Trust radius varies                        T
Constraints converged at all steps         T
Use projector                              T
 
 Rigid motions settings for: old optimizer
 Atomic rotations (x,y,z):     T T T
 Atomic translations (x,y,z):  T T T
 Tolerance:                   1.000000000000000E-006
 
--------
Geometry
--------
Formula: H4O8PaS
Atoms
  Index Symbol   x (angstrom)   y (angstrom)   z (angstrom)
      1     Pa     0.42033478    -0.15943210    -0.22970987       adf.R=2.200
      2      O     1.02350736     1.34752049    -1.58292299       adf.R=1.517
      3      H     1.44505709     2.21494906    -1.54511672       adf.R=1.350
      4      O    -1.05297682     1.13262710     0.62570450       adf.R=1.517
      5      H    -1.32506251     2.02945518     0.39734511       adf.R=1.350
      6      O    -0.43003503    -1.23442251    -1.86517183       adf.R=1.517
      7      H    -0.87645598    -2.08593732    -1.93994005       adf.R=1.350
      8      O    -0.16846798    -1.66420013     1.13267495       adf.R=1.517
      9      H     0.00941934    -2.60011999     1.28763878       adf.R=1.350
     10      O     2.31448778     0.33652926     1.13906044       adf.R=1.517
     11      O     2.52149514    -1.29484780    -0.54262186       adf.R=1.517
     12      S     3.36088286    -0.62330576     0.55104455       adf.R=1.792
     13      O     4.46409695     0.12461596    -0.03581851       adf.R=1.517
     14      O     3.77567385    -1.59785282     1.55062702       adf.R=1.517
 
Total System Charge            -1.00000
Bonding info available!
 
 
----------------
ADF Engine Input
----------------
 
 Basis
 Type TZ2P
 Core None
 End
 XC
 Hybrid B3LYP
 End
 Solvation
 Surf Delley
 Solv name=Water cav0=0.0 cav1=0.0067639
 Charged method=CONJ
 C-Mat POT
 SCF VAR ALL
 CSMRSP
 End
 NumericalQuality Good
 

 Title: *** (NO TITLE) ***

 QuasiNewton optimization: Reading initial Hessian from file.
 *** GO1_GOStep1 ***

 SOLVATION
-------------------------------------------

  The Delley construction of COSMO surface surface is calculated

       Division Level for Surface Triangles (NDIV)                  3
       Final Division Level for Triangles (NFDIV)                   1
       Radius of the Solvent (RSOL)                           1.93000 angstr
  Dielectric Constant (EPSL)                                 78.39000

       COSMO equation is solved iteratively-               conjugate-gradient

       Maximun of Iterations for Charges (NCIX)                  1000
       Criterion for Charge convergence (CCNV)                1.0E-08

  COSMO charges included variationally in SCF

       COSMO included at every SCF cycle

  Geometry-dependent empirical factor                         0.00000

  C-Matrix calculated in cspmtx

  In cspmtx, C-Matrix calculated using fitted potential

-------------------------------------------



 -------------------------------------------
  COSMO surface
  Area             =          614.825
  Volume           =         1057.946
  Number of Points =         1644
 -------------------------------------------



 ======================
 RI Hartree-Fock Scheme
 ======================
  
 Fit Set Quality     : GOOD
 Threshold Quality   : GOOD
 Integration Quality : GOOD
 Response Quality    : DEFAULT
 Is Range Separated  :  F
 
 RIHartreeFock Dependency: number of modified vectors:           5
 cosmo_calcen: 0.5 (esolb+esolc) (Hartrees) =   -0.122473

 Solvation energy (screening term,uncorrected) =    -76.853065 kcal/mol

 Solvation energy (dispersion and cavitation terms) =      1.149676 kcal/mol
 Solvation Energy Contributions (Hartrees)
          esola   esolb+esolc
     0.12247314   -0.24494628
 esol last cycle   -0.12247314
  
 Hartree-Fock exchange energy:   -559.065059763419     
 cosmo_calcen: 0.5 (esolb+esolc) (Hartrees) =   -0.122473

 Solvation energy (screening term,uncorrected) =    -76.853060 kcal/mol

 Solvation energy (dispersion and cavitation terms) =      1.149676 kcal/mol
 Solvation Energy Contributions (Hartrees)
          esola   esolb+esolc
     0.12247313   -0.24494627
 esol last cycle   -0.12247313

 Energy gradients wrt nuclear displacements
 ==========================================

     Atom      Cartesian (a.u./angstrom)
                 X         Y         Z
 ----------------------------------------
     1 Pa    0.000015 -0.000050 -0.000014
     2 O     0.000012 -0.000063 -0.000032
     3 H     0.000021 -0.000014 -0.000021
     4 O     0.000005  0.000007 -0.000022
     5 H    -0.000010  0.000015 -0.000079
     6 O     0.000022 -0.000018  0.000022
     7 H     0.000021 -0.000041 -0.000010
     8 O    -0.000005  0.000068 -0.000044
     9 H    -0.000016  0.000010  0.000021
    10 O    -0.000049 -0.000004 -0.000035
    11 O    -0.000020  0.000045  0.000088
    12 S    -0.000027  0.000011  0.000027
    13 O     0.000018  0.000004  0.000041
    14 O     0.000011  0.000030  0.000060
 ----------------------------------------
 Mulliken charges used for AMS results%charges...
 
----------------------------------------------------------------------
Geometry Convergence after Step   1       (Hartree/Angstrom,Angstrom)
----------------------------------------------------------------------
current energy                               -4.18304275 Hartree
energy change                      -4.18304275     0.00001400    F
constrained gradient max            0.00005304     0.00010000    T
constrained gradient rms            0.00002345     0.00006667    T
gradient max                        0.00005304
gradient rms                        0.00002345
cart. step max                      0.05738978     0.00100000    F
cart. step rms                      0.02326375     0.00066667    F
 
 
--------
Geometry
--------
Formula: H4O8PaS
Atoms
  Index Symbol   x (angstrom)   y (angstrom)   z (angstrom)
      1     Pa     0.41929354    -0.13911557    -0.21149096       adf.R=2.200
      2      O     1.02494080     1.37359665    -1.55559924       adf.R=1.517
      3      H     1.45639896     2.23635006    -1.52545792       adf.R=1.350
      4      O    -1.10477564     1.12367917     0.60013505       adf.R=1.517
      5      H    -1.38245229     2.01436225     0.35493203       adf.R=1.350
      6      O    -0.40845447    -1.22140823    -1.85304118       adf.R=1.517
      7      H    -0.83430288    -2.08307809    -1.93129713       adf.R=1.350
      8      O    -0.16574942    -1.64537987     1.15101246       adf.R=1.517
      9      H     0.03426144    -2.57347274     1.32484354       adf.R=1.350
     10      O     2.33252899     0.32415012     1.13755752       adf.R=1.517
     11      O     2.50562311    -1.30012176    -0.55462736       adf.R=1.517
     12      S     3.36203823    -0.64575853     0.53532297       adf.R=1.792
     13      O     4.46964803     0.09202006    -0.05629239       adf.R=1.517
     14      O     3.77295840    -1.63024492     1.52679616       adf.R=1.517
 
Total System Charge            -1.00000
Bonding info available!
 
 *** GO1_GOStep2 ***

 SOLVATION
-------------------------------------------

  The Delley construction of COSMO surface surface is calculated

       Division Level for Surface Triangles (NDIV)                  3
       Final Division Level for Triangles (NFDIV)                   1
       Radius of the Solvent (RSOL)                           1.93000 angstr
  Dielectric Constant (EPSL)                                 78.39000

       COSMO equation is solved iteratively-               conjugate-gradient

       Maximun of Iterations for Charges (NCIX)                  1000
       Criterion for Charge convergence (CCNV)                1.0E-08

  COSMO charges included variationally in SCF

       COSMO included at every SCF cycle

  Geometry-dependent empirical factor                         0.00000

  C-Matrix calculated in cspmtx

  In cspmtx, C-Matrix calculated using fitted potential

-------------------------------------------



 -------------------------------------------
  COSMO surface
  Area             =          614.924
  Volume           =         1057.575
  Number of Points =         1644
 -------------------------------------------



 ======================
 RI Hartree-Fock Scheme
 ======================
  
 Fit Set Quality     : GOOD
 Threshold Quality   : GOOD
 Integration Quality : GOOD
 Response Quality    : DEFAULT
 Is Range Separated  :  F
 
 RIHartreeFock Dependency: number of modified vectors:           5
 cosmo_calcen: 0.5 (esolb+esolc) (Hartrees) =   -0.122359

 Solvation energy (screening term,uncorrected) =    -76.781391 kcal/mol

 Solvation energy (dispersion and cavitation terms) =      1.149861 kcal/mol
 Solvation Energy Contributions (Hartrees)
          esola   esolb+esolc
     0.12235892   -0.24471784
 esol last cycle   -0.12235892
  
 Hartree-Fock exchange energy:   -559.065178812199     
 cosmo_calcen: 0.5 (esolb+esolc) (Hartrees) =   -0.122359

 Solvation energy (screening term,uncorrected) =    -76.781398 kcal/mol

 Solvation energy (dispersion and cavitation terms) =      1.149861 kcal/mol
 Solvation Energy Contributions (Hartrees)
          esola   esolb+esolc
     0.12235893   -0.24471787
 esol last cycle   -0.12235893

 Energy gradients wrt nuclear displacements
 ==========================================

     Atom      Cartesian (a.u./angstrom)
                 X         Y         Z
 ----------------------------------------
     1 Pa   -0.000008  0.000092  0.000107
     2 O    -0.000033 -0.000007  0.000112
     3 H     0.000021 -0.000030 -0.000110
     4 O     0.000091  0.000048  0.000036
     5 H    -0.000044 -0.000009 -0.000091
     6 O     0.000152 -0.000007 -0.000027
     7 H    -0.000007 -0.000060  0.000022
     8 O    -0.000042  0.000171 -0.000054
     9 H    -0.000002 -0.000034  0.000004
    10 O    -0.000195 -0.000020  0.000015
    11 O     0.000008  0.000071 -0.000043
    12 S     0.000090 -0.000306 -0.000039
    13 O    -0.000029  0.000012 -0.000039
    14 O    -0.000004  0.000080  0.000105
 ----------------------------------------
 Mulliken charges used for AMS results%charges...

 dE(predicted):    -0.18711E-05, dE(actual):    -0.50019E-04, Trust radius:    0.400000, all in a.u.
 
----------------------------------------------------------------------
Geometry Convergence after Step   2       (Hartree/Angstrom,Angstrom)
----------------------------------------------------------------------
current energy                               -4.18309277 Hartree
energy change                      -0.00005002     0.00001400    F
constrained gradient max            0.00030067     0.00010000    F
constrained gradient rms            0.00008304     0.00006667    F
gradient max                        0.00030067
gradient rms                        0.00008304
cart. step max                      0.03042653     0.00100000    F
cart. step rms                      0.01279575     0.00066667    F
 
 
--------
Geometry
--------
Formula: H4O8PaS
Atoms
  Index Symbol   x (angstrom)   y (angstrom)   z (angstrom)
      1     Pa     0.42032092    -0.15084873    -0.22254101       adf.R=2.200
      2      O     1.02541956     1.35901880    -1.57126049       adf.R=1.517
      3      H     1.45270473     2.22366440    -1.53468259       adf.R=1.350
      4      O    -1.07863497     1.12622463     0.61153980       adf.R=1.517
      5      H    -1.35202576     2.02125419     0.37771620       adf.R=1.350
      6      O    -0.42332536    -1.22694040    -1.86042316       adf.R=1.517
      7      H    -0.86333558    -2.08168879    -1.93618541       adf.R=1.350
      8      O    -0.16547431    -1.65652633     1.14030744       adf.R=1.517
      9      H     0.02550363    -2.58792044     1.30642091       adf.R=1.350
     10      O     2.32295792     0.33206998     1.13789663       adf.R=1.517
     11      O     2.51501989    -1.29723599    -0.54768732       adf.R=1.517
     12      S     3.36165670    -0.63302253     0.54461089       adf.R=1.792
     13      O     4.46759724     0.10950291    -0.04402292       adf.R=1.517
     14      O     3.77357220    -1.61197308     1.54110456       adf.R=1.517
 
Total System Charge            -1.00000
Bonding info available!
 
 *** GO1_GOStep3 ***

 SOLVATION
-------------------------------------------

  The Delley construction of COSMO surface surface is calculated

       Division Level for Surface Triangles (NDIV)                  3
       Final Division Level for Triangles (NFDIV)                   1
       Radius of the Solvent (RSOL)                           1.93000 angstr
  Dielectric Constant (EPSL)                                 78.39000

       COSMO equation is solved iteratively-               conjugate-gradient

       Maximun of Iterations for Charges (NCIX)                  1000
       Criterion for Charge convergence (CCNV)                1.0E-08

  COSMO charges included variationally in SCF

       COSMO included at every SCF cycle

  Geometry-dependent empirical factor                         0.00000

  C-Matrix calculated in cspmtx

  In cspmtx, C-Matrix calculated using fitted potential

-------------------------------------------



 -------------------------------------------
  COSMO surface
  Area             =          615.096
  Volume           =         1058.252
  Number of Points =         1646
 -------------------------------------------



 ======================
 RI Hartree-Fock Scheme
 ======================
  
 Fit Set Quality     : GOOD
 Threshold Quality   : GOOD
 Integration Quality : GOOD
 Response Quality    : DEFAULT
 Is Range Separated  :  F
 
 RIHartreeFock Dependency: number of modified vectors:           5
 cosmo_calcen: 0.5 (esolb+esolc) (Hartrees) =   -0.122310

 Solvation energy (screening term,uncorrected) =    -76.750436 kcal/mol

 Solvation energy (dispersion and cavitation terms) =      1.150183 kcal/mol
 Solvation Energy Contributions (Hartrees)
          esola   esolb+esolc
     0.12230959   -0.24461919
 esol last cycle   -0.12230959
  
 Hartree-Fock exchange energy:   -559.065038890796     
 cosmo_calcen: 0.5 (esolb+esolc) (Hartrees) =   -0.122310

 Solvation energy (screening term,uncorrected) =    -76.750447 kcal/mol

 Solvation energy (dispersion and cavitation terms) =      1.150183 kcal/mol
 Solvation Energy Contributions (Hartrees)
          esola   esolb+esolc
     0.12230961   -0.24461922
 esol last cycle   -0.12230961

 Energy gradients wrt nuclear displacements
 ==========================================

     Atom      Cartesian (a.u./angstrom)
                 X         Y         Z
 ----------------------------------------
     1 Pa   -0.000035 -0.000069 -0.000044
     2 O     0.000013 -0.000015 -0.000003
     3 H     0.000021 -0.000010 -0.000027
     4 O     0.000020  0.000012 -0.000053
     5 H    -0.000011 -0.000004 -0.000062
     6 O     0.000021 -0.000013 -0.000014
     7 H     0.000007 -0.000026  0.000007
     8 O    -0.000022  0.000022  0.000013
     9 H    -0.000017  0.000013  0.000016
    10 O     0.000005  0.000092  0.000053
    11 O     0.000004 -0.000008  0.000029
    12 S     0.000002 -0.000024  0.000014
    13 O     0.000016  0.000006  0.000023
    14 O    -0.000025  0.000024  0.000048
 ----------------------------------------
 Mulliken charges used for AMS results%charges...

 dE(predicted):    -0.29893E-05, dE(actual):     0.36406E-04, Trust radius:    0.023784, all in a.u.
 
----------------------------------------------------------------------
Geometry Convergence after Step   3       (Hartree/Angstrom,Angstrom)
----------------------------------------------------------------------
current energy                               -4.18305636 Hartree
energy change                       0.00003641     0.00001400    F
constrained gradient max            0.00007574     0.00010000    T
constrained gradient rms            0.00002151     0.00006667    T
gradient max                        0.00007574
gradient rms                        0.00002151
cart. step max                      0.00625391     0.00100000    F
cart. step rms                      0.00255493     0.00066667    F
 
 
--------
Geometry
--------
Formula: H4O8PaS
Atoms
  Index Symbol   x (angstrom)   y (angstrom)   z (angstrom)
      1     Pa     0.42001243    -0.14844234    -0.22058818       adf.R=2.200
      2      O     1.02545713     1.36180025    -1.56869200       adf.R=1.517
      3      H     1.45388411     2.22588378    -1.53234002       adf.R=1.350
      4      O    -1.08488888     1.12523514     0.60847562       adf.R=1.517
      5      H    -1.35724729     2.02038608     0.37386541       adf.R=1.350
      6      O    -0.42104599    -1.22571031    -1.85888560       adf.R=1.517
      7      H    -0.85776665    -2.08205069    -1.93556045       adf.R=1.350
      8      O    -0.16508772    -1.65438052     1.14220901       adf.R=1.517
      9      H     0.02837941    -2.58479120     1.31087541       adf.R=1.350
     10      O     2.32452825     0.33038871     1.13776772       adf.R=1.517
     11      O     2.51317584    -1.29766555    -0.54927821       adf.R=1.517
     12      S     3.36154300    -0.63551580     0.54280035       adf.R=1.792
     13      O     4.46791711     0.10620475    -0.04603339       adf.R=1.517
     14      O     3.77309604    -1.61576367     1.53817786       adf.R=1.517
 
Total System Charge            -1.00000
Bonding info available!
 
 *** GO1_GOStep4 ***

 SOLVATION
-------------------------------------------

  The Delley construction of COSMO surface surface is calculated

       Division Level for Surface Triangles (NDIV)                  3
       Final Division Level for Triangles (NFDIV)                   1
       Radius of the Solvent (RSOL)                           1.93000 angstr
  Dielectric Constant (EPSL)                                 78.39000

       COSMO equation is solved iteratively-               conjugate-gradient

       Maximun of Iterations for Charges (NCIX)                  1000
       Criterion for Charge convergence (CCNV)                1.0E-08

  COSMO charges included variationally in SCF

       COSMO included at every SCF cycle

  Geometry-dependent empirical factor                         0.00000

  C-Matrix calculated in cspmtx

  In cspmtx, C-Matrix calculated using fitted potential

-------------------------------------------



 -------------------------------------------
  COSMO surface
  Area             =          614.964
  Volume           =         1058.012
  Number of Points =         1648
 -------------------------------------------



 ======================
 RI Hartree-Fock Scheme
 ======================
  
 Fit Set Quality     : GOOD
 Threshold Quality   : GOOD
 Integration Quality : GOOD
 Response Quality    : DEFAULT
 Is Range Separated  :  F
 
 RIHartreeFock Dependency: number of modified vectors:           5
 cosmo_calcen: 0.5 (esolb+esolc) (Hartrees) =   -0.122295

 Solvation energy (screening term,uncorrected) =    -76.741149 kcal/mol

 Solvation energy (dispersion and cavitation terms) =      1.149936 kcal/mol
 Solvation Energy Contributions (Hartrees)
          esola   esolb+esolc
     0.12229479   -0.24458959
 esol last cycle   -0.12229479
  
 Hartree-Fock exchange energy:   -559.065097204709     
 cosmo_calcen: 0.5 (esolb+esolc) (Hartrees) =   -0.122295

 Solvation energy (screening term,uncorrected) =    -76.741163 kcal/mol

 Solvation energy (dispersion and cavitation terms) =      1.149936 kcal/mol
 Solvation Energy Contributions (Hartrees)
          esola   esolb+esolc
     0.12229481   -0.24458963
 esol last cycle   -0.12229481

 Energy gradients wrt nuclear displacements
 ==========================================

     Atom      Cartesian (a.u./angstrom)
                 X         Y         Z
 ----------------------------------------
     1 Pa   -0.000009 -0.000036 -0.000016
     2 O     0.000016 -0.000018 -0.000018
     3 H     0.000019 -0.000018 -0.000031
     4 O    -0.000002  0.000009 -0.000044
     5 H    -0.000004  0.000005 -0.000059
     6 O     0.000015 -0.000018 -0.000004
     7 H     0.000017 -0.000022  0.000004
     8 O    -0.000016  0.000022  0.000005
     9 H    -0.000013  0.000018  0.000019
    10 O    -0.000002  0.000044  0.000016
    11 O     0.000006 -0.000006  0.000030
    12 S    -0.000011  0.000002  0.000026
    13 O     0.000004 -0.000002  0.000028
    14 O    -0.000019  0.000019  0.000046
 ----------------------------------------
 Mulliken charges used for AMS results%charges...

 dE(predicted):    -0.14675E-06, dE(actual):    -0.64046E-05, Trust radius:    0.047569, all in a.u.
 
----------------------------------------------------------------------
Geometry Convergence after Step   4       (Hartree/Angstrom,Angstrom)
----------------------------------------------------------------------
current energy                               -4.18306277 Hartree
energy change                      -0.00000640     0.00001400    T
constrained gradient max            0.00003404     0.00010000    T
constrained gradient rms            0.00000792     0.00006667    T
gradient max                        0.00003404
gradient rms                        0.00000792
cart. step max                      0.00296038     0.00100000    F
cart. step rms                      0.00095153     0.00066667    F
 
 
--------
Geometry
--------
Formula: H4O8PaS
Atoms
  Index Symbol   x (angstrom)   y (angstrom)   z (angstrom)
      1     Pa     0.41989550    -0.14753771    -0.21981682       adf.R=2.200
      2      O     1.02536731     1.36274637    -1.56785609       adf.R=1.517
      3      H     1.45341868     2.22701234    -1.53144668       adf.R=1.350
      4      O    -1.08674480     1.12529908     0.60755909       adf.R=1.517
      5      H    -1.35855389     2.02056962     0.37275461       adf.R=1.350
      6      O    -0.41964308    -1.22577966    -1.85819641       adf.R=1.517
      7      H    -0.85480627    -2.08287560    -1.93523578       adf.R=1.350
      8      O    -0.16527977    -1.65341401     1.14298842       adf.R=1.517
      9      H     0.02802061    -2.58375787     1.31217252       adf.R=1.350
     10      O     2.32502220     0.32946753     1.13787530       adf.R=1.517
     11      O     2.51256532    -1.29779027    -0.54999149       adf.R=1.517
     12      S     3.36155246    -0.63643846     0.54202459       adf.R=1.792
     13      O     4.46789021     0.10531679    -0.04683769       adf.R=1.517
     14      O     3.77325233    -1.61723952     1.53679997       adf.R=1.517
 
Total System Charge            -1.00000
Bonding info available!
 
 *** GO1_GOStep5 ***

 SOLVATION
-------------------------------------------

  The Delley construction of COSMO surface surface is calculated

       Division Level for Surface Triangles (NDIV)                  3
       Final Division Level for Triangles (NFDIV)                   1
       Radius of the Solvent (RSOL)                           1.93000 angstr
  Dielectric Constant (EPSL)                                 78.39000

       COSMO equation is solved iteratively-               conjugate-gradient

       Maximun of Iterations for Charges (NCIX)                  1000
       Criterion for Charge convergence (CCNV)                1.0E-08

  COSMO charges included variationally in SCF

       COSMO included at every SCF cycle

  Geometry-dependent empirical factor                         0.00000

  C-Matrix calculated in cspmtx

  In cspmtx, C-Matrix calculated using fitted potential

-------------------------------------------



 -------------------------------------------
  COSMO surface
  Area             =          614.940
  Volume           =         1057.963
  Number of Points =         1647
 -------------------------------------------



 ======================
 RI Hartree-Fock Scheme
 ======================
  
 Fit Set Quality     : GOOD
 Threshold Quality   : GOOD
 Integration Quality : GOOD
 Response Quality    : DEFAULT
 Is Range Separated  :  F
 
 RIHartreeFock Dependency: number of modified vectors:           5
 cosmo_calcen: 0.5 (esolb+esolc) (Hartrees) =   -0.122314

 Solvation energy (screening term,uncorrected) =    -76.753422 kcal/mol

 Solvation energy (dispersion and cavitation terms) =      1.149890 kcal/mol
 Solvation Energy Contributions (Hartrees)
          esola   esolb+esolc
     0.12231435   -0.24462870
 esol last cycle   -0.12231435
  
 Hartree-Fock exchange energy:   -559.065117105223     
 cosmo_calcen: 0.5 (esolb+esolc) (Hartrees) =   -0.122314

 Solvation energy (screening term,uncorrected) =    -76.753436 kcal/mol

 Solvation energy (dispersion and cavitation terms) =      1.149890 kcal/mol
 Solvation Energy Contributions (Hartrees)
          esola   esolb+esolc
     0.12231437   -0.24462874
 esol last cycle   -0.12231437

 Energy gradients wrt nuclear displacements
 ==========================================

     Atom      Cartesian (a.u./angstrom)
                 X         Y         Z
 ----------------------------------------
     1 Pa    0.000008  0.000004 -0.000013
     2 O     0.000015 -0.000022 -0.000025
     3 H     0.000016 -0.000021 -0.000030
     4 O    -0.000010  0.000010 -0.000042
     5 H    -0.000002  0.000009 -0.000057
     6 O     0.000018 -0.000027 -0.000001
     7 H     0.000020 -0.000024  0.000004
     8 O    -0.000011  0.000013  0.000007
     9 H    -0.000017  0.000023  0.000020
    10 O    -0.000012  0.000011  0.000002
    11 O     0.000003 -0.000010  0.000029
    12 S    -0.000008  0.000016  0.000030
    13 O    -0.000002 -0.000002  0.000031
    14 O    -0.000017  0.000020  0.000045
 ----------------------------------------
 Mulliken charges used for AMS results%charges...

 dE(predicted):    -0.26220E-07, dE(actual):    -0.29610E-05, Trust radius:    0.047569, all in a.u.
 
---------------------------------------------------------
Geometry Convergence after Step   5       ** CONVERGED **
---------------------------------------------------------
current energy                               -4.18306573 Hartree
energy change                      -0.00000296     0.00001400    T
constrained gradient max            0.00000792     0.00010000    T
constrained gradient rms            0.00000261     0.00006667    T
gradient max                        0.00000792
gradient rms                        0.00000261
cart. step max                      0.00086170     0.00100000    T
cart. step rms                      0.00029201     0.00066667    T
 
Geometry optimization converged

Optimized geometry:
 
--------
Geometry
--------
Formula: H4O8PaS
Atoms
  Index Symbol   x (angstrom)   y (angstrom)   z (angstrom)
      1     Pa     0.41989550    -0.14753771    -0.21981682       adf.R=2.200
      2      O     1.02536731     1.36274637    -1.56785609       adf.R=1.517
      3      H     1.45341868     2.22701234    -1.53144668       adf.R=1.350
      4      O    -1.08674480     1.12529908     0.60755909       adf.R=1.517
      5      H    -1.35855389     2.02056962     0.37275461       adf.R=1.350
      6      O    -0.41964308    -1.22577966    -1.85819641       adf.R=1.517
      7      H    -0.85480627    -2.08287560    -1.93523578       adf.R=1.350
      8      O    -0.16527977    -1.65341401     1.14298842       adf.R=1.517
      9      H     0.02802061    -2.58375787     1.31217252       adf.R=1.350
     10      O     2.32502220     0.32946753     1.13787530       adf.R=1.517
     11      O     2.51256532    -1.29779027    -0.54999149       adf.R=1.517
     12      S     3.36155246    -0.63643846     0.54202459       adf.R=1.792
     13      O     4.46789021     0.10531679    -0.04683769       adf.R=1.517
     14      O     3.77325233    -1.61723952     1.53679997       adf.R=1.517
 
Total System Charge            -1.00000
Bonding info available!
 
Performing a single point calculation on the final geometry ...

 *** adf ***



 ===========================
 A T T A C H E D   F I L E S
 ===========================
  
 Restart
 /state/partition2/shaaban/930364.phlam-s-sakura/amstmp_pa_oh4_so4.SR.b3lyp.tz2p
 .opt-freq-B21-solvation-2_kid0.1600567844/GO1_GOStep5.rkf*** GO1_GOStep5 ***



 ===============================
 M O D E L   P A R A M E T E R S
 ===============================
  
 DENSITY FUNCTIONAL POTENTIAL (scf)
    Hybrid:                            B3LYP                                   == Not Default ==

 SPIN  (restricted / unrestr.)
    Molecule:                          Restricted                               
    Fragments:                         Restricted                               

 OTHER ASPECTS
    Relativistic Corrections:          scalar (ZORA,MAPA)                       

    Nuclear Charge Density Model:      Point Charge Nuclei                      
    Core Treatment:                    Frozen Orbital(s)                        

    Hyperfine or Zeeman Interaction:   ---                                      

 SOLVATION
-------------------------------------------

  The Delley construction of COSMO surface surface is calculated

       Division Level for Surface Triangles (NDIV)                  3
       Final Division Level for Triangles (NFDIV)                   1
       Radius of the Solvent (RSOL)                           1.93000 angstr
  Dielectric Constant (EPSL)                                 78.39000

       COSMO equation is solved iteratively-               conjugate-gradient

       Maximun of Iterations for Charges (NCIX)                  1000
       Criterion for Charge convergence (CCNV)                1.0E-08

  COSMO charges included variationally in SCF

       COSMO included at every SCF cycle

  Geometry-dependent empirical factor                         0.00000

  C-Matrix calculated in cspmtx

  In cspmtx, C-Matrix calculated using fitted potential

-------------------------------------------




 ===============
 G E O M E T R Y  ***  3D  Molecule  ***
 ===============
  

 ATOMS
 =====                            X Y Z                    CHARGE                     RADIUS
                                (Angstrom)             Nucl     +Core       At.Mass (Angstrom)
                       --------------------------    ----------------       ------- ----------
    1  Pa              0.4199   -0.1475   -0.2198     91.00     91.00      231.0359    2.2000
    2  O               1.0254    1.3627   -1.5679      8.00      8.00       15.9949    1.5170
    3  H               1.4534    2.2270   -1.5314      1.00      1.00        1.0078    1.3500
    4  O              -1.0867    1.1253    0.6076      8.00      8.00       15.9949    1.5170
    5  H              -1.3586    2.0206    0.3728      1.00      1.00        1.0078    1.3500
    6  O              -0.4196   -1.2258   -1.8582      8.00      8.00       15.9949    1.5170
    7  H              -0.8548   -2.0829   -1.9352      1.00      1.00        1.0078    1.3500
    8  O              -0.1653   -1.6534    1.1430      8.00      8.00       15.9949    1.5170
    9  H               0.0280   -2.5838    1.3122      1.00      1.00        1.0078    1.3500
   10  O               2.3250    0.3295    1.1379      8.00      8.00       15.9949    1.5170
   11  O               2.5126   -1.2978   -0.5500      8.00      8.00       15.9949    1.5170
   12  S               3.3616   -0.6364    0.5420     16.00     16.00       31.9721    1.7920
   13  O               4.4679    0.1053   -0.0468      8.00      8.00       15.9949    1.5170
   14  O               3.7733   -1.6172    1.5368      8.00      8.00       15.9949    1.5170


 FRAGMENTS
 =========                                     Atoms in this Fragment     Cart. coord.s (Angstrom)
                                               -------------------------------------------------------
    1  Pa                                                1  Pa           0.4199   -0.1475   -0.2198
    2  O                                                 2  O            1.0254    1.3627   -1.5679
    3  O                                                 4  O           -1.0867    1.1253    0.6076
    4  O                                                 6  O           -0.4196   -1.2258   -1.8582
    5  O                                                 8  O           -0.1653   -1.6534    1.1430
    6  O                                                10  O            2.3250    0.3295    1.1379
    7  O                                                11  O            2.5126   -1.2978   -0.5500
    8  O                                                13  O            4.4679    0.1053   -0.0468
    9  O                                                14  O            3.7733   -1.6172    1.5368
   10  H                                                 3  H            1.4534    2.2270   -1.5314
   11  H                                                 5  H           -1.3586    2.0206    0.3728
   12  H                                                 7  H           -0.8548   -2.0829   -1.9352
   13  H                                                 9  H            0.0280   -2.5838    1.3122
   14  S                                                12  S            3.3616   -0.6364    0.5420


 Interatomic Distance Matrix (Angstrom)
 --------------------------------------

   1)     0.000
   2)     2.113   0.000
   3)     2.903   0.965   0.000
   4)     2.139   3.041   3.499   0.000
   5)     2.866   3.144   3.402   0.965   0.000
   6)     2.133   2.979   3.942   3.472   4.049   0.000
   7)     2.883   3.942   4.906   4.100   4.735   0.964   0.000
   8)     2.114   4.227   4.983   2.976   3.939   3.042   3.184   0.000
   9)     2.904   4.986   5.767   3.937   4.899   3.478   3.402   0.965   0.000
  10)     2.388   3.175   3.389   3.543   4.125   4.351   5.037   3.183   3.714   0.000
  11)     2.411   3.213   3.809   4.491   5.182   3.212   3.725   3.188   3.361   2.352
          0.000
  12)     3.078   3.729   4.017   4.785   5.419   4.517   5.100   3.719   3.937   1.537
          1.533   0.000
  13)     4.060   3.968   3.974   5.685   6.147   5.380   6.057   5.097   5.366   2.459
          2.459   1.456   0.000
  14)     4.061   5.106   5.438   5.657   6.397   5.409   5.804   3.958   3.874   2.459
          2.459   1.456   2.441   0.000

 Min. Distance =    0.9643
 Max. Distance =    6.3972



 =====================================
 S Y M M E T R Y ,   E L E C T R O N S
 =====================================
  
 Symmetry: NOSYM

 Irreducible Representations, including subspecies
 -------------------------------------------------
 A

 Symmetry is NOT used when fitting density


 Configuration of Valence Electrons
 ==================================
 ( determined in the SCF procedure )

 Total:   176

 Net Charge: -1 (Nuclei minus Electrons)

 Aufbau principle for MO occupations will be applied through SCF cycle no.     150
 Thereafter, the program will assign electrons to MOs that are spatially
 similar to the occupied MOs in a "reference" cycle ("KeepOrbitals").
 The reference cycle is always the PREVIOUS cycle: it will evolve with
 the SCF procedure.
1
 ***************************************************************************************************



                                      ****************************************
                                      *  B U I L D : (Fragments, Functions)  *
                                      ****************************************
  



 =======
 S F O s  ***  (Symmetrized Fragment Orbitals)  ***
 =======
  
 SFOs are linear combinations of (valence) Fragment Orbitals (FOs), such that the SFOs transform as the
 irreducible representations of the (molecular) symmetry group. Each SFO is therefore characterized by
 an irrep of the molecule and by a few (or only one) generating FOs.
 The SFOs constitute a symmetry-adapted basis for the Fock matrix. The MO eigenvector coefficients in
 this basis provide a direct interpretation of the MOs in terms of Frontier Orbital Theory.

 The SFOs are combined with auxiliary Core Functions (CFs) to ensure orthogonalization on the (frozen)
 Core Orbitals (COs). The Core-orthogonalized SFOs (CSFOs) constitute the true Fock basis.

 The FOs, and hence also the (C)SFOs are combinations of the elementary basis functions (BAS). The basis
 functions that participate in the description of the SFOs depend on the irrep. The indices of the
 involved functions are printed below for each irrep.
 (The complete list of primitive basis functions is printed in another section)

 Total nr. of (C)SFOs (summation over all irreps) :   421

 NOTE: a (C)SFO that is defined as a combination of more than one FO is usually NOT normalized.



                                       === A ===
 Nr. of SFOs :  421
 Cartesian basis functions that participate in this irrep (total number =   485) :
      1     2     3     4     5     6     7     8     9    10
     11    12    13    14    15    16    17    20    23    26
     29    32    35    38    41    44    47    50   157    18
     21    24    27    30    33    36    39    42    45    48
     51   158    19    22    25    28    31    34    37    40
     43    46    49    52   159    53    59    65    71    77
     83    89    95   101    54    60    66    72    78    84
     90    96   102    55    61    67    73    79    85    91
     97   103    56    62    68    74    80    86    92    98
    104    57    63    69    75    81    87    93    99   105
     58    64    70    76    82    88    94   100   106   107
    117   127   137   147   108   118   128   138   148   109
    119   129   139   149   110   120   130   140   150   111
    121   131   141   151   112   122   132   142   152   113
    123   133   143   153   114   124   134   144   154   115
    125   135   145   155   116   126   136   146   156   160
    161   162   163   164   165   168   171   166   169   172
    167   170   173   174   175   176   177   178   179   180
    181   182   183   184   185   186   187   188   189   190
    191   192   193   194   195   198   201   196   199   202
    197   200   203   204   205   206   207   208   209   210
    211   212   213   214   215   216   217   218   219   220
    221   222   223   224   225   228   231   226   229   232
    227   230   233   234   235   236   237   238   239   240
    241   242   243   244   245   246   247   248   249   250
    251   252   253   254   255   258   261   256   259   262
    257   260   263   264   265   266   267   268   269   270
    271   272   273   274   275   276   277   278   279   280
    281   282   283   284   285   288   291   286   289   292
    287   290   293   294   295   296   297   298   299   300
    301   302   303   304   305   306   307   308   309   310
    311   312   313   314   315   318   321   316   319   322
    317   320   323   324   325   326   327   328   329   330
    331   332   333   334   335   336   337   338   339   340
    341   342   343   344   345   348   351   346   349   352
    347   350   353   354   355   356   357   358   359   360
    361   362   363   364   365   366   367   368   369   370
    371   372   373   374   375   378   381   376   379   382
    377   380   383   384   385   386   387   388   389   390
    391   392   393   394   395   396   397   398   399   400
    401   402   403   404   405   406   407   408   409   410
    411   412   413   414   415   416   417   418   419   420
    421   422   423   424   425   426   427   428   429   430
    431   432   433   434   435   436   437   438   439   440
    441   442   443   444   445   446   447   448   449   450
    451   458   459   460   452   455   461   464   467   453
    456   462   465   468   454   457   463   466   469   470
    471   472   473   474   475   476   477   478   479   480
    481   482   483   484   485

    SFO  (index         Fragment          Generating    Expansion in Fragment Orbitals
  indx  incl.CFs)   Occup   Orb.Energy   FragmentType  Coeff.   Orbital     on Fragment
 --------------------------------------------------------------------------------------
     1       1      2.000   -4140.144 au  Pa            1.00      1 S               1
                        ( -112659.040 eV)
     2       2      2.000    -772.390 au  Pa            1.00      2 S               1
                        (  -21017.794 eV)
     3       3      2.000    -195.003 au  Pa            1.00      3 S               1
                        (   -5306.298 eV)
     4       4      2.000     -49.664 au  Pa            1.00      4 S               1
                        (   -1351.436 eV)
     5       5      2.000     -11.057 au  Pa            1.00      5 S               1
                        (    -300.888 eV)
     6       6      2.000      -1.766 au  Pa            1.00      6 S               1
                        (     -48.049 eV)
     7       7      2.000      -0.167 au  Pa            1.00      7 S               1
                        (      -4.550 eV)
     8       8       --         0.031 au  Pa            1.00      8 S               1
                        (       0.841 eV)
     9       9       --         0.336 au  Pa            1.00      9 S               1
                        (       9.133 eV)
    10      10       --         1.674 au  Pa            1.00     10 S               1
                        (      45.549 eV)
    11      11       --         8.680 au  Pa            1.00     11 S               1
                        (     236.196 eV)
    12      12       --        46.308 au  Pa            1.00     12 S               1
                        (    1260.118 eV)
    13      13       --      1052.293 au  Pa            1.00     13 S               1
                        (   28634.347 eV)
    14      14       --      5423.866 au  Pa            1.00     14 S               1
                        (  147590.910 eV)
    15      15       --     16326.809 au  Pa            1.00     15 S               1
                        (  444275.078 eV)
    16      16       --     46434.731 au  Pa            1.00     16 S               1
                        ( 1263553.308 eV)
    17      17      2.000    -644.804 au  Pa            1.00      1 P:x             1
                        (  -17546.004 eV)
    18      18      2.000    -159.382 au  Pa            1.00      2 P:x             1
                        (   -4336.995 eV)
    19      19      2.000     -38.001 au  Pa            1.00      3 P:x             1
                        (   -1034.059 eV)
    20      20      2.000      -7.452 au  Pa            1.00      4 P:x             1
                        (    -202.774 eV)
    21      21      2.000      -0.880 au  Pa            1.00      5 P:x             1
                        (     -23.949 eV)
    22      22       --        -0.008 au  Pa            1.00      6 P:x             1
                        (      -0.215 eV)
    23      23       --         0.404 au  Pa            1.00      7 P:x             1
                        (      10.994 eV)
    24      24       --         1.850 au  Pa            1.00      8 P:x             1
                        (      50.342 eV)
    25      25       --         7.570 au  Pa            1.00      9 P:x             1
                        (     205.994 eV)
    26      26       --        35.931 au  Pa            1.00     10 P:x             1
                        (     977.731 eV)
    27      27       --       178.469 au  Pa            1.00     11 P:x             1
                        (    4856.387 eV)
    28      28       --      1509.400 au  Pa            1.00     12 P:x             1
                        (   41072.871 eV)
    29      29       --     10783.504 au  Pa            1.00     13 P:x             1
                        (  293434.082 eV)
    30      30      2.000    -644.804 au  Pa            1.00      1 P:y             1
                        (  -17546.004 eV)
    31      31      2.000    -159.382 au  Pa            1.00      2 P:y             1
                        (   -4336.995 eV)
    32      32      2.000     -38.001 au  Pa            1.00      3 P:y             1
                        (   -1034.059 eV)
    33      33      2.000      -7.452 au  Pa            1.00      4 P:y             1
                        (    -202.774 eV)
    34      34      2.000      -0.880 au  Pa            1.00      5 P:y             1
                        (     -23.949 eV)
    35      35       --        -0.008 au  Pa            1.00      6 P:y             1
                        (      -0.215 eV)
    36      36       --         0.404 au  Pa            1.00      7 P:y             1
                        (      10.994 eV)
    37      37       --         1.850 au  Pa            1.00      8 P:y             1
                        (      50.342 eV)
    38      38       --         7.570 au  Pa            1.00      9 P:y             1
                        (     205.994 eV)
    39      39       --        35.931 au  Pa            1.00     10 P:y             1
                        (     977.731 eV)
    40      40       --       178.469 au  Pa            1.00     11 P:y             1
                        (    4856.387 eV)
    41      41       --      1509.400 au  Pa            1.00     12 P:y             1
                        (   41072.871 eV)
    42      42       --     10783.504 au  Pa            1.00     13 P:y             1
                        (  293434.082 eV)
    43      43      2.000    -644.804 au  Pa            1.00      1 P:z             1
                        (  -17546.004 eV)
    44      44      2.000    -159.382 au  Pa            1.00      2 P:z             1
                        (   -4336.995 eV)
    45      45      2.000     -38.001 au  Pa            1.00      3 P:z             1
                        (   -1034.059 eV)
    46      46      2.000      -7.452 au  Pa            1.00      4 P:z             1
                        (    -202.774 eV)
    47      47      2.000      -0.880 au  Pa            1.00      5 P:z             1
                        (     -23.949 eV)
    48      48       --        -0.008 au  Pa            1.00      6 P:z             1
                        (      -0.215 eV)
    49      49       --         0.404 au  Pa            1.00      7 P:z             1
                        (      10.994 eV)
    50      50       --         1.850 au  Pa            1.00      8 P:z             1
                        (      50.342 eV)
    51      51       --         7.570 au  Pa            1.00      9 P:z             1
                        (     205.994 eV)
    52      52       --        35.931 au  Pa            1.00     10 P:z             1
                        (     977.731 eV)
    53      53       --       178.469 au  Pa            1.00     11 P:z             1
                        (    4856.387 eV)
    54      54       --      1509.400 au  Pa            1.00     12 P:z             1
                        (   41072.871 eV)
    55      55       --     10783.504 au  Pa            1.00     13 P:z             1
                        (  293434.082 eV)
    56      56      2.000    -127.750 au  Pa            1.00      1 D:z2            1
                        (   -3476.261 eV)
    57      57      2.000     -25.974 au  Pa            1.00      2 D:z2            1
                        (    -706.779 eV)
    58      58      2.000      -3.548 au  Pa            1.00      3 D:z2            1
                        (     -96.540 eV)
    59      59      0.200      -0.066 au  Pa            1.00      4 D:z2            1
                        (      -1.808 eV)
    60      60       --         0.084 au  Pa            1.00      5 D:z2            1
                        (       2.281 eV)
    61      61       --         0.569 au  Pa            1.00      6 D:z2            1
                        (      15.477 eV)
    62      62       --         3.594 au  Pa            1.00      7 D:z2            1
                        (      97.805 eV)
    63      63       --        24.986 au  Pa            1.00      8 D:z2            1
                        (     679.903 eV)
    64      64       --       204.782 au  Pa            1.00      9 D:z2            1
                        (    5572.393 eV)
    65      65      2.000    -127.750 au  Pa            1.00      1 D:x2-y2         1
                        (   -3476.261 eV)
    66      66      2.000     -25.974 au  Pa            1.00      2 D:x2-y2         1
                        (    -706.779 eV)
    67      67      2.000      -3.548 au  Pa            1.00      3 D:x2-y2         1
                        (     -96.540 eV)
    68      68      0.200      -0.066 au  Pa            1.00      4 D:x2-y2         1
                        (      -1.808 eV)
    69      69       --         0.084 au  Pa            1.00      5 D:x2-y2         1
                        (       2.281 eV)
    70      70       --         0.569 au  Pa            1.00      6 D:x2-y2         1
                        (      15.477 eV)
    71      71       --         3.594 au  Pa            1.00      7 D:x2-y2         1
                        (      97.805 eV)
    72      72       --        24.986 au  Pa            1.00      8 D:x2-y2         1
                        (     679.903 eV)
    73      73       --       204.782 au  Pa            1.00      9 D:x2-y2         1
                        (    5572.393 eV)
    74      74      2.000    -127.750 au  Pa            1.00      1 D:xy            1
                        (   -3476.261 eV)
    75      75      2.000     -25.974 au  Pa            1.00      2 D:xy            1
                        (    -706.779 eV)
    76      76      2.000      -3.548 au  Pa            1.00      3 D:xy            1
                        (     -96.540 eV)
    77      77      0.200      -0.066 au  Pa            1.00      4 D:xy            1
                        (      -1.808 eV)
    78      78       --         0.084 au  Pa            1.00      5 D:xy            1
                        (       2.281 eV)
    79      79       --         0.569 au  Pa            1.00      6 D:xy            1
                        (      15.477 eV)
    80      80       --         3.594 au  Pa            1.00      7 D:xy            1
                        (      97.805 eV)
    81      81       --        24.986 au  Pa            1.00      8 D:xy            1
                        (     679.903 eV)
    82      82       --       204.782 au  Pa            1.00      9 D:xy            1
                        (    5572.393 eV)
    83      83      2.000    -127.750 au  Pa            1.00      1 D:xz            1
                        (   -3476.261 eV)
    84      84      2.000     -25.974 au  Pa            1.00      2 D:xz            1
                        (    -706.779 eV)
    85      85      2.000      -3.548 au  Pa            1.00      3 D:xz            1
                        (     -96.540 eV)
    86      86      0.200      -0.066 au  Pa            1.00      4 D:xz            1
                        (      -1.808 eV)
    87      87       --         0.084 au  Pa            1.00      5 D:xz            1
                        (       2.281 eV)
    88      88       --         0.569 au  Pa            1.00      6 D:xz            1
                        (      15.477 eV)
    89      89       --         3.594 au  Pa            1.00      7 D:xz            1
                        (      97.805 eV)
    90      90       --        24.986 au  Pa            1.00      8 D:xz            1
                        (     679.903 eV)
    91      91       --       204.782 au  Pa            1.00      9 D:xz            1
                        (    5572.393 eV)
    92      92      2.000    -127.750 au  Pa            1.00      1 D:yz            1
                        (   -3476.261 eV)
    93      93      2.000     -25.974 au  Pa            1.00      2 D:yz            1
                        (    -706.779 eV)
    94      94      2.000      -3.548 au  Pa            1.00      3 D:yz            1
                        (     -96.540 eV)
    95      95      0.200      -0.066 au  Pa            1.00      4 D:yz            1
                        (      -1.808 eV)
    96      96       --         0.084 au  Pa            1.00      5 D:yz            1
                        (       2.281 eV)
    97      97       --         0.569 au  Pa            1.00      6 D:yz            1
                        (      15.477 eV)
    98      98       --         3.594 au  Pa            1.00      7 D:yz            1
                        (      97.805 eV)
    99      99       --        24.986 au  Pa            1.00      8 D:yz            1
                        (     679.903 eV)
   100     100       --       204.782 au  Pa            1.00      9 D:yz            1
                        (    5572.393 eV)
   101     101      2.000     -13.085 au  Pa            1.00      1 F:z3            1
                        (    -356.050 eV)
   102     102      0.286      -0.042 au  Pa            1.00      2 F:z3            1
                        (      -1.139 eV)
   103     103       --         0.419 au  Pa            1.00      3 F:z3            1
                        (      11.400 eV)
   104     104       --         2.553 au  Pa            1.00      4 F:z3            1
                        (      69.470 eV)
   105     105       --        21.603 au  Pa            1.00      5 F:z3            1
                        (     587.835 eV)
   106     106      2.000     -13.085 au  Pa            1.00      1 F:z             1
                        (    -356.050 eV)
   107     107      0.286      -0.042 au  Pa            1.00      2 F:z             1
                        (      -1.139 eV)
   108     108       --         0.419 au  Pa            1.00      3 F:z             1
                        (      11.400 eV)
   109     109       --         2.553 au  Pa            1.00      4 F:z             1
                        (      69.470 eV)
   110     110       --        21.603 au  Pa            1.00      5 F:z             1
                        (     587.835 eV)
   111     111      2.000     -13.085 au  Pa            1.00      1 F:xyz           1
                        (    -356.050 eV)
   112     112      0.286      -0.042 au  Pa            1.00      2 F:xyz           1
                        (      -1.139 eV)
   113     113       --         0.419 au  Pa            1.00      3 F:xyz           1
                        (      11.400 eV)
   114     114       --         2.553 au  Pa            1.00      4 F:xyz           1
                        (      69.470 eV)
   115     115       --        21.603 au  Pa            1.00      5 F:xyz           1
                        (     587.835 eV)
   116     116      2.000     -13.085 au  Pa            1.00      1 F:z2x           1
                        (    -356.050 eV)
   117     117      0.286      -0.042 au  Pa            1.00      2 F:z2x           1
                        (      -1.139 eV)
   118     118       --         0.419 au  Pa            1.00      3 F:z2x           1
                        (      11.400 eV)
   119     119       --         2.553 au  Pa            1.00      4 F:z2x           1
                        (      69.470 eV)
   120     120       --        21.603 au  Pa            1.00      5 F:z2x           1
                        (     587.835 eV)
   121     121      2.000     -13.085 au  Pa            1.00      1 F:z2y           1
                        (    -356.050 eV)
   122     122      0.286      -0.042 au  Pa            1.00      2 F:z2y           1
                        (      -1.139 eV)
   123     123       --         0.419 au  Pa            1.00      3 F:z2y           1
                        (      11.400 eV)
   124     124       --         2.553 au  Pa            1.00      4 F:z2y           1
                        (      69.470 eV)
   125     125       --        21.603 au  Pa            1.00      5 F:z2y           1
                        (     587.835 eV)
   126     126      2.000     -13.085 au  Pa            1.00      1 F:x             1
                        (    -356.050 eV)
   127     127      0.286      -0.042 au  Pa            1.00      2 F:x             1
                        (      -1.139 eV)
   128     128       --         0.419 au  Pa            1.00      3 F:x             1
                        (      11.400 eV)
   129     129       --         2.553 au  Pa            1.00      4 F:x             1
                        (      69.470 eV)
   130     130       --        21.603 au  Pa            1.00      5 F:x             1
                        (     587.835 eV)
   131     131      2.000     -13.085 au  Pa            1.00      1 F:y             1
                        (    -356.050 eV)
   132     132      0.286      -0.042 au  Pa            1.00      2 F:y             1
                        (      -1.139 eV)
   133     133       --         0.419 au  Pa            1.00      3 F:y             1
                        (      11.400 eV)
   134     134       --         2.553 au  Pa            1.00      4 F:y             1
                        (      69.470 eV)
   135     135       --        21.603 au  Pa            1.00      5 F:y             1
                        (     587.835 eV)
   136     136      2.000     -19.315 au  O             1.00      1 S               2
                        (    -525.599 eV)
   137     137      2.000      -0.972 au  O             1.00      2 S               2
                        (     -26.457 eV)
   138     138       --         0.838 au  O             1.00      3 S               2
                        (      22.795 eV)
   139     139       --        13.598 au  O             1.00      4 S               2
                        (     370.019 eV)
   140     140       --       122.185 au  O             1.00      5 S               2
                        (    3324.810 eV)
   141     141      1.333      -0.361 au  O             1.00      1 P:x             2
                        (      -9.818 eV)
   142     142       --         0.380 au  O             1.00      2 P:x             2
                        (      10.337 eV)
   143     143       --         3.931 au  O             1.00      3 P:x             2
                        (     106.958 eV)
   144     144      1.333      -0.361 au  O             1.00      1 P:y             2
                        (      -9.818 eV)
   145     145       --         0.380 au  O             1.00      2 P:y             2
                        (      10.337 eV)
   146     146       --         3.931 au  O             1.00      3 P:y             2
                        (     106.958 eV)
   147     147      1.333      -0.361 au  O             1.00      1 P:z             2
                        (      -9.818 eV)
   148     148       --         0.380 au  O             1.00      2 P:z             2
                        (      10.337 eV)
   149     149       --         3.931 au  O             1.00      3 P:z             2
                        (     106.958 eV)
   150     150       --         1.117 au  O             1.00      1 D:z2            2
                        (      30.399 eV)
   151     151       --         1.117 au  O             1.00      1 D:x2-y2         2
                        (      30.399 eV)
   152     152       --         1.117 au  O             1.00      1 D:xy            2
                        (      30.399 eV)
   153     153       --         1.117 au  O             1.00      1 D:xz            2
                        (      30.399 eV)
   154     154       --         1.117 au  O             1.00      1 D:yz            2
                        (      30.399 eV)
   155     155       --         3.432 au  O             1.00      1 F:z3            2
                        (      93.382 eV)
   156     156       --         3.432 au  O             1.00      1 F:z             2
                        (      93.382 eV)
   157     157       --         3.432 au  O             1.00      1 F:xyz           2
                        (      93.382 eV)
   158     158       --         3.432 au  O             1.00      1 F:z2x           2
                        (      93.382 eV)
   159     159       --         3.432 au  O             1.00      1 F:z2y           2
                        (      93.382 eV)
   160     160       --         3.432 au  O             1.00      1 F:x             2
                        (      93.382 eV)
   161     161       --         3.432 au  O             1.00      1 F:y             2
                        (      93.382 eV)
   162     162      2.000     -19.315 au  O             1.00      1 S               3
                        (    -525.599 eV)
   163     163      2.000      -0.972 au  O             1.00      2 S               3
                        (     -26.457 eV)
   164     164       --         0.838 au  O             1.00      3 S               3
                        (      22.795 eV)
   165     165       --        13.598 au  O             1.00      4 S               3
                        (     370.019 eV)
   166     166       --       122.185 au  O             1.00      5 S               3
                        (    3324.810 eV)
   167     167      1.333      -0.361 au  O             1.00      1 P:x             3
                        (      -9.818 eV)
   168     168       --         0.380 au  O             1.00      2 P:x             3
                        (      10.337 eV)
   169     169       --         3.931 au  O             1.00      3 P:x             3
                        (     106.958 eV)
   170     170      1.333      -0.361 au  O             1.00      1 P:y             3
                        (      -9.818 eV)
   171     171       --         0.380 au  O             1.00      2 P:y             3
                        (      10.337 eV)
   172     172       --         3.931 au  O             1.00      3 P:y             3
                        (     106.958 eV)
   173     173      1.333      -0.361 au  O             1.00      1 P:z             3
                        (      -9.818 eV)
   174     174       --         0.380 au  O             1.00      2 P:z             3
                        (      10.337 eV)
   175     175       --         3.931 au  O             1.00      3 P:z             3
                        (     106.958 eV)
   176     176       --         1.117 au  O             1.00      1 D:z2            3
                        (      30.399 eV)
   177     177       --         1.117 au  O             1.00      1 D:x2-y2         3
                        (      30.399 eV)
   178     178       --         1.117 au  O             1.00      1 D:xy            3
                        (      30.399 eV)
   179     179       --         1.117 au  O             1.00      1 D:xz            3
                        (      30.399 eV)
   180     180       --         1.117 au  O             1.00      1 D:yz            3
                        (      30.399 eV)
   181     181       --         3.432 au  O             1.00      1 F:z3            3
                        (      93.382 eV)
   182     182       --         3.432 au  O             1.00      1 F:z             3
                        (      93.382 eV)
   183     183       --         3.432 au  O             1.00      1 F:xyz           3
                        (      93.382 eV)
   184     184       --         3.432 au  O             1.00      1 F:z2x           3
                        (      93.382 eV)
   185     185       --         3.432 au  O             1.00      1 F:z2y           3
                        (      93.382 eV)
   186     186       --         3.432 au  O             1.00      1 F:x             3
                        (      93.382 eV)
   187     187       --         3.432 au  O             1.00      1 F:y             3
                        (      93.382 eV)
   188     188      2.000     -19.315 au  O             1.00      1 S               4
                        (    -525.599 eV)
   189     189      2.000      -0.972 au  O             1.00      2 S               4
                        (     -26.457 eV)
   190     190       --         0.838 au  O             1.00      3 S               4
                        (      22.795 eV)
   191     191       --        13.598 au  O             1.00      4 S               4
                        (     370.019 eV)
   192     192       --       122.185 au  O             1.00      5 S               4
                        (    3324.810 eV)
   193     193      1.333      -0.361 au  O             1.00      1 P:x             4
                        (      -9.818 eV)
   194     194       --         0.380 au  O             1.00      2 P:x             4
                        (      10.337 eV)
   195     195       --         3.931 au  O             1.00      3 P:x             4
                        (     106.958 eV)
   196     196      1.333      -0.361 au  O             1.00      1 P:y             4
                        (      -9.818 eV)
   197     197       --         0.380 au  O             1.00      2 P:y             4
                        (      10.337 eV)
   198     198       --         3.931 au  O             1.00      3 P:y             4
                        (     106.958 eV)
   199     199      1.333      -0.361 au  O             1.00      1 P:z             4
                        (      -9.818 eV)
   200     200       --         0.380 au  O             1.00      2 P:z             4
                        (      10.337 eV)
   201     201       --         3.931 au  O             1.00      3 P:z             4
                        (     106.958 eV)
   202     202       --         1.117 au  O             1.00      1 D:z2            4
                        (      30.399 eV)
   203     203       --         1.117 au  O             1.00      1 D:x2-y2         4
                        (      30.399 eV)
   204     204       --         1.117 au  O             1.00      1 D:xy            4
                        (      30.399 eV)
   205     205       --         1.117 au  O             1.00      1 D:xz            4
                        (      30.399 eV)
   206     206       --         1.117 au  O             1.00      1 D:yz            4
                        (      30.399 eV)
   207     207       --         3.432 au  O             1.00      1 F:z3            4
                        (      93.382 eV)
   208     208       --         3.432 au  O             1.00      1 F:z             4
                        (      93.382 eV)
   209     209       --         3.432 au  O             1.00      1 F:xyz           4
                        (      93.382 eV)
   210     210       --         3.432 au  O             1.00      1 F:z2x           4
                        (      93.382 eV)
   211     211       --         3.432 au  O             1.00      1 F:z2y           4
                        (      93.382 eV)
   212     212       --         3.432 au  O             1.00      1 F:x             4
                        (      93.382 eV)
   213     213       --         3.432 au  O             1.00      1 F:y             4
                        (      93.382 eV)
   214     214      2.000     -19.315 au  O             1.00      1 S               5
                        (    -525.599 eV)
   215     215      2.000      -0.972 au  O             1.00      2 S               5
                        (     -26.457 eV)
   216     216       --         0.838 au  O             1.00      3 S               5
                        (      22.795 eV)
   217     217       --        13.598 au  O             1.00      4 S               5
                        (     370.019 eV)
   218     218       --       122.185 au  O             1.00      5 S               5
                        (    3324.810 eV)
   219     219      1.333      -0.361 au  O             1.00      1 P:x             5
                        (      -9.818 eV)
   220     220       --         0.380 au  O             1.00      2 P:x             5
                        (      10.337 eV)
   221     221       --         3.931 au  O             1.00      3 P:x             5
                        (     106.958 eV)
   222     222      1.333      -0.361 au  O             1.00      1 P:y             5
                        (      -9.818 eV)
   223     223       --         0.380 au  O             1.00      2 P:y             5
                        (      10.337 eV)
   224     224       --         3.931 au  O             1.00      3 P:y             5
                        (     106.958 eV)
   225     225      1.333      -0.361 au  O             1.00      1 P:z             5
                        (      -9.818 eV)
   226     226       --         0.380 au  O             1.00      2 P:z             5
                        (      10.337 eV)
   227     227       --         3.931 au  O             1.00      3 P:z             5
                        (     106.958 eV)
   228     228       --         1.117 au  O             1.00      1 D:z2            5
                        (      30.399 eV)
   229     229       --         1.117 au  O             1.00      1 D:x2-y2         5
                        (      30.399 eV)
   230     230       --         1.117 au  O             1.00      1 D:xy            5
                        (      30.399 eV)
   231     231       --         1.117 au  O             1.00      1 D:xz            5
                        (      30.399 eV)
   232     232       --         1.117 au  O             1.00      1 D:yz            5
                        (      30.399 eV)
   233     233       --         3.432 au  O             1.00      1 F:z3            5
                        (      93.382 eV)
   234     234       --         3.432 au  O             1.00      1 F:z             5
                        (      93.382 eV)
   235     235       --         3.432 au  O             1.00      1 F:xyz           5
                        (      93.382 eV)
   236     236       --         3.432 au  O             1.00      1 F:z2x           5
                        (      93.382 eV)
   237     237       --         3.432 au  O             1.00      1 F:z2y           5
                        (      93.382 eV)
   238     238       --         3.432 au  O             1.00      1 F:x             5
                        (      93.382 eV)
   239     239       --         3.432 au  O             1.00      1 F:y             5
                        (      93.382 eV)
   240     240      2.000     -19.315 au  O             1.00      1 S               6
                        (    -525.599 eV)
   241     241      2.000      -0.972 au  O             1.00      2 S               6
                        (     -26.457 eV)
   242     242       --         0.838 au  O             1.00      3 S               6
                        (      22.795 eV)
   243     243       --        13.598 au  O             1.00      4 S               6
                        (     370.019 eV)
   244     244       --       122.185 au  O             1.00      5 S               6
                        (    3324.810 eV)
   245     245      1.333      -0.361 au  O             1.00      1 P:x             6
                        (      -9.818 eV)
   246     246       --         0.380 au  O             1.00      2 P:x             6
                        (      10.337 eV)
   247     247       --         3.931 au  O             1.00      3 P:x             6
                        (     106.958 eV)
   248     248      1.333      -0.361 au  O             1.00      1 P:y             6
                        (      -9.818 eV)
   249     249       --         0.380 au  O             1.00      2 P:y             6
                        (      10.337 eV)
   250     250       --         3.931 au  O             1.00      3 P:y             6
                        (     106.958 eV)
   251     251      1.333      -0.361 au  O             1.00      1 P:z             6
                        (      -9.818 eV)
   252     252       --         0.380 au  O             1.00      2 P:z             6
                        (      10.337 eV)
   253     253       --         3.931 au  O             1.00      3 P:z             6
                        (     106.958 eV)
   254     254       --         1.117 au  O             1.00      1 D:z2            6
                        (      30.399 eV)
   255     255       --         1.117 au  O             1.00      1 D:x2-y2         6
                        (      30.399 eV)
   256     256       --         1.117 au  O             1.00      1 D:xy            6
                        (      30.399 eV)
   257     257       --         1.117 au  O             1.00      1 D:xz            6
                        (      30.399 eV)
   258     258       --         1.117 au  O             1.00      1 D:yz            6
                        (      30.399 eV)
   259     259       --         3.432 au  O             1.00      1 F:z3            6
                        (      93.382 eV)
   260     260       --         3.432 au  O             1.00      1 F:z             6
                        (      93.382 eV)
   261     261       --         3.432 au  O             1.00      1 F:xyz           6
                        (      93.382 eV)
   262     262       --         3.432 au  O             1.00      1 F:z2x           6
                        (      93.382 eV)
   263     263       --         3.432 au  O             1.00      1 F:z2y           6
                        (      93.382 eV)
   264     264       --         3.432 au  O             1.00      1 F:x             6
                        (      93.382 eV)
   265     265       --         3.432 au  O             1.00      1 F:y             6
                        (      93.382 eV)
   266     266      2.000     -19.315 au  O             1.00      1 S               7
                        (    -525.599 eV)
   267     267      2.000      -0.972 au  O             1.00      2 S               7
                        (     -26.457 eV)
   268     268       --         0.838 au  O             1.00      3 S               7
                        (      22.795 eV)
   269     269       --        13.598 au  O             1.00      4 S               7
                        (     370.019 eV)
   270     270       --       122.185 au  O             1.00      5 S               7
                        (    3324.810 eV)
   271     271      1.333      -0.361 au  O             1.00      1 P:x             7
[...]
 
 Mode:    25      Frequency (cm-1):      381.2932     Intensity (km/mol):      282.6696
 Index  Atom      ---- Displacements (x/y/z) ----
     1    Pa       0.002654  -0.001505  -0.002624
     2     O       0.020961  -0.028525  -0.008440
     3     H      -0.124340   0.037156   0.204854
     4     O      -0.091168   0.019349   0.099496
     5     H       0.506036   0.003381  -0.689229
     6     O      -0.008668   0.003339  -0.028972
     7     H       0.026977  -0.039576   0.215211
     8     O      -0.010618   0.024169   0.011032
     9     H       0.219180   0.010879  -0.300248
    10     O       0.000617   0.009406  -0.017174
    11     O      -0.009719  -0.008979   0.012937
    12     S       0.005266   0.001147   0.000748
    13     O       0.005287   0.011149   0.016251
    14     O       0.004887  -0.011202  -0.012844
 
 Mode:    26      Frequency (cm-1):      393.5909     Intensity (km/mol):        4.8514
 Index  Atom      ---- Displacements (x/y/z) ----
     1    Pa       0.000666  -0.000281  -0.000695
     2     O       0.004803  -0.015224  -0.033250
     3     H       0.004204  -0.020628   0.160477
     4     O      -0.028462  -0.000179   0.028099
     5     H       0.202296   0.011942  -0.205782
     6     O      -0.003330   0.008072  -0.020447
     7     H       0.027055  -0.025740   0.158902
     8     O      -0.008391   0.016114   0.032843
     9     H       0.128777   0.006983  -0.159064
    10     O      -0.139845  -0.342079   0.308265
    11     O       0.128436   0.336403  -0.304171
    12     S       0.003381   0.000090  -0.000110
    13     O       0.038974  -0.294472  -0.303854
    14     O      -0.031400   0.296975   0.305636
 
 Mode:    27      Frequency (cm-1):      481.7935     Intensity (km/mol):       19.4195
 Index  Atom      ---- Displacements (x/y/z) ----
     1    Pa      -0.013140   0.005696   0.004861
     2     O       0.087733   0.183967  -0.145228
     3     H       0.026001   0.217987  -0.347882
     4     O       0.147061  -0.158571  -0.054022
     5     H       0.457223  -0.153846  -0.421818
     6     O       0.029470   0.042864   0.035569
     7     H       0.057318   0.005326   0.259721
     8     O      -0.038993  -0.153273   0.124798
     9     H      -0.202616  -0.162827   0.236407
    10     O      -0.099641  -0.018550  -0.070537
    11     O      -0.110775   0.050960   0.014845
    12     S      -0.022521   0.003334  -0.006297
    13     O       0.073764  -0.077401   0.087087
    14     O       0.124910   0.046952  -0.032906
 
 Mode:    28      Frequency (cm-1):      487.2907     Intensity (km/mol):      187.5382
 Index  Atom      ---- Displacements (x/y/z) ----
     1    Pa      -0.030400   0.011536   0.008982
     2     O       0.034613   0.065310  -0.059617
     3     H       0.025034   0.070592  -0.095123
     4     O       0.208980  -0.216949  -0.082613
     5     H       0.553166  -0.214474  -0.501618
     6     O       0.009631   0.010606   0.008298
     7     H       0.018599  -0.001569   0.084061
     8     O      -0.000238   0.004308  -0.004668
     9     H       0.012166   0.007141  -0.003795
    10     O       0.207427   0.048845   0.145017
    11     O       0.224037  -0.116373  -0.023955
    12     S       0.041926  -0.003988   0.011434
    13     O      -0.132995   0.148293  -0.162254
    14     O      -0.234528  -0.093989   0.059743
 
 Mode:    29      Frequency (cm-1):      491.5829     Intensity (km/mol):      204.8024
 Index  Atom      ---- Displacements (x/y/z) ----
     1    Pa       0.002877   0.015093   0.032919
     2     O      -0.003198  -0.014635   0.005975
     3     H       0.005984  -0.019854   0.046967
     4     O       0.108488  -0.106222  -0.052847
     5     H       0.185003  -0.114180  -0.181751
     6     O      -0.149899  -0.216055  -0.239160
     7     H      -0.233920  -0.116942  -0.773159
     8     O       0.034950   0.120282  -0.110983
     9     H       0.122066   0.127853  -0.158318
    10     O      -0.046125  -0.012012  -0.026620
    11     O      -0.050283   0.026686   0.007768
    12     S      -0.009980   0.001174  -0.006729
    13     O       0.031372  -0.033228   0.035477
    14     O       0.048107   0.022591  -0.014464
 
 Mode:    30      Frequency (cm-1):      527.7992     Intensity (km/mol):      413.1652
 Index  Atom      ---- Displacements (x/y/z) ----
     1    Pa       0.009975   0.040140  -0.021075
     2     O      -0.088255  -0.220870   0.147132
     3     H      -0.072822  -0.239867   0.555011
     4     O       0.041467  -0.053859  -0.011156
     5     H       0.185722  -0.047955  -0.166678
     6     O      -0.029149  -0.047596  -0.039746
     7     H      -0.060123  -0.014914  -0.200326
     8     O      -0.053569  -0.222042   0.158219
     9     H      -0.303120  -0.213703   0.461213
    10     O       0.008874   0.022364  -0.010066
    11     O       0.009506   0.019729  -0.012494
    12     S      -0.006379  -0.016481   0.013277
    13     O      -0.027213  -0.001512  -0.004679
    14     O       0.022781  -0.010526   0.009759
 
 Mode:    31      Frequency (cm-1):      563.3496     Intensity (km/mol):      120.5291
 Index  Atom      ---- Displacements (x/y/z) ----
     1    Pa       0.003046   0.011687  -0.008228
     2     O      -0.048661  -0.057504   0.034148
     3     H      -0.002052  -0.083987   0.176314
     4     O       0.016899  -0.017520  -0.009106
     5     H       0.040554  -0.013192  -0.020536
     6     O       0.004152   0.002701   0.005387
     7     H      -0.010402   0.011067  -0.001461
     8     O       0.015900  -0.043103   0.030632
     9     H      -0.117942  -0.053513   0.112585
    10     O      -0.129790  -0.324042   0.314015
    11     O      -0.134127  -0.343831   0.302903
    12     S       0.080008   0.232301  -0.219191
    13     O       0.426606   0.009360   0.045875
    14     O      -0.349251   0.149584  -0.183684
 
 Mode:    32      Frequency (cm-1):      574.7912     Intensity (km/mol):      329.2663
 Index  Atom      ---- Displacements (x/y/z) ----
     1    Pa       0.009561   0.001682   0.005388
     2     O       0.083598   0.192073  -0.150912
     3     H       0.038612   0.219571  -0.285312
     4     O      -0.169520   0.156409   0.082750
     5     H      -0.252405   0.154867   0.167040
     6     O      -0.110669  -0.147332  -0.193606
     7     H      -0.131764  -0.125287  -0.333620
     8     O      -0.054421  -0.197590   0.162108
     9     H      -0.189408  -0.211139   0.239176
    10     O      -0.053452  -0.104557  -0.115146
    11     O      -0.016466   0.100864   0.129089
    12     S       0.201214  -0.010963   0.059834
    13     O      -0.021171   0.140159  -0.178459
    14     O      -0.164493  -0.144795   0.080155
 
 Mode:    33      Frequency (cm-1):      586.2861     Intensity (km/mol):       69.2380
 Index  Atom      ---- Displacements (x/y/z) ----
     1    Pa       0.000651  -0.005048  -0.005530
     2     O       0.009649   0.023854  -0.023101
     3     H       0.018480   0.019859  -0.026258
     4     O      -0.020582   0.017971   0.009977
     5     H      -0.025861   0.017215   0.009770
     6     O      -0.011260  -0.024522  -0.028164
     7     H      -0.016089  -0.019355  -0.054552
     8     O      -0.006666  -0.029965   0.019212
     9     H      -0.042710  -0.031869   0.048803
    10     O       0.497235  -0.127134   0.075957
    11     O      -0.483289   0.052831  -0.154665
    12     S       0.050884  -0.214611  -0.210472
    13     O      -0.038591   0.315492   0.284354
    14     O      -0.053443   0.274268   0.318418
 
 Mode:    34      Frequency (cm-1):      646.0136     Intensity (km/mol):       60.2947
 Index  Atom      ---- Displacements (x/y/z) ----
     1    Pa      -0.013864   0.000376  -0.005897
     2     O      -0.062112  -0.181081   0.150269
     3     H      -0.092210  -0.173349   0.196228
     4     O       0.173918  -0.155086  -0.087091
     5     H       0.205895  -0.162516  -0.134602
     6     O       0.104611   0.138381   0.189070
     7     H       0.119363   0.129244   0.261847
     8     O       0.071217   0.176391  -0.148110
     9     H       0.055897   0.172269  -0.181511
    10     O      -0.163595  -0.208932  -0.299433
    11     O      -0.223411   0.267795   0.195505
    12     S       0.180532  -0.028300   0.047793
    13     O       0.013220   0.136488  -0.127470
    14     O      -0.092665  -0.120657   0.107960
 
 Mode:    35      Frequency (cm-1):      891.7488     Intensity (km/mol):      476.3178
 Index  Atom      ---- Displacements (x/y/z) ----
     1    Pa       0.000812   0.005083   0.005074
     2     O      -0.000831   0.004754  -0.014257
     3     H       0.026816  -0.008625   0.038085
     4     O      -0.008556   0.007885   0.004700
     5     H      -0.012472   0.009065   0.005910
     6     O      -0.003334  -0.010790  -0.012843
     7     H      -0.011069  -0.005804  -0.017646
     8     O      -0.003113  -0.016514   0.004124
     9     H      -0.031897  -0.016708   0.039911
    10     O       0.461765  -0.541346  -0.385748
    11     O      -0.073970  -0.161615  -0.207303
    12     S      -0.135615   0.341252   0.312240
    13     O      -0.083642  -0.089526   0.019973
    14     O      -0.027169   0.052990  -0.110244
 
 Mode:    36      Frequency (cm-1):      905.2298     Intensity (km/mol):      298.2875
 Index  Atom      ---- Displacements (x/y/z) ----
     1    Pa      -0.001823   0.002442   0.001511
     2     O      -0.005160  -0.021789   0.015640
     3     H      -0.008450  -0.023372   0.020564
     4     O       0.016662  -0.014159  -0.009257
     5     H       0.014376  -0.013557  -0.000358
     6     O       0.012845   0.008601   0.016224
     7     H       0.004910   0.015713   0.009577
     8     O       0.012008   0.015321  -0.017946
     9     H      -0.019927   0.015849   0.002026
    10     O      -0.252951   0.221788   0.131434
    11     O      -0.387027  -0.383090  -0.585874
    12     S       0.178948   0.101304   0.189696
    13     O       0.202677   0.130390  -0.125927
    14     O       0.070160  -0.194497   0.172701
 
 Mode:    37      Frequency (cm-1):     1126.5294     Intensity (km/mol):      801.2653
 Index  Atom      ---- Displacements (x/y/z) ----
     1    Pa       0.006978  -0.001138   0.001883
     2     O       0.001300   0.016918  -0.015987
     3     H       0.020341   0.012322  -0.000918
     4     O      -0.015943   0.012996   0.008035
     5     H      -0.011584   0.016254   0.004826
     6     O      -0.010645  -0.009715  -0.016417
     7     H      -0.010831  -0.013716  -0.009599
     8     O      -0.011777  -0.014583   0.013513
     9     H       0.018650  -0.014556   0.007745
    10     O       0.068627  -0.073720  -0.051070
    11     O       0.064127   0.060990   0.093336
    12     S      -0.434479   0.059468  -0.114988
    13     O       0.483325   0.310805  -0.243134
    14     O       0.187624  -0.406148   0.414240
 
 Mode:    38      Frequency (cm-1):     1212.3148     Intensity (km/mol):      677.5701
 Index  Atom      ---- Displacements (x/y/z) ----
     1    Pa       0.000256   0.000469  -0.000361
     2     O      -0.001981  -0.000402  -0.000159
     3     H      -0.001248  -0.000535   0.003282
     4     O      -0.000200  -0.000102   0.000102
     5     H      -0.002523  -0.000488   0.000766
     6     O      -0.000108  -0.000220  -0.000207
     7     H       0.000307  -0.000420  -0.000069
     8     O       0.001358  -0.001420   0.001015
     9     H      -0.004501  -0.002284   0.001322
    10     O      -0.006508  -0.018882   0.014984
    11     O      -0.007738  -0.017071   0.016766
    12     S       0.145910   0.375951  -0.344958
    13     O      -0.439457  -0.307483   0.245220
    14     O       0.159777  -0.412438   0.416687
 
 Mode:    39      Frequency (cm-1):     3800.1623     Intensity (km/mol):      391.8727
 Index  Atom      ---- Displacements (x/y/z) ----
     1    Pa      -0.000021  -0.000042   0.000008
     2     O      -0.025936  -0.052557  -0.001792
     3     H       0.414871   0.839699   0.028124
     4     O      -0.002559   0.008605  -0.002291
     5     H       0.043108  -0.138423   0.035294
     6     O      -0.000639  -0.001319  -0.000005
     7     H       0.011609   0.022916   0.001998
     8     O       0.003785  -0.018604   0.003473
     9     H      -0.060330   0.297360  -0.055736
    10     O      -0.000111   0.000068  -0.000083
    11     O      -0.000116   0.000069  -0.000042
    12     S       0.000084  -0.000022   0.000025
    13     O      -0.000039  -0.000015   0.000003
    14     O      -0.000034   0.000031  -0.000031
 
 Mode:    40      Frequency (cm-1):     3801.7553     Intensity (km/mol):      186.5616
 Index  Atom      ---- Displacements (x/y/z) ----
     1    Pa       0.000019  -0.000029   0.000015
     2     O       0.007436   0.015147   0.000479
     3     H      -0.119243  -0.241628  -0.007810
     4     O       0.003550  -0.012073   0.003273
     5     H      -0.060684   0.196494  -0.050380
     6     O       0.003088   0.006184   0.000352
     7     H      -0.051214  -0.100732  -0.009840
     8     O       0.011326  -0.056159   0.010553
     9     H      -0.181479   0.896857  -0.168688
    10     O       0.000234  -0.000008   0.000076
    11     O       0.000263  -0.000011   0.000023
    12     S      -0.000166   0.000016  -0.000049
    13     O       0.000099   0.000026  -0.000014
    14     O       0.000060  -0.000042   0.000051
 
 Mode:    41      Frequency (cm-1):     3808.3338     Intensity (km/mol):      275.1262
 Index  Atom      ---- Displacements (x/y/z) ----
     1    Pa      -0.000007   0.000049   0.000002
     2     O       0.005452   0.010731   0.000135
     3     H      -0.084187  -0.169982  -0.005938
     4     O      -0.017249   0.055127  -0.013915
     5     H       0.273129  -0.879849   0.224879
     6     O       0.005719   0.011255   0.000884
     7     H      -0.093115  -0.182909  -0.018375
     8     O       0.001548  -0.008364   0.001687
     9     H      -0.026260   0.130427  -0.024565
    10     O       0.000241  -0.000020   0.000094
    11     O       0.000120  -0.000051  -0.000015
    12     S      -0.000111   0.000050  -0.000001
    13     O       0.000060   0.000012  -0.000016
    14     O       0.000040  -0.000045   0.000034
 
 Mode:    42      Frequency (cm-1):     3815.1384     Intensity (km/mol):      196.0593
 Index  Atom      ---- Displacements (x/y/z) ----
     1    Pa      -0.000012  -0.000030  -0.000007
     2     O       0.002796   0.005663  -0.000098
     3     H      -0.042513  -0.086384  -0.002752
     4     O      -0.003368   0.010230  -0.002397
     5     H       0.049588  -0.160035   0.040921
     6     O      -0.027597  -0.053961  -0.005644
     7     H       0.438464   0.860700   0.085582
     8     O       0.001533  -0.007996   0.001820
     9     H      -0.025264   0.124382  -0.023516
    10     O       0.000175   0.000015   0.000108
    11     O       0.000270  -0.000059   0.000039
    12     S      -0.000134   0.000004  -0.000051
    13     O       0.000087   0.000035  -0.000004
    14     O       0.000059  -0.000039   0.000061

PES point character: Geometry corresponds to a local minimum on the PES.




 ============================
 Statistical Thermal Analysis  ***  ideal gas assumed  ***
 ============================
  
 Pressure:                  1.000000 atm.
 Temperature:             298.150000 K



 Moments of Inertia [amu*bohr^2] and principal axis
 ==================================================

        1279.9170       3478.4850       3682.6199
 ------------------------------------------------
           0.9558         -0.2804          0.0883
          -0.1624         -0.7541         -0.6363
           0.2450          0.5939         -0.7663


 The rotational contribution to the molecular entropy includes
 a term, dependent on the symmetry number sigma. The results 
 reported below were computed using sigma = 1, determined from
 the point group symmetry of the input geometry (NOSYM). 
 If this is not the correct symmetry, try symmetrizing the molecule before
 running the calculation (note: linear molecules should be aligned along one
 of the Cartesian axes).
 Contributions from frequencies below 20 1/cm are not included in vibrational sums.
 Their contributions, if any, are reported separately.


     Temp                                                        Transl      Rotat     Vibrat     Total
     ----                                                        ------      -----     ------     -----

     298.15   Entropy (cal/mol-K):                               43.813     31.173     49.473    124.459
              Nuclear Internal Energy (kcal/mol):                 0.889      0.889     47.369     49.147
              Constant Volume Heat Capacity (cal/mol-K):          2.981      2.981     44.901     50.863
          (c) Constant Volume Heat Capacity (cal/mol-K):          2.981      2.981     42.195     48.157

 Contributions from frequencies below 20 1/cm
 Frequency (1/cm):                                   15.627
 Entropy (cal/mol-K):                                 7.124
 Nuclear Internal Energy (kcal/mol):                  0.593
 Constant Volume Heat Capacity (cal/mol-K):           1.986

       Summary of energy terms
                                                   hartree              eV         kcal/mol           kJ/mol
                                      --------------------     -----------       ----------      -----------
      Energy from Engine:               -4.183065728922285       -113.8270         -2624.91        -10982.64
      Nuclear Internal Energy:           0.078320617576810          2.1312            49.15           205.63
  (c) Nuclear Internal Energy:           0.076856768440082          2.0914            48.23           201.79
      Internal Energy U:                -4.104745111345475       -111.6958         -2575.77        -10777.01
      pV/n = RT:                         0.000944186013486          0.0257             0.59             2.48
      Enthalpy H:                       -4.103800925331989       -111.6701         -2575.17        -10774.53
      -T*S:                             -0.059134308085016         -1.6091           -37.11          -155.26
  (c) -T*S:                             -0.060012043623417         -1.6330           -37.66          -157.56
      Gibbs free energy:                -4.162935233417006       -113.2792         -2612.28        -10929.78
 
 
 
  (c) The properties marked with this symbol have been corrected using 'low vibrational frequency free rotor
      interpolation corrections'. For those terms all positive frequencies are used (also ones below 20 1/cm),
      but the contribution to the partition function of small vibrational frequencies is modified as described
      in the following paper:
      S. Grimme, 'Supramolecular Binding Thermodynamics by Dispersion-Corrected Density Functional Theory'
      (Chem. Eur. J. 2012, 18, 9955-9964)
      Configuration: Dampener Frequency          :   100.000 1/cm
                     Dampener Alpha              :     4.000
                     Averaging Moment of Inertia : 1.000E-44 kg m2

--------------
Atomic charges
--------------
  Index   Atom    Charge
      1     Pa    2.7606
      2      O   -0.6741
      3      H    0.1201
      4      O   -0.7226
      5      H    0.1419
      6      O   -0.7190
      7      H    0.1372
      8      O   -0.6750
      9      H    0.1206
     10      O   -0.8094
     11      O   -0.8041
     12      S    1.6123
     13      O   -0.7443
     14      O   -0.7442


Dipole moment vector    (Debye):   -16.40139267    3.44406209   -2.39224750
              magnitude (Debye):    16.92897201


Final PES point is a local minimum. Geometry optimization successful!


AMS application finished. Exiting.
NORMAL TERMINATION
     Total cpu time:   57583.10
  Total system time:    1036.54
 Total elapsed time:   58616.43
