
 Working directory              : /state/partition2/shaaban/999367.phlam-s-sakura/molpro.1ogGUniysb/
 Global scratch directory       : /state/partition2/shaaban/999367.phlam-s-sakura/molpro.1ogGUniysb/
 Wavefunction directory         : /home/shaaban/wfu/
 Main file repository           : /state/partition2/shaaban/999367.phlam-s-sakura/molpro.1ogGUniysb/

 id        : lill

 Nodes      nprocs
 u-0-0.local    8
 GA implementation: MPI file
 GA implementation (serial work in mppx): MPI file

 Using customized tuning parameters: mindgm=1; mindgv=20; mindgc=4; mindgr=1; noblas=0; minvec=7
 default implementation of scratch files=sf  


 Variables initialized (1040), CPU time= 0.01 sec
 ***,Pa(OH)4(SO4) - MP2 and CCSD(T)
 memory,5000, m;
 file, 1, pa_oh4_so4.ccsd-tx.int, new;
 file, 2, pa_oh4_so4.ccsd-tx.wfu, new;
 
 gprint, basis;
 gprint, orbital=10;
 
 nosym;
 
 geomtyp=xyz;
 
 geometry={
 Including file /home/shaaban/molpro/PhD/sulfate/gp/pa_oh4_so4/pa_oh4_so4-B22-gp.xyz
 }
 
 charge=-1;
 
                                                                                 ! Select X2C SR Hamiltonian
 SET,DKHO=101
 
                                                                                 ! Calculation with VTZ basis set
 basis={
 Pa=cc-pVTZ-X2C;
 O=aug-cc-pVTZ-X2C;
 H=aug-cc-pVTZ-X2C;
 S=aug-cc-pVTZ-X2C;
 }
 
                                                                                 ! Hartree-Fock calculation
 {hf;}
 
                                                                                 ! MP2 and CCSD(T) calculation
 {ccsd(t);}
 
                                                                  ! Save HF energy and CCSD(T) correlation energy for VTZ basis set
 energy_hf(1) = energr(1);
 corr_mp2(1) = EMP2-energr(1);
 corr_ccsdt(1) = ENERGT(1)-energr(1);
 
 Commands initialized (846), CPU time= 0.01 sec, 717 directives.
 Default parameters read. Elapsed time= 2.82 sec

 Checking input...
 Passed
1


                                         ***  PROGRAM SYSTEM MOLPRO  ***
                                       Copyright, TTI GmbH Stuttgart, 2015
                                    Version 2023.2 linked Fri Sep 22 09:27:09 2023


 **********************************************************************************************************************************
 LABEL *   Pa(OH)4(SO4) - MP2 and CCSD(T)                                                                                                                                
  64 bit mpp version                                                                     DATE: 11-Jan-24          TIME: 17:02:42  
 **********************************************************************************************************************************

 SHA1:             3c61bfe44d37c8635c785372c339f5cbdd4e4b59
 **********************************************************************************************************************************

 Memory per process:      5000 MW
 Total memory per node:  40000 MW

 GA preallocation disabled
 GA check disabled

 Variable memory set to 5000.0 MW



 Permanent file  1  pa_oh4_so4.ccsd-tx.int           assigned.  Implementation=df  
 Permanent file  2  pa_oh4_so4.ccsd-tx.wfu           assigned.  Implementation=df  



 **********************************************************************************************************************************
 DATASETS  * FILE   NREC   LENGTH (MB)   RECORD NAMES
              1       1        0.06       500   
                                          VAR  

              2       1        0.06       500   
                                          VAR  

 PROGRAMS   *        TOTAL      FILE
 CPU TIMES  *         0.22      0.02
 REAL TIME  *         4.39 SEC
 DISK USED  *         0.16 MB (local),        1.32 MB (total)
 **********************************************************************************************************************************


 SETTING GEOMTYP        =    XYZ
 ZSYMEL=NOSYM


 Geometry recognized as XYZ

 SETTING CHARGE         =        -1.00000000                                  
 SETTING DKHO           =       101.00000000                                  
 SETTING BASIS          =    PA=CC-PVTZ-X2C,O=AUG-CC-PVTZ-X2C,H=AUG-CC-PVTZ-X2C,S=AUG-CC-PVTZ-X2C


 Recomputing integrals since basis changed


 Using spherical harmonics

 Library entry PA     S cc-pVTZ-X2C          selected for orbital group  1
 Library entry PA     P cc-pVTZ-X2C          selected for orbital group  1
 Library entry PA     D cc-pVTZ-X2C          selected for orbital group  1
 Library entry PA     F cc-pVTZ-X2C          selected for orbital group  1
 Library entry PA     G cc-pVTZ-X2C          selected for orbital group  1
 Library entry PA     H cc-pVTZ-X2C          selected for orbital group  1
 Library entry O      S aug-cc-pVTZ-X2C      selected for orbital group  2
 Library entry O      P aug-cc-pVTZ-X2C      selected for orbital group  2
 Library entry O      D aug-cc-pVTZ-X2C      selected for orbital group  2
 Library entry O      F aug-cc-pVTZ-X2C      selected for orbital group  2
 Library entry H      S aug-cc-pVTZ-X2C      selected for orbital group  3
 Library entry H      P aug-cc-pVTZ-X2C      selected for orbital group  3
 Library entry H      D aug-cc-pVTZ-X2C      selected for orbital group  3
 Library entry S      S aug-cc-pVTZ-X2C      selected for orbital group 11
 Library entry S      P aug-cc-pVTZ-X2C      selected for orbital group 11
 Library entry S      D aug-cc-pVTZ-X2C      selected for orbital group 11
 Library entry S      F aug-cc-pVTZ-X2C      selected for orbital group 11


 PROGRAM * SEWARD (Integral evaluation for generally contracted gaussian basis sets)     Author: Roland Lindh, 1990

 Geometry written to block  1 of record 700


 Point group  C1  



 ATOMIC COORDINATES

 NR  ATOM    CHARGE       X              Y              Z

   1  PA     91.00    0.886091334    0.045932749    0.496363514
   2  O       8.00    4.553199063   -1.020588115    1.796390121
   3  H       1.00   -3.151702463    3.052254253   -1.110246641
   4  O       8.00   -2.730481031    1.302896767   -0.815064422
   5  H       1.00    5.931806617    0.083677562    2.234922536
   6  O       8.00    0.948805619   -2.758194037   -2.469235702
   7  H       1.00   -0.354277503   -3.126824225   -3.678803367
   8  O       8.00   -0.963028718   -1.995720536    3.506761694
   9  H       1.00   -2.741091889   -2.093112127    3.861316923
  10  O       8.00    1.236406915    3.894306935    2.576562836
  11  O       8.00    2.603383203    3.481226179   -1.618861412
  12  S      16.00    2.330581660    5.573997793    0.427636849
  13  O       8.00    4.783128228    6.546738460    1.132033773
  14  O       8.00    0.466372997    7.415251041   -0.361777013

 Bond lengths in Bohr (Angstrom)

 1-2  4.034255202  1-3  5.284216491  1-4  4.047146828  1-5  5.336970570  1-6  4.081891574
     ( 2.134835916)     ( 2.796286944)     ( 2.141657870)     ( 2.824203201)     ( 2.160043998)

  1- 7  5.388591667   1- 8  4.080452218   1- 9  5.390258117   1-10  4.388614143   1-11  4.384576239
       ( 2.851519909)       ( 2.159282324)       ( 2.852401756)       ( 2.322354592)       ( 2.320217825)

  1-12  5.714085997   2- 5  1.819964876   3- 4  1.823406606   6- 7  1.815755428   8- 9  1.815682564
       ( 3.023764091)       ( 0.963083937)       ( 0.964905222)       ( 0.960856393)       ( 0.960817835)

 10-12  2.938785914  11-12  2.939773604  12-13  2.730821141  12-14  2.736541924
       ( 1.555138534)       ( 1.555661196)       ( 1.445088315)       ( 1.448115623)

 Bond angles

  1-2-5  127.28620964   1-3-4   39.50594716   1-4-3  123.83861011   1-5-2   36.97126916

  1-6-7  127.76442895   1-7-6   36.78653781   1-8-9  127.92866928   1-9-8   36.66304028

  1-10-12  100.62139724   1-11-12  100.69466541   1-12-10   49.01447202   1-12-11   48.93800219

  1-12-13  124.64875029   1-12-14  118.82880092   2- 1- 3  160.55522252   2- 1- 4  177.20714647

  2-1-5   15.74252120   2-1-6   92.20895208   2-1-7  107.65358798   2-1-8   92.40180876

  2- 1- 9  107.79406528   2- 1-10   90.37349570   2- 1-11   90.37628398   2- 1-12   91.71037630

  3-1-4   16.65544274   3-1-5  144.82958035   3-1-6  100.46765059   3-1-7   85.61340675

  3- 1- 8   99.36338145   3- 1- 9   84.34034944   3- 1-10   72.91558750   3- 1-11   72.95372349

  3- 1-12   68.84488706   4- 1- 5  161.47848805   4- 1- 6   89.52251006   4- 1- 7   74.10367518

  4- 1- 8   89.39882563   4- 1- 9   73.99098447   4- 1-10   87.28185092   4- 1-11   87.15327160

  4- 1-12   85.49955246   5- 1- 6  103.12076119   5- 1- 7  118.30654053   5- 1- 8  101.04863518

  5- 1- 9  115.82594315   5- 1-10   76.34481986   5- 1-11   77.36849149   5- 1-12   75.99994334

  6- 1- 7   15.44903324   6- 1- 8  101.49256154   6- 1- 9  101.02695672   6- 1-10  161.00512527

  6- 1-11  100.47022496   6- 1-12  130.69113522   7- 1- 8   99.94575391   7- 1- 9   95.45957691

  7- 1-10  154.41522697   7- 1-11  100.23470225   7- 1-12  128.20621846   8- 1- 9   15.40829044

  8- 1-10   97.19414489   8- 1-11  157.73250951   8- 1-12  127.40839689   9- 1-10   96.07313900

  9- 1-11  151.12050233   9- 1-12  124.16195369  10- 1-11   60.68293442  10- 1-12   30.36413074

 10-12-11   97.85730421  10-12-13  110.44819704  10-12-14  109.99085871  11- 1-12   30.36733239

 11-12-13  110.47523265  11-12-14  109.96104111  13-12-14  116.52243240


 BASIS DATA

   Nr Sym  Nuc  Type         Exponents   Contraction coefficients

    1.1 A     1  1s    57606659.000000     0.002669    0.000875   -0.001011   -0.000162    0.000138   -0.000062
                                           0.000029    0.000051   -0.000067   -0.000085    0.000000
    2.1 A              15333099.000000     0.001763    0.000577   -0.000669   -0.000107    0.000091   -0.000041
                                           0.000019    0.000034   -0.000045   -0.000056    0.000000
    3.1 A               5244434.800000     0.005688    0.001860   -0.002159   -0.000346    0.000294   -0.000133
                                           0.000061    0.000110   -0.000144   -0.000182    0.000000
    4.1 A               1993947.300000     0.005833    0.001897   -0.002226   -0.000357    0.000304   -0.000137
                                           0.000063    0.000114   -0.000148   -0.000188    0.000000
    5.1 A                831464.670000     0.012471    0.004046   -0.004768   -0.000766    0.000651   -0.000294
                                           0.000135    0.000243   -0.000318   -0.000402    0.000000
    6.1 A                367473.800000     0.015337    0.004923   -0.005922   -0.000954    0.000810   -0.000366
                                           0.000168    0.000303   -0.000396   -0.000502    0.000000
    7.1 A                170948.980000     0.027802    0.008860   -0.010807   -0.001745    0.001481   -0.000669
                                           0.000307    0.000553   -0.000723   -0.000913    0.000000
    8.1 A                 82498.208000     0.037893    0.011845   -0.014983   -0.002432    0.002060   -0.000931
                                           0.000428    0.000771   -0.001008   -0.001281    0.000000
    9.1 A                 41068.557000     0.063446    0.019489   -0.025472   -0.004156    0.003514   -0.001588
                                           0.000730    0.001312   -0.001713   -0.002158    0.000000
   10.1 A                 20931.097000     0.090970    0.026964   -0.037612   -0.006192    0.005220   -0.002360
                                           0.001084    0.001959   -0.002562   -0.003271    0.000000
   11.1 A                 10881.858000     0.141353    0.040137   -0.060450   -0.010069    0.008456   -0.003823
                                           0.001756    0.003150   -0.004109   -0.005142    0.000000
                           5751.850200     0.192150    0.050328   -0.087023   -0.014758    0.012320   -0.005570
                                           0.002559    0.004641   -0.006081   -0.007843    0.000000
                           3085.413800     0.245625    0.057494   -0.119370   -0.020746    0.017180   -0.007769
                                           0.003568    0.006365   -0.008281   -0.010186    0.000000
                           1676.302600     0.236828    0.048791   -0.122988   -0.021795    0.017936   -0.008112
                                           0.003728    0.006861   -0.009046   -0.012129    0.000000
                            920.364860     0.144288    0.051386   -0.045258   -0.005640    0.005268   -0.002373
                                           0.001085    0.001652   -0.001974   -0.001042    0.000000
                            507.302700    -0.025759    0.115725    0.203246    0.056561   -0.041187    0.018724
                                          -0.008598   -0.014902    0.019190    0.021482    0.000000
                            285.301180    -0.127248    0.207489    0.548666    0.172341   -0.122683    0.055908
                                          -0.025737   -0.047910    0.063712    0.088054    0.000000
                            162.083520    -0.106345    0.166212    0.606264    0.222723   -0.155054    0.070944
                                          -0.032607   -0.056240    0.072273    0.078654    0.000000
                             92.502257    -0.075897    0.111536    0.036795   -0.036386    0.019294   -0.009062
                                           0.004086    0.001475    0.001168    0.030443    0.000000
                             54.996696    -0.159518    0.199400   -0.676887   -0.645265    0.447335   -0.211910
                                           0.098395    0.193270   -0.267108   -0.419400    0.000000
                             32.498055    -0.126680    0.162427   -0.590845   -0.685716    0.477369   -0.227312
                                           0.105023    0.171409   -0.214999   -0.161690    0.000000
                             19.139224    -0.031866    0.038627   -0.102127    0.187644   -0.152132    0.072681
                                          -0.032972   -0.027495    0.028200   -0.136514    0.000000
                             11.382710     0.001867    0.000895    0.103491    0.862021   -0.976205    0.547811
                                          -0.263192   -0.581563    0.872312    1.708580    0.000000
                              6.786052     0.000710   -0.001446    0.057992    0.445035   -0.716251    0.417708
                                          -0.198179   -0.257965    0.233684   -0.803168    0.000000
                              4.149622     0.000624    0.000224    0.007493    0.066545    0.448492   -0.350229
                                           0.170540    0.219139   -0.310498    1.111350    0.000000
                              2.398648    -0.000456    0.000036    0.000333    0.014140    0.872214   -0.849732
                                           0.456257    1.306370   -2.312230   -7.677220    0.000000
                              1.389239     0.000090    0.000196   -0.000539    0.002102    0.319316   -0.431871
                                           0.230358    0.273179    0.312923   10.897300    0.000000
                              0.799685    -0.000092   -0.000045    0.000120    0.000488    0.047531    0.436228
                                          -0.277578   -1.772950    4.829150   -2.756210    0.000000
                              0.427327     0.000032    0.000027   -0.000069   -0.000720    0.030738    0.715435
                                          -0.561943   -0.897998   -3.625440   -6.603630    0.000000
                              0.220940    -0.000014   -0.000008    0.000023   -0.000086    0.010089    0.233487
                                          -0.326569    1.531090   -1.220420    6.760400    0.000000
                              0.086038     0.000004    0.000003   -0.000008   -0.000060    0.001152    0.063336
                                           0.301677    1.025940    2.677810   -2.145480    0.000000
                              0.041219    -0.000002   -0.000001    0.000004   -0.000044    0.001537    0.118995
                                           0.692734   -0.772162   -0.536170   -1.021350    0.000000
                              0.018781     0.000001    0.000000   -0.000001   -0.000024    0.000590    0.043903
                                           0.253879   -0.484754   -0.805222    1.252960    1.000000
   12.1 A     1  2px   52575799.000000     0.000013
                       15301659.000000     0.000017
                        4822461.600000     0.000052
                        1632045.600000     0.000107
                         584338.640000     0.000256
                         219508.320000     0.000572
                          86085.039000     0.001336
                          35172.956000     0.003129
                          14975.745000     0.007503
                           6652.821900     0.017986
                           3084.270200     0.042103
                           1489.211300     0.090969
                            745.288670     0.167976
                            384.521300     0.234709
                            203.927220     0.220200
                            110.523340     0.174708
                             61.345569     0.190642
                             34.404375     0.137246
                             19.094147     0.033402
                             10.684628    -0.000867
                              5.931463    -0.000935
                              3.230992    -0.000009
                              1.730655     0.000164
                              0.869483     0.000022
                              0.440589     0.000009
                              0.215859    -0.000000
                              0.091015     0.000001
                              0.040174    -0.000000
                              0.017215     0.000000
   13.1 A     1  2py   52575799.000000     0.000013
                       15301659.000000     0.000017
                        4822461.600000     0.000052
                        1632045.600000     0.000107
                         584338.640000     0.000256
                         219508.320000     0.000572
                          86085.039000     0.001336
                          35172.956000     0.003129
                          14975.745000     0.007503
                           6652.821900     0.017986
                           3084.270200     0.042103
                           1489.211300     0.090969
                            745.288670     0.167976
                            384.521300     0.234709
                            203.927220     0.220200
                            110.523340     0.174708
                             61.345569     0.190642
                             34.404375     0.137246
                             19.094147     0.033402
                             10.684628    -0.000867
                              5.931463    -0.000935
                              3.230992    -0.000009
                              1.730655     0.000164
                              0.869483     0.000022
                              0.440589     0.000009
                              0.215859    -0.000000
                              0.091015     0.000001
                              0.040174    -0.000000
                              0.017215     0.000000
   14.1 A     1  2pz   52575799.000000     0.000013
                       15301659.000000     0.000017
                        4822461.600000     0.000052
                        1632045.600000     0.000107
                         584338.640000     0.000256
                         219508.320000     0.000572
                          86085.039000     0.001336
                          35172.956000     0.003129
                          14975.745000     0.007503
                           6652.821900     0.017986
                           3084.270200     0.042103
                           1489.211300     0.090969
                            745.288670     0.167976
                            384.521300     0.234709
                            203.927220     0.220200
                            110.523340     0.174708
                             61.345569     0.190642
                             34.404375     0.137246
                             19.094147     0.033402
                             10.684628    -0.000867
                              5.931463    -0.000935
                              3.230992    -0.000009
                              1.730655     0.000164
                              0.869483     0.000022
                              0.440589     0.000009
                              0.215859    -0.000000
                              0.091015     0.000001
                              0.040174    -0.000000
                              0.017215     0.000000
   15.1 A     1  2px   52575799.000000    -0.000015
                       15301659.000000    -0.000020
                        4822461.600000    -0.000063
                        1632045.600000    -0.000128
                         584338.640000    -0.000307
                         219508.320000    -0.000688
                          86085.039000    -0.001611
                          35172.956000    -0.003789
                          14975.745000    -0.009145
                           6652.821900    -0.022135
                           3084.270200    -0.052666
                           1489.211300    -0.116756
                            745.288670    -0.223673
                            384.521300    -0.322150
                            203.927220    -0.236330
                            110.523340     0.145050
                             61.345569     0.527334
                             34.404375     0.400957
                             19.094147     0.019469
                             10.684628    -0.122609
                              5.931463    -0.050931
                              3.230992    -0.002720
                              1.730655     0.002231
                              0.869483     0.000423
                              0.440589     0.000084
                              0.215859     0.000018
                              0.091015     0.000006
                              0.040174    -0.000002
                              0.017215     0.000001
   16.1 A     1  2py   52575799.000000    -0.000015
                       15301659.000000    -0.000020
                        4822461.600000    -0.000063
                        1632045.600000    -0.000128
                         584338.640000    -0.000307
                         219508.320000    -0.000688
                          86085.039000    -0.001611
                          35172.956000    -0.003789
                          14975.745000    -0.009145
                           6652.821900    -0.022135
                           3084.270200    -0.052666
                           1489.211300    -0.116756
                            745.288670    -0.223673
                            384.521300    -0.322150
                            203.927220    -0.236330
                            110.523340     0.145050
                             61.345569     0.527334
                             34.404375     0.400957
                             19.094147     0.019469
                             10.684628    -0.122609
                              5.931463    -0.050931
                              3.230992    -0.002720
                              1.730655     0.002231
                              0.869483     0.000423
                              0.440589     0.000084
                              0.215859     0.000018
                              0.091015     0.000006
                              0.040174    -0.000002
                              0.017215     0.000001
   17.1 A     1  2pz   52575799.000000    -0.000015
                       15301659.000000    -0.000020
                        4822461.600000    -0.000063
                        1632045.600000    -0.000128
                         584338.640000    -0.000307
                         219508.320000    -0.000688
                          86085.039000    -0.001611
                          35172.956000    -0.003789
                          14975.745000    -0.009145
                           6652.821900    -0.022135
                           3084.270200    -0.052666
                           1489.211300    -0.116756
                            745.288670    -0.223673
                            384.521300    -0.322150
                            203.927220    -0.236330
                            110.523340     0.145050
                             61.345569     0.527334
                             34.404375     0.400957
                             19.094147     0.019469
                             10.684628    -0.122609
                              5.931463    -0.050931
                              3.230992    -0.002720
                              1.730655     0.002231
                              0.869483     0.000423
                              0.440589     0.000084
                              0.215859     0.000018
                              0.091015     0.000006
                              0.040174    -0.000002
                              0.017215     0.000001
   18.1 A     1  2px   52575799.000000     0.000002
                       15301659.000000     0.000002
                        4822461.600000     0.000007
                        1632045.600000     0.000015
                         584338.640000     0.000036
                         219508.320000     0.000081
                          86085.039000     0.000191
                          35172.956000     0.000452
                          14975.745000     0.001103
                           6652.821900     0.002719
                           3084.270200     0.006655
                           1489.211300     0.015415
                            745.288670     0.031304
                            384.521300     0.047289
                            203.927220     0.017930
                            110.523340    -0.123036
                             61.345569    -0.327485
                             34.404375    -0.190153
                             19.094147     0.365341
                             10.684628     0.614487
                              5.931463     0.253665
                              3.230992     0.025247
                              1.730655     0.001457
                              0.869483    -0.000189
                              0.440589     0.000178
                              0.215859    -0.000001
                              0.091015     0.000034
                              0.040174    -0.000010
                              0.017215     0.000003
   19.1 A     1  2py   52575799.000000     0.000002
                       15301659.000000     0.000002
                        4822461.600000     0.000007
                        1632045.600000     0.000015
                         584338.640000     0.000036
                         219508.320000     0.000081
                          86085.039000     0.000191
                          35172.956000     0.000452
                          14975.745000     0.001103
                           6652.821900     0.002719
                           3084.270200     0.006655
                           1489.211300     0.015415
                            745.288670     0.031304
                            384.521300     0.047289
                            203.927220     0.017930
                            110.523340    -0.123036
                             61.345569    -0.327485
                             34.404375    -0.190153
                             19.094147     0.365341
                             10.684628     0.614487
                              5.931463     0.253665
                              3.230992     0.025247
                              1.730655     0.001457
                              0.869483    -0.000189
                              0.440589     0.000178
                              0.215859    -0.000001
                              0.091015     0.000034
                              0.040174    -0.000010
                              0.017215     0.000003
   20.1 A     1  2pz   52575799.000000     0.000002
                       15301659.000000     0.000002
                        4822461.600000     0.000007
                        1632045.600000     0.000015
                         584338.640000     0.000036
                         219508.320000     0.000081
                          86085.039000     0.000191
                          35172.956000     0.000452
                          14975.745000     0.001103
                           6652.821900     0.002719
                           3084.270200     0.006655
                           1489.211300     0.015415
                            745.288670     0.031304
                            384.521300     0.047289
                            203.927220     0.017930
                            110.523340    -0.123036
                             61.345569    -0.327485
                             34.404375    -0.190153
                             19.094147     0.365341
                             10.684628     0.614487
                              5.931463     0.253665
                              3.230992     0.025247
                              1.730655     0.001457
                              0.869483    -0.000189
                              0.440589     0.000178
                              0.215859    -0.000001
                              0.091015     0.000034
                              0.040174    -0.000010
                              0.017215     0.000003
   21.1 A     1  2px   52575799.000000    -0.000002
                       15301659.000000    -0.000003
                        4822461.600000    -0.000009
                        1632045.600000    -0.000018
                         584338.640000    -0.000043
                         219508.320000    -0.000097
                          86085.039000    -0.000228
                          35172.956000    -0.000537
                          14975.745000    -0.001302
                           6652.821900    -0.003177
                           3084.270200    -0.007652
                           1489.211300    -0.017311
                            745.288670    -0.034068
                            384.521300    -0.050256
                            203.927220    -0.027762
                            110.523340     0.078094
                             61.345569     0.225253
                             34.404375     0.124053
                             19.094147    -0.273486
                             10.684628    -0.553839
                              5.931463    -0.065277
                              3.230992     0.618524
                              1.730655     0.501044
                              0.869483     0.107343
                              0.440589     0.023201
                              0.215859     0.014691
                              0.091015     0.001511
                              0.040174     0.000132
                              0.017215    -0.000015
   22.1 A     1  2py   52575799.000000    -0.000002
                       15301659.000000    -0.000003
                        4822461.600000    -0.000009
                        1632045.600000    -0.000018
                         584338.640000    -0.000043
                         219508.320000    -0.000097
                          86085.039000    -0.000228
                          35172.956000    -0.000537
                          14975.745000    -0.001302
                           6652.821900    -0.003177
                           3084.270200    -0.007652
                           1489.211300    -0.017311
                            745.288670    -0.034068
                            384.521300    -0.050256
                            203.927220    -0.027762
                            110.523340     0.078094
                             61.345569     0.225253
                             34.404375     0.124053
                             19.094147    -0.273486
                             10.684628    -0.553839
                              5.931463    -0.065277
                              3.230992     0.618524
                              1.730655     0.501044
                              0.869483     0.107343
                              0.440589     0.023201
                              0.215859     0.014691
                              0.091015     0.001511
                              0.040174     0.000132
                              0.017215    -0.000015
   23.1 A     1  2pz   52575799.000000    -0.000002
                       15301659.000000    -0.000003
                        4822461.600000    -0.000009
                        1632045.600000    -0.000018
                         584338.640000    -0.000043
                         219508.320000    -0.000097
                          86085.039000    -0.000228
                          35172.956000    -0.000537
                          14975.745000    -0.001302
                           6652.821900    -0.003177
                           3084.270200    -0.007652
                           1489.211300    -0.017311
                            745.288670    -0.034068
                            384.521300    -0.050256
                            203.927220    -0.027762
                            110.523340     0.078094
                             61.345569     0.225253
                             34.404375     0.124053
                             19.094147    -0.273486
                             10.684628    -0.553839
                              5.931463    -0.065277
                              3.230992     0.618524
                              1.730655     0.501044
                              0.869483     0.107343
                              0.440589     0.023201
                              0.215859     0.014691
                              0.091015     0.001511
                              0.040174     0.000132
                              0.017215    -0.000015
   24.1 A     1  2px   52575799.000000     0.000001
                       15301659.000000     0.000001
                        4822461.600000     0.000004
                        1632045.600000     0.000008
                         584338.640000     0.000019
                         219508.320000     0.000043
                          86085.039000     0.000102
                          35172.956000     0.000240
                          14975.745000     0.000583
                           6652.821900     0.001422
                           3084.270200     0.003426
                           1489.211300     0.007745
                            745.288670     0.015249
                            384.521300     0.022470
                            203.927220     0.012451
                            110.523340    -0.035134
                             61.345569    -0.101385
                             34.404375    -0.055104
                             19.094147     0.131617
                             10.684628     0.274237
                              5.931463     0.008683
                              3.230992    -0.421618
                              1.730655    -0.381893
                              0.869483     0.226214
                              0.440589     0.602150
                              0.215859     0.367232
                              0.091015     0.055939
                              0.040174    -0.001129
                              0.017215     0.001121
   25.1 A     1  2py   52575799.000000     0.000001
                       15301659.000000     0.000001
                        4822461.600000     0.000004
                        1632045.600000     0.000008
                         584338.640000     0.000019
                         219508.320000     0.000043
                          86085.039000     0.000102
                          35172.956000     0.000240
                          14975.745000     0.000583
                           6652.821900     0.001422
                           3084.270200     0.003426
                           1489.211300     0.007745
                            745.288670     0.015249
                            384.521300     0.022470
                            203.927220     0.012451
                            110.523340    -0.035134
                             61.345569    -0.101385
                             34.404375    -0.055104
                             19.094147     0.131617
                             10.684628     0.274237
                              5.931463     0.008683
                              3.230992    -0.421618
                              1.730655    -0.381893
                              0.869483     0.226214
                              0.440589     0.602150
                              0.215859     0.367232
                              0.091015     0.055939
                              0.040174    -0.001129
                              0.017215     0.001121
   26.1 A     1  2pz   52575799.000000     0.000001
                       15301659.000000     0.000001
                        4822461.600000     0.000004
                        1632045.600000     0.000008
                         584338.640000     0.000019
                         219508.320000     0.000043
                          86085.039000     0.000102
                          35172.956000     0.000240
                          14975.745000     0.000583
                           6652.821900     0.001422
                           3084.270200     0.003426
                           1489.211300     0.007745
                            745.288670     0.015249
                            384.521300     0.022470
                            203.927220     0.012451
                            110.523340    -0.035134
                             61.345569    -0.101385
                             34.404375    -0.055104
                             19.094147     0.131617
                             10.684628     0.274237
                              5.931463     0.008683
                              3.230992    -0.421618
                              1.730655    -0.381893
                              0.869483     0.226214
                              0.440589     0.602150
                              0.215859     0.367232
                              0.091015     0.055939
                              0.040174    -0.001129
                              0.017215     0.001121
   27.1 A     1  2px   52575799.000000    -0.000000
                       15301659.000000    -0.000000
                        4822461.600000    -0.000001
                        1632045.600000    -0.000002
                         584338.640000    -0.000005
                         219508.320000    -0.000010
                          86085.039000    -0.000024
                          35172.956000    -0.000058
                          14975.745000    -0.000140
                           6652.821900    -0.000342
                           3084.270200    -0.000823
                           1489.211300    -0.001861
                            745.288670    -0.003664
                            384.521300    -0.005398
                            203.927220    -0.002991
                            110.523340     0.008482
                             61.345569     0.024454
                             34.404375     0.013272
                             19.094147    -0.032305
                             10.684628    -0.067432
                              5.931463    -0.001366
                              3.230992     0.110673
                              1.730655     0.103187
                              0.869483    -0.077840
                              0.440589    -0.217735
                              0.215859    -0.188345
                              0.091015     0.201020
                              0.040174     0.637069
                              0.017215     0.326669
   28.1 A     1  2py   52575799.000000    -0.000000
                       15301659.000000    -0.000000
                        4822461.600000    -0.000001
                        1632045.600000    -0.000002
                         584338.640000    -0.000005
                         219508.320000    -0.000010
                          86085.039000    -0.000024
                          35172.956000    -0.000058
                          14975.745000    -0.000140
                           6652.821900    -0.000342
                           3084.270200    -0.000823
                           1489.211300    -0.001861
                            745.288670    -0.003664
                            384.521300    -0.005398
                            203.927220    -0.002991
                            110.523340     0.008482
                             61.345569     0.024454
                             34.404375     0.013272
                             19.094147    -0.032305
                             10.684628    -0.067432
                              5.931463    -0.001366
                              3.230992     0.110673
                              1.730655     0.103187
                              0.869483    -0.077840
                              0.440589    -0.217735
                              0.215859    -0.188345
                              0.091015     0.201020
                              0.040174     0.637069
                              0.017215     0.326669
   29.1 A     1  2pz   52575799.000000    -0.000000
                       15301659.000000    -0.000000
                        4822461.600000    -0.000001
                        1632045.600000    -0.000002
                         584338.640000    -0.000005
                         219508.320000    -0.000010
                          86085.039000    -0.000024
                          35172.956000    -0.000058
                          14975.745000    -0.000140
                           6652.821900    -0.000342
                           3084.270200    -0.000823
                           1489.211300    -0.001861
                            745.288670    -0.003664
                            384.521300    -0.005398
                            203.927220    -0.002991
                            110.523340     0.008482
                             61.345569     0.024454
                             34.404375     0.013272
                             19.094147    -0.032305
                             10.684628    -0.067432
                              5.931463    -0.001366
                              3.230992     0.110673
                              1.730655     0.103187
                              0.869483    -0.077840
                              0.440589    -0.217735
                              0.215859    -0.188345
                              0.091015     0.201020
                              0.040174     0.637069
                              0.017215     0.326669
   30.1 A     1  2px   52575799.000000    -0.000001
                       15301659.000000    -0.000001
                        4822461.600000    -0.000003
                        1632045.600000    -0.000005
                         584338.640000    -0.000013
                         219508.320000    -0.000028
                          86085.039000    -0.000066
                          35172.956000    -0.000156
                          14975.745000    -0.000379
                           6652.821900    -0.000925
                           3084.270200    -0.002224
                           1489.211300    -0.005040
                            745.288670    -0.009895
                            384.521300    -0.014653
                            203.927220    -0.007970
                            110.523340     0.022757
                             61.345569     0.067049
                             34.404375     0.034635
                             19.094147    -0.086605
                             10.684628    -0.190567
                              5.931463     0.011210
                              3.230992     0.295370
                              1.730655     0.357708
                              0.869483    -0.483437
                              0.440589    -0.603385
                              0.215859     0.215887
                              0.091015     0.715465
                              0.040174     0.271767
                              0.017215     0.004114
   31.1 A     1  2py   52575799.000000    -0.000001
                       15301659.000000    -0.000001
                        4822461.600000    -0.000003
                        1632045.600000    -0.000005
                         584338.640000    -0.000013
                         219508.320000    -0.000028
                          86085.039000    -0.000066
                          35172.956000    -0.000156
                          14975.745000    -0.000379
                           6652.821900    -0.000925
                           3084.270200    -0.002224
                           1489.211300    -0.005040
                            745.288670    -0.009895
                            384.521300    -0.014653
                            203.927220    -0.007970
                            110.523340     0.022757
                             61.345569     0.067049
                             34.404375     0.034635
                             19.094147    -0.086605
                             10.684628    -0.190567
                              5.931463     0.011210
                              3.230992     0.295370
                              1.730655     0.357708
                              0.869483    -0.483437
                              0.440589    -0.603385
                              0.215859     0.215887
                              0.091015     0.715465
                              0.040174     0.271767
                              0.017215     0.004114
   32.1 A     1  2pz   52575799.000000    -0.000001
                       15301659.000000    -0.000001
                        4822461.600000    -0.000003
                        1632045.600000    -0.000005
                         584338.640000    -0.000013
                         219508.320000    -0.000028
                          86085.039000    -0.000066
                          35172.956000    -0.000156
                          14975.745000    -0.000379
                           6652.821900    -0.000925
                           3084.270200    -0.002224
                           1489.211300    -0.005040
                            745.288670    -0.009895
                            384.521300    -0.014653
                            203.927220    -0.007970
                            110.523340     0.022757
                             61.345569     0.067049
                             34.404375     0.034635
                             19.094147    -0.086605
                             10.684628    -0.190567
                              5.931463     0.011210
                              3.230992     0.295370
                              1.730655     0.357708
                              0.869483    -0.483437
                              0.440589    -0.603385
                              0.215859     0.215887
                              0.091015     0.715465
                              0.040174     0.271767
                              0.017215     0.004114
   33.1 A     1  2px   52575799.000000    -0.000001
                       15301659.000000    -0.000001
                        4822461.600000    -0.000004
                        1632045.600000    -0.000009
                         584338.640000    -0.000021
                         219508.320000    -0.000047
                          86085.039000    -0.000111
                          35172.956000    -0.000263
                          14975.745000    -0.000636
                           6652.821900    -0.001554
                           3084.270200    -0.003739
                           1489.211300    -0.008475
                            745.288670    -0.016642
                            384.521300    -0.024644
                            203.927220    -0.013367
                            110.523340     0.038637
                             61.345569     0.114090
                             34.404375     0.057493
                             19.094147    -0.152735
                             10.684628    -0.335275
                              5.931463     0.054116
                              3.230992     0.556566
                              1.730655     0.705542
                              0.869483    -1.835570
                              0.440589    -0.012121
                              0.215859     1.665730
                              0.091015    -0.585220
                              0.040174    -0.541179
                              0.017215     0.007323
   34.1 A     1  2py   52575799.000000    -0.000001
                       15301659.000000    -0.000001
                        4822461.600000    -0.000004
                        1632045.600000    -0.000009
                         584338.640000    -0.000021
                         219508.320000    -0.000047
                          86085.039000    -0.000111
                          35172.956000    -0.000263
                          14975.745000    -0.000636
                           6652.821900    -0.001554
                           3084.270200    -0.003739
                           1489.211300    -0.008475
                            745.288670    -0.016642
                            384.521300    -0.024644
                            203.927220    -0.013367
                            110.523340     0.038637
                             61.345569     0.114090
                             34.404375     0.057493
                             19.094147    -0.152735
                             10.684628    -0.335275
                              5.931463     0.054116
                              3.230992     0.556566
                              1.730655     0.705542
                              0.869483    -1.835570
                              0.440589    -0.012121
                              0.215859     1.665730
                              0.091015    -0.585220
                              0.040174    -0.541179
                              0.017215     0.007323
   35.1 A     1  2pz   52575799.000000    -0.000001
                       15301659.000000    -0.000001
                        4822461.600000    -0.000004
                        1632045.600000    -0.000009
                         584338.640000    -0.000021
                         219508.320000    -0.000047
                          86085.039000    -0.000111
                          35172.956000    -0.000263
                          14975.745000    -0.000636
                           6652.821900    -0.001554
                           3084.270200    -0.003739
                           1489.211300    -0.008475
                            745.288670    -0.016642
                            384.521300    -0.024644
                            203.927220    -0.013367
                            110.523340     0.038637
                             61.345569     0.114090
                             34.404375     0.057493
                             19.094147    -0.152735
                             10.684628    -0.335275
                              5.931463     0.054116
                              3.230992     0.556566
                              1.730655     0.705542
                              0.869483    -1.835570
                              0.440589    -0.012121
                              0.215859     1.665730
                              0.091015    -0.585220
                              0.040174    -0.541179
                              0.017215     0.007323
   36.1 A     1  2px   52575799.000000    -0.000001
                       15301659.000000    -0.000002
                        4822461.600000    -0.000006
                        1632045.600000    -0.000012
                         584338.640000    -0.000030
                         219508.320000    -0.000066
                          86085.039000    -0.000157
                          35172.956000    -0.000360
                          14975.745000    -0.000908
                           6652.821900    -0.002110
                           3084.270200    -0.005394
                           1489.211300    -0.011352
                            745.288670    -0.024563
                            384.521300    -0.031084
                            203.927220    -0.026677
                            110.523340     0.074398
                             61.345569     0.122621
                             34.404375     0.158055
                             19.094147    -0.396610
                             10.684628    -0.217370
                              5.931463    -0.310283
                              3.230992     1.975310
                              1.730655    -0.901781
                              0.869483    -2.796670
                              0.440589     4.376690
                              0.215859    -2.312120
                              0.091015    -0.328877
                              0.040174     0.867979
                              0.017215    -0.037454
   37.1 A     1  2py   52575799.000000    -0.000001
                       15301659.000000    -0.000002
                        4822461.600000    -0.000006
                        1632045.600000    -0.000012
                         584338.640000    -0.000030
                         219508.320000    -0.000066
                          86085.039000    -0.000157
                          35172.956000    -0.000360
                          14975.745000    -0.000908
                           6652.821900    -0.002110
                           3084.270200    -0.005394
                           1489.211300    -0.011352
                            745.288670    -0.024563
                            384.521300    -0.031084
                            203.927220    -0.026677
                            110.523340     0.074398
                             61.345569     0.122621
                             34.404375     0.158055
                             19.094147    -0.396610
                             10.684628    -0.217370
                              5.931463    -0.310283
                              3.230992     1.975310
                              1.730655    -0.901781
                              0.869483    -2.796670
                              0.440589     4.376690
                              0.215859    -2.312120
                              0.091015    -0.328877
                              0.040174     0.867979
                              0.017215    -0.037454
   38.1 A     1  2pz   52575799.000000    -0.000001
                       15301659.000000    -0.000002
                        4822461.600000    -0.000006
                        1632045.600000    -0.000012
                         584338.640000    -0.000030
                         219508.320000    -0.000066
                          86085.039000    -0.000157
                          35172.956000    -0.000360
                          14975.745000    -0.000908
                           6652.821900    -0.002110
                           3084.270200    -0.005394
                           1489.211300    -0.011352
                            745.288670    -0.024563
                            384.521300    -0.031084
                            203.927220    -0.026677
                            110.523340     0.074398
                             61.345569     0.122621
                             34.404375     0.158055
                             19.094147    -0.396610
                             10.684628    -0.217370
                              5.931463    -0.310283
                              3.230992     1.975310
                              1.730655    -0.901781
                              0.869483    -2.796670
                              0.440589     4.376690
                              0.215859    -2.312120
                              0.091015    -0.328877
                              0.040174     0.867979
                              0.017215    -0.037454
   39.1 A     1  2px   52575799.000000     0.000000
                       15301659.000000     0.000000
                        4822461.600000     0.000000
                        1632045.600000     0.000000
                         584338.640000     0.000000
                         219508.320000     0.000000
                          86085.039000     0.000000
                          35172.956000     0.000000
                          14975.745000     0.000000
                           6652.821900     0.000000
                           3084.270200     0.000000
                           1489.211300     0.000000
                            745.288670     0.000000
                            384.521300     0.000000
                            203.927220     0.000000
                            110.523340     0.000000
                             61.345569     0.000000
                             34.404375     0.000000
                             19.094147     0.000000
                             10.684628     0.000000
                              5.931463     0.000000
                              3.230992     0.000000
                              1.730655     0.000000
                              0.869483     0.000000
                              0.440589     0.000000
                              0.215859     0.000000
                              0.091015     0.000000
                              0.040174     0.000000
                              0.017215     1.000000
   40.1 A     1  2py   52575799.000000     0.000000
                       15301659.000000     0.000000
                        4822461.600000     0.000000
                        1632045.600000     0.000000
                         584338.640000     0.000000
                         219508.320000     0.000000
                          86085.039000     0.000000
                          35172.956000     0.000000
                          14975.745000     0.000000
                           6652.821900     0.000000
                           3084.270200     0.000000
                           1489.211300     0.000000
                            745.288670     0.000000
                            384.521300     0.000000
                            203.927220     0.000000
                            110.523340     0.000000
                             61.345569     0.000000
                             34.404375     0.000000
                             19.094147     0.000000
                             10.684628     0.000000
                              5.931463     0.000000
                              3.230992     0.000000
                              1.730655     0.000000
                              0.869483     0.000000
                              0.440589     0.000000
                              0.215859     0.000000
                              0.091015     0.000000
                              0.040174     0.000000
                              0.017215     1.000000
   41.1 A     1  2pz   52575799.000000     0.000000
                       15301659.000000     0.000000
                        4822461.600000     0.000000
                        1632045.600000     0.000000
                         584338.640000     0.000000
                         219508.320000     0.000000
                          86085.039000     0.000000
                          35172.956000     0.000000
                          14975.745000     0.000000
                           6652.821900     0.000000
                           3084.270200     0.000000
                           1489.211300     0.000000
                            745.288670     0.000000
                            384.521300     0.000000
                            203.927220     0.000000
                            110.523340     0.000000
                             61.345569     0.000000
                             34.404375     0.000000
                             19.094147     0.000000
                             10.684628     0.000000
                              5.931463     0.000000
                              3.230992     0.000000
                              1.730655     0.000000
                              0.869483     0.000000
                              0.440589     0.000000
                              0.215859     0.000000
                              0.091015     0.000000
                              0.040174     0.000000
                              0.017215     1.000000
   42.1 A     1  3d0     105911.200000     0.000020
                          24974.572000     0.000129
                           8108.852700     0.000677
                           3150.520500     0.003052
                           1380.647900     0.011950
                            658.188950     0.039706
                            332.909040     0.108875
                            176.023220     0.231727
                             95.780704     0.354949
                             53.337287     0.336096
                             29.864821     0.140603
                             16.526778    -0.033742
                              9.155323    -0.064042
                              4.984876    -0.024095
                              2.636633    -0.002233
                              1.354062     0.000305
                              0.656031     0.000103
                              0.269853     0.000008
                              0.103443     0.000000
                              0.036685     0.000000
   43.1 A     1  3d2-    105911.200000     0.000020
                          24974.572000     0.000129
                           8108.852700     0.000677
                           3150.520500     0.003052
                           1380.647900     0.011950
                            658.188950     0.039706
                            332.909040     0.108875
                            176.023220     0.231727
                             95.780704     0.354949
                             53.337287     0.336096
                             29.864821     0.140603
                             16.526778    -0.033742
                              9.155323    -0.064042
                              4.984876    -0.024095
                              2.636633    -0.002233
                              1.354062     0.000305
                              0.656031     0.000103
                              0.269853     0.000008
                              0.103443     0.000000
                              0.036685     0.000000
   44.1 A     1  3d1+    105911.200000     0.000020
                          24974.572000     0.000129
                           8108.852700     0.000677
                           3150.520500     0.003052
                           1380.647900     0.011950
                            658.188950     0.039706
                            332.909040     0.108875
                            176.023220     0.231727
                             95.780704     0.354949
                             53.337287     0.336096
                             29.864821     0.140603
                             16.526778    -0.033742
                              9.155323    -0.064042
                              4.984876    -0.024095
                              2.636633    -0.002233
                              1.354062     0.000305
                              0.656031     0.000103
                              0.269853     0.000008
                              0.103443     0.000000
                              0.036685     0.000000
   45.1 A     1  3d2+    105911.200000     0.000020
                          24974.572000     0.000129
                           8108.852700     0.000677
                           3150.520500     0.003052
                           1380.647900     0.011950
                            658.188950     0.039706
                            332.909040     0.108875
                            176.023220     0.231727
                             95.780704     0.354949
                             53.337287     0.336096
                             29.864821     0.140603
                             16.526778    -0.033742
                              9.155323    -0.064042
                              4.984876    -0.024095
                              2.636633    -0.002233
                              1.354062     0.000305
                              0.656031     0.000103
                              0.269853     0.000008
                              0.103443     0.000000
                              0.036685     0.000000
   46.1 A     1  3d1-    105911.200000     0.000020
                          24974.572000     0.000129
                           8108.852700     0.000677
                           3150.520500     0.003052
                           1380.647900     0.011950
                            658.188950     0.039706
                            332.909040     0.108875
                            176.023220     0.231727
                             95.780704     0.354949
                             53.337287     0.336096
                             29.864821     0.140603
                             16.526778    -0.033742
                              9.155323    -0.064042
                              4.984876    -0.024095
                              2.636633    -0.002233
                              1.354062     0.000305
                              0.656031     0.000103
                              0.269853     0.000008
                              0.103443     0.000000
                              0.036685     0.000000
   47.1 A     1  3d0     105911.200000    -0.000007
                          24974.572000    -0.000047
                           8108.852700    -0.000246
                           3150.520500    -0.001113
                           1380.647900    -0.004403
                            658.188950    -0.014782
                            332.909040    -0.041545
                            176.023220    -0.089264
                             95.780704    -0.132364
                             53.337287    -0.078125
                             29.864821     0.163137
                             16.526778     0.427766
                              9.155323     0.404323
                              4.984876     0.149842
                              2.636633     0.013528
                              1.354062    -0.001244
                              0.656031    -0.000625
                              0.269853    -0.000007
                              0.103443    -0.000015
                              0.036685     0.000003
   48.1 A     1  3d2-    105911.200000    -0.000007
                          24974.572000    -0.000047
                           8108.852700    -0.000246
                           3150.520500    -0.001113
                           1380.647900    -0.004403
                            658.188950    -0.014782
                            332.909040    -0.041545
                            176.023220    -0.089264
                             95.780704    -0.132364
                             53.337287    -0.078125
                             29.864821     0.163137
                             16.526778     0.427766
                              9.155323     0.404323
                              4.984876     0.149842
                              2.636633     0.013528
                              1.354062    -0.001244
                              0.656031    -0.000625
                              0.269853    -0.000007
                              0.103443    -0.000015
                              0.036685     0.000003
   49.1 A     1  3d1+    105911.200000    -0.000007
                          24974.572000    -0.000047
                           8108.852700    -0.000246
                           3150.520500    -0.001113
                           1380.647900    -0.004403
                            658.188950    -0.014782
                            332.909040    -0.041545
                            176.023220    -0.089264
                             95.780704    -0.132364
                             53.337287    -0.078125
                             29.864821     0.163137
                             16.526778     0.427766
                              9.155323     0.404323
                              4.984876     0.149842
                              2.636633     0.013528
                              1.354062    -0.001244
                              0.656031    -0.000625
                              0.269853    -0.000007
                              0.103443    -0.000015
                              0.036685     0.000003
   50.1 A     1  3d2+    105911.200000    -0.000007
                          24974.572000    -0.000047
                           8108.852700    -0.000246
                           3150.520500    -0.001113
                           1380.647900    -0.004403
                            658.188950    -0.014782
                            332.909040    -0.041545
                            176.023220    -0.089264
                             95.780704    -0.132364
                             53.337287    -0.078125
                             29.864821     0.163137
                             16.526778     0.427766
                              9.155323     0.404323
                              4.984876     0.149842
                              2.636633     0.013528
                              1.354062    -0.001244
                              0.656031    -0.000625
                              0.269853    -0.000007
                              0.103443    -0.000015
                              0.036685     0.000003
   51.1 A     1  3d1-    105911.200000    -0.000007
                          24974.572000    -0.000047
                           8108.852700    -0.000246
                           3150.520500    -0.001113
                           1380.647900    -0.004403
                            658.188950    -0.014782
                            332.909040    -0.041545
                            176.023220    -0.089264
                             95.780704    -0.132364
                             53.337287    -0.078125
                             29.864821     0.163137
                             16.526778     0.427766
                              9.155323     0.404323
                              4.984876     0.149842
                              2.636633     0.013528
                              1.354062    -0.001244
                              0.656031    -0.000625
                              0.269853    -0.000007
                              0.103443    -0.000015
                              0.036685     0.000003
   52.1 A     1  3d0     105911.200000     0.000004
                          24974.572000     0.000029
                           8108.852700     0.000151
                           3150.520500     0.000680
                           1380.647900     0.002694
                            658.188950     0.009015
                            332.909040     0.025311
                            176.023220     0.054175
                             95.780704     0.081018
                             53.337287     0.048855
                             29.864821    -0.090265
                             16.526778    -0.246113
                              9.155323    -0.206236
                              4.984876     0.172306
                              2.636633     0.505507
                              1.354062     0.395599
                              0.656031     0.111489
                              0.269853     0.006247
                              0.103443    -0.000029
                              0.036685    -0.000036
   53.1 A     1  3d2-    105911.200000     0.000004
                          24974.572000     0.000029
                           8108.852700     0.000151
                           3150.520500     0.000680
                           1380.647900     0.002694
                            658.188950     0.009015
                            332.909040     0.025311
                            176.023220     0.054175
                             95.780704     0.081018
                             53.337287     0.048855
                             29.864821    -0.090265
                             16.526778    -0.246113
                              9.155323    -0.206236
                              4.984876     0.172306
                              2.636633     0.505507
                              1.354062     0.395599
                              0.656031     0.111489
                              0.269853     0.006247
                              0.103443    -0.000029
                              0.036685    -0.000036
   54.1 A     1  3d1+    105911.200000     0.000004
                          24974.572000     0.000029
                           8108.852700     0.000151
                           3150.520500     0.000680
                           1380.647900     0.002694
                            658.188950     0.009015
                            332.909040     0.025311
                            176.023220     0.054175
                             95.780704     0.081018
                             53.337287     0.048855
                             29.864821    -0.090265
                             16.526778    -0.246113
                              9.155323    -0.206236
                              4.984876     0.172306
                              2.636633     0.505507
                              1.354062     0.395599
                              0.656031     0.111489
                              0.269853     0.006247
                              0.103443    -0.000029
                              0.036685    -0.000036
   55.1 A     1  3d2+    105911.200000     0.000004
                          24974.572000     0.000029
                           8108.852700     0.000151
                           3150.520500     0.000680
                           1380.647900     0.002694
                            658.188950     0.009015
                            332.909040     0.025311
                            176.023220     0.054175
                             95.780704     0.081018
                             53.337287     0.048855
                             29.864821    -0.090265
                             16.526778    -0.246113
                              9.155323    -0.206236
                              4.984876     0.172306
                              2.636633     0.505507
                              1.354062     0.395599
                              0.656031     0.111489
                              0.269853     0.006247
                              0.103443    -0.000029
                              0.036685    -0.000036
   56.1 A     1  3d1-    105911.200000     0.000004
                          24974.572000     0.000029
                           8108.852700     0.000151
                           3150.520500     0.000680
                           1380.647900     0.002694
                            658.188950     0.009015
                            332.909040     0.025311
                            176.023220     0.054175
                             95.780704     0.081018
                             53.337287     0.048855
                             29.864821    -0.090265
                             16.526778    -0.246113
                              9.155323    -0.206236
                              4.984876     0.172306
                              2.636633     0.505507
                              1.354062     0.395599
                              0.656031     0.111489
                              0.269853     0.006247
                              0.103443    -0.000029
                              0.036685    -0.000036
   57.1 A     1  3d0     105911.200000    -0.000001
                          24974.572000    -0.000008
                           8108.852700    -0.000042
                           3150.520500    -0.000189
                           1380.647900    -0.000746
                            658.188950    -0.002504
                            332.909040    -0.007016
                            176.023220    -0.015063
                             95.780704    -0.022420
                             53.337287    -0.013378
                             29.864821     0.026555
                             16.526778     0.070496
                              9.155323     0.058301
                              4.984876    -0.065834
                              2.636633    -0.177473
                              1.354062    -0.127085
                              0.656031     0.181760
                              0.269853     0.495490
                              0.103443     0.447072
                              0.036685     0.116353
   58.1 A     1  3d2-    105911.200000    -0.000001
                          24974.572000    -0.000008
                           8108.852700    -0.000042
                           3150.520500    -0.000189
                           1380.647900    -0.000746
                            658.188950    -0.002504
                            332.909040    -0.007016
                            176.023220    -0.015063
                             95.780704    -0.022420
                             53.337287    -0.013378
                             29.864821     0.026555
                             16.526778     0.070496
                              9.155323     0.058301
                              4.984876    -0.065834
                              2.636633    -0.177473
                              1.354062    -0.127085
                              0.656031     0.181760
                              0.269853     0.495490
                              0.103443     0.447072
                              0.036685     0.116353
   59.1 A     1  3d1+    105911.200000    -0.000001
                          24974.572000    -0.000008
                           8108.852700    -0.000042
                           3150.520500    -0.000189
                           1380.647900    -0.000746
                            658.188950    -0.002504
                            332.909040    -0.007016
                            176.023220    -0.015063
                             95.780704    -0.022420
                             53.337287    -0.013378
                             29.864821     0.026555
[...]
                                   11  3  pz   0.26107   11  4  pz   0.52489   12  5  s   -1.93180   12  6  s  -10.93082
                                   12  5  py   0.88067   12  3  d0   0.37445   13  4  s    0.26757   13  5  s    2.85955
                                   13  4  px  -0.77808   13  4  py  -0.31215   14  4  s    0.27617   14  5  s    2.82364
                                   14  4  px   0.69242   14  4  py  -0.61433   14  4  pz   0.28060
   93.1     0.00000     0.14052     1 11  s   -0.32087    1  5  pz   0.28818    1  6  pz   1.25017    1 10  px   1.75919
                                    1 10  pz  -3.80668    1  4  d2- -0.25923    1  4  d1-  0.50850    1  5  d1- -0.29428
                                    1  8  d2- -0.33022    1  8  d1+  1.22848    1  8  d2+ -0.33968    1  8  d1-  1.06008
                                    1  6  f2+ -0.26266    2  5  s   -0.51084    2  4  px   0.36338    3  4  s   -0.59288
                                    4  4  px  -0.31999    4  4  py   0.29420    4  4  pz   0.29547    5  4  s   -1.04511
                                    6  5  s    0.97221    6  4  px  -0.33849    7  3  s   -1.04597    7  4  s   -3.03240
                                    8  4  s   -0.28503    8  5  s   -0.70310    8  3  px   0.32048    8  4  px   0.70249
                                    9  3  s    1.38183    9  4  s    4.75283    9  3  px   0.33909   10  5  s   -2.61264
                                   10  4  px  -0.29676   10  4  py   0.25611   10  4  pz   0.34445   11  5  s    1.93296
                                   11  4  py  -0.61908   11  4  pz   0.25150   12  6  s    1.02956   12  4  pz   0.43467
   94.1     0.00000     0.14089     1 11  s   -1.82042    1  6  py  -1.96584    1  6  pz  -0.52006    1  7  py   0.73789
                                    1 10  px   2.24773    1 10  py   3.60910    1 10  pz   1.66520    1  4  d0  -0.28420
                                    1  4  d2- -0.34164    1  4  d1+  0.37106    1  4  d2+  0.49731    1  4  d1- -0.31103
                                    1  5  d2+ -0.26177    1  8  d0  -1.04174    1  8  d2- -0.59661    1  8  d1+  0.58531
                                    1  8  d2+  0.29660    1  8  d1- -0.70130    2  5  s   -1.56107    2  3  px   0.26710
                                    2  4  px   1.37428    2  4  py   0.43768    2  4  pz   0.45198    3  3  s   -0.33975
                                    3  4  s   -2.21395    4  5  s   -0.96480    4  4  px  -0.77412    4  4  py   0.67548
                                    4  4  pz  -0.37603    5  3  s   -0.44408    5  4  s   -3.35916    6  3  pz   0.28749
                                    6  4  px   0.52090    6  4  py   0.61887    6  4  pz   0.65430    7  3  s    1.10137
                                    7  4  s    4.84211    8  5  s    0.45763    8  4  px   0.44312    8  4  py   0.40346
                                    8  4  pz  -0.29572    9  3  s    0.37363    9  4  s    2.66627   10  5  s    0.34587
                                   10  4  py  -0.85187   11  5  s   -1.04288   11  4  py  -0.59444   12  6  s    1.40751
                                   12  4  py  -0.25431   12  5  px  -0.57358   12  5  py  -0.81216   13  5  s    0.53255
   95.1     0.00000     0.15415     1  5  s    0.39044    1  6  s    1.40631    1  7  s    1.93760    1 11  s   -5.59304
                                    1  4  px  -0.26178    1  5  px  -1.42437    1  5  py  -0.45887    1  5  pz  -0.37829
                                    1  6  px  -3.49379    1  6  py  -2.83668    1  6  pz  -0.72980    1  7  py   0.85045
                                    1 10  px  -2.13022    1 10  py   1.80649    1 10  pz  -1.15950    1  8  d0   0.26026
                                    1  8  d2- -0.50050    2  4  s   -0.42997    2  5  s   -1.28975    2  3  px  -0.39842
                                    2  4  px  -1.12051    2  4  py  -0.42752    2  4  pz  -0.38279    3  3  s   -1.32417
                                    3  4  s   -3.66910    3  3  py   0.28857    4  5  s    0.42365    4  4  px  -0.54236
                                    4  4  py   0.69114    4  4  pz  -0.26199    5  3  s    1.98462    5  4  s    6.27082
                                    5  3  px  -0.45274    5  3  py  -0.29398    6  5  s   -1.73849    6  4  py  -0.29783
                                    7  3  s    0.71180    7  4  s    0.46101    8  5  s   -1.99293    8  4  pz   0.33239
                                    9  3  s    0.91431    9  4  s    0.83732   10  5  s   -1.14192   10  4  py  -0.45171
                                   10  4  pz   0.47645   11  5  s   -0.98709   11  4  px   0.26628   11  4  py  -0.54465
                                   12  5  s    0.75375   12  6  s    6.77785   12  5  px  -0.59795   12  5  py  -0.91090
                                   12  3  d2- -0.31428   13  5  s   -1.18122   13  4  py   0.44461   14  5  s   -1.62692
                                   14  4  px  -0.39122
   96.1     0.00000     0.16866     1  6  s   -0.91400    1  7  s   -1.47191    1 11  s   18.01899    1  5  py   1.49180
                                    1  6  px   1.24815    1  6  py   8.32957    1  6  pz  -0.26025    1  7  px  -1.00829
                                    1  7  py  -2.36479    1  8  py   0.64102    1 10  px  -5.54609    1 10  py  -3.00292
                                    1 10  pz  -1.42423    1  8  d0  -0.58866    1  8  d2-  0.53992    1  8  d2+ -0.40884
                                    1  6  f1-  0.26395    2  5  s    0.51734    2  4  px  -0.73978    3  3  s   -1.32395
                                    3  4  s   -7.44962    3  3  py   0.36711    4  4  s    0.31380    4  5  s    1.09334
                                    4  4  px  -0.30446    4  4  py   1.02575    5  3  s    0.38188    5  4  s    0.76234
                                    6  4  s    0.29988    6  5  s    2.38404    6  4  px  -0.38168    6  4  pz  -0.48733
                                    7  3  s   -1.17136    7  4  s   -5.31500    7  3  px  -0.26674    8  4  s    0.30111
                                    8  5  s    2.28061    8  3  px  -0.27292    8  4  px  -0.57932    9  3  s   -1.14663
                                    9  4  s   -5.32205    9  3  px  -0.31590   10  5  s    2.43789   10  4  px   0.45603
                                   10  4  py   1.06804   10  4  pz  -0.87838   11  5  s    2.46375   11  4  py   1.17557
                                   11  4  pz   0.80108   12  5  s   -0.97202   12  6  s  -15.29104   12  4  py   0.30152
                                   12  5  px   0.82924   12  5  py   3.43464   12  3  d2+ -0.57429   13  5  s    2.87005
                                   13  4  px  -0.65216   13  4  py  -0.71810   14  5  s    2.36664   14  3  py  -0.25322
                                   14  4  py  -0.92956
   97.1     0.00000     0.19283     1  4  s    0.50340    1  5  s    1.62701    1  6  s    6.41628    1  7  s    9.84021
                                    1  8  s   -1.06950    1  9  s   -0.56304    1 11  s  -12.62797    1  5  px   0.76300
                                    1  5  py   1.28469    1  6  px   2.17809    1  6  py   1.73608    1  6  pz   0.76728
                                    1  7  py   0.98999    1 10  px   1.13652    1 10  py  -0.93221    1 10  pz   0.27855
                                    1  4  d0  -0.62435    1  4  d2-  0.43138    1  4  d2+ -0.66731    1  5  d0   0.38505
                                    1  5  d2+  0.38135    1  8  d0  -0.57806    1  8  d2-  0.49453    1  8  d2+ -0.45132
                                    1  6  f1- -0.56300    1  6  f2-  0.26436    3  3  s   -0.38289    3  4  s    3.08951
                                    4  5  s    0.89510    5  3  s   -0.39683    5  4  s    0.43360    6  5  s   -0.77165
                                    7  4  s    2.39183    8  5  s   -0.92573    9  4  s    2.47100   10  5  s    1.03091
                                   10  3  py   0.34236   10  4  px  -0.38649   10  4  pz   0.88964   11  5  s    1.12869
                                   11  3  py   0.31859   11  4  py  -0.49816   11  4  pz  -0.83167   12  5  s    0.48936
                                   12  6  s   -6.20952   12  4  px   0.51420   12  4  py   1.92736   12  5  px   1.13535
                                   12  5  py   4.99411   12  5  pz  -0.27616   13  4  s   -0.34920   13  5  s    0.26136
                                   13  4  py  -1.12975   14  4  s   -0.30534   14  5  s    0.33644   14  4  px  -0.32096
                                   14  4  py  -1.06116
   98.1     0.00000     0.20028     1 11  s    0.50556    1  4  pz  -0.27731    1  5  px   0.38341    1  5  pz  -1.50555
                                    1  6  px   0.78493    1  6  py  -0.39552    1  6  pz  -3.39244    1  7  pz  -0.31904
                                    1 10  pz   0.25400    1  4  d1+ -0.34627    1  8  d0  -1.37433    1  8  d2- -0.52433
                                    1  8  d1+ -1.61524    1  8  d2+  0.54366    1  8  d1-  0.89063    2  4  px  -0.43253
                                    2  4  pz   1.32696    4  5  s   -0.28750    4  4  pz  -0.70111    5  3  pz  -0.35955
                                    6  5  s   -1.74427    6  4  px  -0.92273    6  4  pz  -0.40213    7  3  s    0.43586
                                    7  4  s   -0.70433    7  3  px   0.27300    8  5  s    1.89609    8  4  px   1.05358
                                    8  4  py   0.25435    9  3  s   -0.56525    9  4  s    0.34856    9  3  px  -0.35494
                                    9  3  py  -0.25924   10  4  s   -0.26198   10  5  s   -0.82288   10  3  py  -0.27251
                                   10  4  px   0.49097   10  4  py  -1.51328   10  4  pz  -0.44452   11  4  s    0.25527
                                   11  5  s    0.73121   11  3  py   0.27564   11  4  py   1.30147   11  4  pz  -0.96748
                                   12  4  px  -0.41174   12  4  pz   1.32018   12  5  px  -1.17369   12  5  py   0.37377
                                   12  5  pz   3.89412   13  4  px   0.26661   13  4  pz  -0.81679   14  4  px   0.25532
                                   14  4  pz  -0.73676


 HOMO     88.1    -0.305395 =      -8.3102eV
 LUMO     89.1     0.110499 =       3.0068eV
 LUMO-HOMO         0.415894 =      11.3170eV

 Orbitals saved in record  2100.2


 **********************************************************************************************************************************
 DATASETS  * FILE   NREC   LENGTH (MB)   RECORD NAMES
              1      22       64.72       500      610      700      900      950      970     1000      129      960     1700   
                                          VAR    BASINP    GEOM    SYMINP    ZMAT    AOBASIS   BASIS     P2S    ABASIS    OPER   
                                         1101     1401     1411     1412     1650     1100     1400     1410     1200     1210   
                                          SR      EKINR    POTR     PVPR    MOLCAS      S      EKIN      POT      H0       H01  
                                         1080     1600   
                                         AOSYM     SMH  

              2       6       19.11       500      610      700     1000      520     2100   
                                          VAR    BASINP    GEOM     BASIS   MCVARS     RHF  

 PROGRAMS   *        TOTAL    HF-SCF       INT      FILE
 CPU TIMES  *      3402.02   2179.46   1222.32      0.02
 REAL TIME  *      3676.17 SEC
 DISK USED  *       114.99 MB (local),      289.00 GB (total)
 GA USED    *         0.01 MB       (max)       0.00 MB       (current)
 **********************************************************************************************************************************


 PROGRAM * CCSD (Closed-shell coupled cluster)     Authors: C. Hampel, H.-J. Werner, 1991, M. Deegan, P.J. Knowles, 1992


 Convergence thresholds:  THRVAR = 1.00D-08  THRDEN = 1.00D-06

 CCSD(T)     terms to be evaluated (factor= 1.000)


 Number of core orbitals:          52 (  52 )
 Number of closed-shell orbitals:  36 (  36 )
 Number of external orbitals:     583 ( 583 )

 Molecular orbitals read from record     2100.2  Type=RHF/CANONICAL  

 Number of N-1 electron functions:              36
 Number of N-2 electron functions:             666
 Number of singly external CSFs:             20988
 Number of doubly external CSFs:         220258566
 Total number of CSFs:                   220279555

 Length of J-op  integral file:               0.00 MB
 Length of K-op  integral file:              30.92 MB
 Length of 3-ext integral record:             0.00 MB

 For full I/O caching in triples, increase memory by 3126.01 Mwords to 8126.06 Mwords.

 Multipassing necessary in transformation. To avoid, increase memory by 1076.93 Mwords.

 Integral transformation finished. Total CPU:8130.59 sec, npass=  2  Memory used:4863.89 MW

 Reference energy:                 -28221.95895194

 MP2 singlet pair energy:              -1.55274550
 MP2 triplet pair energy:              -1.06714340
 MP2 correlation energy:               -2.61988890
 MP2 total energy:                 -28224.57884084

 SCS-MP2 correlation energy:           -2.52729494   (PS=  1.200000  PT=  0.333333)
 SCS-MP2 total energy:             -28224.48624687

 ITER.      SQ.NORM     CORR.ENERGY   TOTAL ENERGY   ENERGY CHANGE        DEN1      VAR(S)    VAR(P)  DIIS     TIME  TIME/IT
   1      1.64258194    -2.60350778-28224.56245972     0.01638112     0.10956887  0.37D-01  0.17D-01  1  1 15541.77  4034.48
   2      1.69093853    -2.59224554-28224.55119748     0.01126224    -0.06607847  0.55D-03  0.28D-02  2  2 19332.35  3947.01
   3      1.71853820    -2.59487269-28224.55382463    -0.00262715    -0.00815237  0.15D-02  0.19D-03  3  3 23551.56  4076.41
   4      1.73299270    -2.59315771-28224.55210965     0.00171498    -0.00501586  0.20D-03  0.45D-04  4  4 27606.38  4091.53
   5      1.74346155    -2.59253231-28224.55148425     0.00062540    -0.00226863  0.45D-04  0.61D-05  5  5 31435.98  4055.76
   6      1.74652909    -2.59235380-28224.55130574     0.00017851    -0.00028113  0.72D-05  0.19D-05  6  6 35340.07  4039.90
   7      1.74788630    -2.59222525-28224.55117719     0.00012856    -0.00004294  0.17D-05  0.38D-06  6  1 39335.79  4042.03
   8      1.74831709    -2.59220858-28224.55116052     0.00001667    -0.00006497  0.40D-06  0.93D-07  6  2 43376.53  4048.30
   9      1.74833221    -2.59222249-28224.55117443    -0.00001391     0.00003398  0.79D-07  0.27D-07  6  3 47070.57  4018.82
  10      1.74841739    -2.59220834-28224.55116028     0.00001415    -0.00002324  0.32D-07  0.57D-08  6  6 50450.30  3962.56
  11      1.74840698    -2.59221225-28224.55116418    -0.00000390     0.00000155  0.44D-08  0.16D-08  6  5 53681.21  3901.79
  12      1.74841665    -2.59221165-28224.55116358     0.00000060    -0.00000071  0.17D-08  0.35D-09  6  4 56891.92  3847.96
  13      1.74841247    -2.59221183-28224.55116377    -0.00000019     0.00000034  0.45D-09  0.15D-09  6  1 60160.48  3806.96

 Norm of t1 vector:      0.26564557      S-energy:    -0.00000009      T1 diagnostic:  0.02213713
                                                                       D1 diagnostic:  0.07057168
                                                                       D2 diagnostic:  0.14149343 (internal)

   CPU time for triples:   2220.15 sec for i =  1 -  4 / 36 (~   0.2 % done)
   CPU time for triples:   3931.41 sec for i =  5 -  6 / 36 (~   0.6 % done)
   CPU time for triples:   3662.24 sec for i =  7 -  7 / 36 (~   0.9 % done)
   CPU time for triples:   4750.05 sec for i =  8 -  8 / 36 (~   1.3 % done)
   CPU time for triples:   1936.25 sec for i =  9 -  9 / 36 (~   1.9 % done)
   CPU time for triples:  15454.27 sec for i = 10 - 20 / 36 (~  18.1 % done)
   CPU time for triples:   2287.79 sec for i = 21 - 21 / 36 (~  20.8 % done)
   CPU time for triples:  17855.60 sec for i = 22 - 24 / 36 (~  30.7 % done)
   CPU time for triples:  18608.45 sec for i = 25 - 27 / 36 (~  43.2 % done)
   CPU time for triples:   7272.79 sec for i = 28 - 29 / 36 (~  53.2 % done)
   CPU time for triples:   2173.34 sec for i = 30 - 30 / 36 (~  58.7 % done)
   CPU time for triples:   8456.65 sec for i = 31 - 31 / 36 (~  64.6 % done)
   CPU time for triples:   8736.80 sec for i = 32 - 32 / 36 (~  70.9 % done)
   CPU time for triples:  13170.93 sec for i = 33 - 33 / 36 (~  77.5 % done)
   CPU time for triples:   8676.63 sec for i = 34 - 34 / 36 (~  84.6 % done)
   CPU time for triples:   9594.37 sec for i = 35 - 35 / 36 (~  92.1 % done)
   CPU time for triples:  10826.09 sec for i = 36 - 36 / 36 (  100.0 % done)

 Total CPU time for triples: 139675.38 sec


 RESULTS
 =======

  Reference energy                   -28221.9589519385    
  CCSD singlet pair energy             -1.655053019998
  CCSD triplet pair energy             -0.937158718820
  CCSD correlation energy              -2.592211830938

  Triples (T) contribution             -0.127481345469
  Total correlation energy             -2.719693176406

  CCSD total energy                  -28224.5511637694    
  CCSD[T] energy                     -28224.6922010414    
  CCSD-T energy                      -28224.6737855989    
 !CCSD(T) total energy               -28224.6786451149    

 Timing summary (sec):

 STEP                 CPU(USER)    SYS     CPU(TOT)    WALL
 Transformation       8147.72    280.03   8427.75   8473.02
 CCSD iterations     52100.39    551.06  52651.45  49573.55
 Triples            139675.39   1047.62 140723.01 140704.10

 Program statistics:

 Available memory in ccsd:              4999994728
 Min. memory needed in ccsd:             488706660
 Max. memory used in ccsd:               698885046
 Max. memory used in cckext:             605554779 (13 integral passes)



 **********************************************************************************************************************************
 DATASETS  * FILE   NREC   LENGTH (MB)   RECORD NAMES
              1      23    30764.11       500      610      700      900      950      970     1000      129      960     1700   
                                          VAR    BASINP    GEOM    SYMINP    ZMAT    AOBASIS   BASIS     P2S    ABASIS    OPER   
                                         1101     1401     1411     1412     1650     1100     1400     1410     1200     1210   
                                          SR      EKINR    POTR     PVPR    MOLCAS      S      EKIN      POT      H0       H01  
                                         1080     1600     1380   
                                         AOSYM     SMH     JKOP   

              2       6       19.11       500      610      700     1000      520     2100   
                                          VAR    BASINP    GEOM     BASIS   MCVARS     RHF  

 PROGRAMS   *        TOTAL   CCSD(T)    HF-SCF       INT      FILE
 CPU TIMES  *    199922.17 196520.02   2179.46   1222.32      0.02
 REAL TIME  *    202446.47 SEC
 DISK USED  *        50.30 GB (local),      548.84 GB (total)
 SF USED    *        51.82 GB
 GA USED    *         0.01 MB       (max)       0.00 MB       (current)
 **********************************************************************************************************************************
 SETTING ENERGY_HF(1)   =    -28221.95895194  AU                              
 SETTING CORR_MP2(1)    =        -2.61988890  AU                              
 SETTING CORR_CCSDT(1)  =        -2.71969318  AU                              

 CCSD(T)/PA=CC-PVTZ-X2C,O=AUG-CC-PVTZ-X2C,H=AUG-CC-PVTZ-X2C,S=AUG-CC-PVTZ-X2C energy= -28224.678645114876

         CCSD(T)          HF-SCF
 -28224.67864511 -28221.95895194
 **********************************************************************************************************************************
 Molpro calculation terminated
