

 Parallel Execution: Process Information
 ==============================================================================
 Rank   Node Name                              NodeID   MyNodeRank  NodeMaster
    0   u-0-8.local                               0          0          0
    1   u-0-8.local                               0          1         -1
    2   u-0-8.local                               1          0          1
    3   u-0-8.local                               1          1         -1
    4   u-0-8.local                               2          0          2
    5   u-0-8.local                               2          1         -1
    6   u-0-8.local                               3          0          3
    7   u-0-8.local                               3          1         -1
 ==============================================================================


May use up to 31228MB of RAM as shared memory on node 0
May use up to 31250MB of RAM as shared memory on node 1
May use up to 31250MB of RAM as shared memory on node 2
May use up to 31250MB of RAM as shared memory on node 3

 *******************************************************************************
 *                                                                             *
 *  --------------------------------                                           *
 *   Amsterdam Modeling Suite (AMS)              2022.103                      *
 *  --------------------------------                                           *
 *                                               r104886 2022-06-17            *
 *                                                                             *
 *                                                                             *
 *                              =================                              *
 *                              |               |                              *
 *                              |     A M S     |                              *
 *                              |               |                              *
 *                              =================                              *
 *                                                                             *
 *                                                                             *
 *   Online information and documentation:  https://www.scm.com/support/       *
 *   E-mail:  support@scm.com   info@scm.com                                   *
 *                                                                             *
 *   Scientific publications using AMS results must be properly referenced     *
 *   See the User Manuals (or the web site) for recommended citations          *
 *   The terms and conditions of the End User License Agreement apply to       *
 *   the use of AMS, https://www.scm.com/license-terms/                        *
 *                                                                             *
 **********************  x86_64_linux_intel / intelmpi  ************************
 
 Licensed to: Dr. Val?rie Vallet / Laboratoire PhLAM UMR 8523 / Villeneuve d'Ascq Cedex / FRANCE 2023-02-21 11:49:39
 SCM User ID: u10325
  
 AMS 2022.103  RunTime: Feb24-2023 17:27:38  ShM Nodes: 4  Procs: 8

 AMS jobname: pao_oh2_f_h2o.SR.b3lyp.tz2p.opt-freq-A1
 AMS jobid  : 28624755

 Start   directory: /home/shaaban/ams/PhD/fluoride/pao_oh2_f_h2o/gp/
 Results directory: /home/shaaban/ams/PhD/fluoride/pao_oh2_f_h2o/gp/pao_oh2_f_h2o.SR.b3lyp.tz2p.opt-freq-A1.results/
 Scratch directory: /state/partition2/shaaban/929583.phlam-s-sakura/amstmp_pao_oh2_f_h2o.SR.b3lyp.tz2p.opt-freq-A1_kid0.28624755/


 Communication costs MPI_COMM_WORLD:      2.741 usec per message,   0.0088 usec per 8-byte item
 Communication costs for intra-node:      0.518 usec per message,   0.0025 usec per 8-byte item

 RNG seed: -18851291 1490186348 -1759827355 -848712298 1308918327 1493775267 2046241877 -316825060



                      ************************************************************************
                      *  ADF 2022.103  RunTime: Feb24-2023 17:27:39  ShM Nodes: 4  Procs: 8  *
                      ************************************************************************
  
       ***************************
       *  GEOMETRY OPTIMIZATION  *
       ***************************

Optimization Method                    Quasi Newton
Optimization Coordinates               Delocalized Coordinates
Optimize lattice                       F
 
 ------------------------------------------------------
 Convergence criteria (Hartree,Angstrom)
 ------------------------------------------------------
 Maximum gradient               0.000100000000
 Maximum rms gradient           0.000066666667
 Maximum step allowed           0.001000000000
 Maximum rms step allowed       0.000666666667
 Maximum energy change allowe   0.000010000000
 Maximum stress energy allowe   0.000500000000
 
Initial model Hessian                  Automatic Hessian
 
------------------------------------
Quasi-Newton Optimizer Parameters
------------------------------------
Hessian Update Method                  BFGS
Maximum number of steps                  250
First GDIIS cycle                          0
Maximum GDIIS vectors                      0
Trust radius (bohr)                        0.200000
Trust radius varies                        T
Constraints converged at all steps         T
Use projector                              T
 
 Rigid motions settings for: old optimizer
 Atomic rotations (x,y,z):     T T T
 Atomic translations (x,y,z):  T T T
 Tolerance:                   1.000000000000000E-006
 
--------
Geometry
--------
Formula: H4FO4Pa
Atoms
  Index Symbol   x (angstrom)   y (angstrom)   z (angstrom)
      1     Pa     0.00918346     0.12531789    -0.04940702
      2      O     1.38522228     1.95518483    -0.00245830
      3      O    -0.82952215     2.25555387     0.00320090
      4      F    -2.26005792     0.09435306     0.00044025
      5      O     1.75691916    -0.00386655     1.24447560
      6      O    -0.11185549    -2.16077636    -0.10617526
      7      H    -0.91249323    -2.61353647    -0.38110707
      8      H     0.61063818    -2.76626708     0.07543938
      9      H     1.94588106     2.17603179     0.74486248
     10      H    -1.60566479     2.67989291    -0.36981249
 
Total System Charge             0.00000
Bonding info available!
 
 
----------------
ADF Engine Input
----------------
 
 Basis
 Type TZ2P
 Core None
 End
 XC
 Hybrid B3LYP
 End
 NumericalQuality Good
 

 Title: *** (NO TITLE) ***

 Using automatic Hessian for delocalized coordinates.
 *** GO1_GOStep1 ***



 ======================
 RI Hartree-Fock Scheme
 ======================
  
 Fit Set Quality     : GOOD
 Threshold Quality   : GOOD
 Integration Quality : GOOD
 Response Quality    : DEFAULT
 Is Range Separated  :  F
 
 RIHartreeFock Dependency: number of modified vectors:           4
  
 Hartree-Fock exchange energy:   -510.369031013784     

 Energy gradients wrt nuclear displacements
 ==========================================

     Atom      Cartesian (a.u./angstrom)
                 X         Y         Z
 ----------------------------------------
     1 Pa   -0.166531 -0.345354 -0.177303
     2 O     0.007501  0.039397  0.055457
     3 O     0.010727  0.057193  0.019442
     4 F    -0.074120  0.048041  0.003131
     5 O     0.205686  0.073928  0.102494
     6 O     0.003198  0.052584  0.010726
     7 H     0.010297  0.020368  0.001057
     8 H    -0.006489  0.015146 -0.008330
     9 H    -0.014266  0.022736  0.001456
    10 H     0.023995  0.015961 -0.008130
 ----------------------------------------
 Mulliken charges used for AMS results%charges...
 
----------------------------------------------------------------------
Geometry Convergence after Step   1       (Hartree/Angstrom,Angstrom)
----------------------------------------------------------------------
current energy                               -2.51156817 Hartree
energy change                      -2.51156817     0.00001000    F
constrained gradient max            0.34535634     0.00010000    F
constrained gradient rms            0.09279865     0.00006667    F
gradient max                        0.34535634
gradient rms                        0.09279865
cart. step max                      0.07812791     0.00100000    F
cart. step rms                      0.03367118     0.00066667    F
 
 
--------
Geometry
--------
Formula: H4FO4Pa
Atoms
  Index Symbol   x (angstrom)   y (angstrom)   z (angstrom)
      1     Pa     0.02116796     0.17665806    -0.04167738
      2      O     1.44222332     1.95919023    -0.01458022
      3      O    -0.88143449     2.26748009     0.00869297
      4      F    -2.22969843     0.06186433    -0.01011091
      5      O     1.69729345    -0.08199445     1.24871127
      6      O    -0.10689506    -2.12833328    -0.09897732
      7      H    -0.90860966    -2.58633973    -0.37583008
      8      H     0.61573122    -2.73781176     0.08681377
      9      H     2.01221936     2.15711739     0.73264923
     10      H    -1.67374710     2.65405703    -0.37623286
 
Total System Charge             0.00000
Bonding info available!
 
 *** GO1_GOStep2 ***



 ======================
 RI Hartree-Fock Scheme
 ======================
  
 Fit Set Quality     : GOOD
 Threshold Quality   : GOOD
 Integration Quality : GOOD
 Response Quality    : DEFAULT
 Is Range Separated  :  F
 
 RIHartreeFock Dependency: number of modified vectors:           4
  
 Hartree-Fock exchange energy:   -510.396455499751     

 Energy gradients wrt nuclear displacements
 ==========================================

     Atom      Cartesian (a.u./angstrom)
                 X         Y         Z
 ----------------------------------------
     1 Pa   -0.163162 -0.301849 -0.172188
     2 O     0.025804  0.039478  0.049125
     3 O    -0.006927  0.055274  0.018195
     4 F    -0.067467  0.043861  0.002764
     5 O     0.199424  0.049428  0.104856
     6 O     0.005708  0.054099  0.013181
     7 H     0.003537  0.014939 -0.001222
     8 H    -0.001671  0.008850 -0.007370
     9 H    -0.011428  0.020012  0.002737
    10 H     0.016182  0.015908 -0.010079
 ----------------------------------------
 Mulliken charges used for AMS results%charges...

 dE(predicted):    -0.36597E-01, dE(actual):    -0.39558E-01, Trust radius:    0.400000, all in a.u.
 
----------------------------------------------------------------------
Geometry Convergence after Step   2       (Hartree/Angstrom,Angstrom)
----------------------------------------------------------------------
current energy                               -2.55112629 Hartree
energy change                      -0.03955811     0.00001000    F
constrained gradient max            0.30185256     0.00010000    F
constrained gradient rms            0.08559730     0.00006667    F
gradient max                        0.30185256
gradient rms                        0.08559730
cart. step max                      0.14476216     0.00100000    F
cart. step rms                      0.05061264     0.00066667    F
 
 
--------
Geometry
--------
Formula: H4FO4Pa
Atoms
  Index Symbol   x (angstrom)   y (angstrom)   z (angstrom)
      1     Pa     0.04051088     0.26421353    -0.02250519
      2      O     1.49122037     1.97720609    -0.03441619
      3      O    -0.91338443     2.29039050     0.02780160
      4      F    -2.15748337    -0.02610294    -0.02494774
      5      O     1.55253128    -0.20478113     1.21173363
      6      O    -0.10068168    -2.08439446    -0.08280551
      7      H    -0.90099250    -2.55308672    -0.35996894
      8      H     0.62228874    -2.69714787     0.10860053
      9      H     2.07344652     2.14593657     0.71066866
     10      H    -1.71920527     2.62965432    -0.37470238
 
Total System Charge             0.00000
Bonding info available!
 
 *** GO1_GOStep3 ***



 ======================
 RI Hartree-Fock Scheme
 ======================
  
 Fit Set Quality     : GOOD
 Threshold Quality   : GOOD
 Integration Quality : GOOD
 Response Quality    : DEFAULT
 Is Range Separated  :  F
 
 RIHartreeFock Dependency: number of modified vectors:           4
  
 Hartree-Fock exchange energy:   -510.494949968637     

 Energy gradients wrt nuclear displacements
 ==========================================

     Atom      Cartesian (a.u./angstrom)
                 X         Y         Z
 ----------------------------------------
     1 Pa   -0.131238 -0.214686 -0.131712
     2 O     0.023446  0.037427  0.033636
     3 O    -0.005942  0.045639  0.015717
     4 F    -0.047916  0.031206  0.001632
     5 O     0.151516  0.013779  0.079799
     6 O     0.009027  0.053013  0.017016
     7 H    -0.003758  0.007272 -0.003364
     8 H     0.004093  0.000870 -0.005855
     9 H    -0.010911  0.013521  0.004257
    10 H     0.011683  0.011959 -0.011127
 ----------------------------------------
 Mulliken charges used for AMS results%charges...

 dE(predicted):    -0.66314E-01, dE(actual):    -0.65589E-01, Trust radius:    0.800000, all in a.u.
 
----------------------------------------------------------------------
Geometry Convergence after Step   3       (Hartree/Angstrom,Angstrom)
----------------------------------------------------------------------
current energy                               -2.61671570 Hartree
energy change                      -0.06558941     0.00001000    F
constrained gradient max            0.21469019     0.00010000    F
constrained gradient rms            0.06401314     0.00006667    F
gradient max                        0.21469019
gradient rms                        0.06401314
cart. step max                      0.21329766     0.00100000    F
cart. step rms                      0.06660755     0.00066667    F
 
 
--------
Geometry
--------
Formula: H4FO4Pa
Atoms
  Index Symbol   x (angstrom)   y (angstrom)   z (angstrom)
      1     Pa     0.07088110     0.37117101     0.00746833
      2      O     1.58126409     1.96268605    -0.06949046
      3      O    -0.97318697     2.29334432     0.06993219
      4      F    -2.04549483    -0.12233911    -0.06228493
      5      O     1.33923363    -0.24347128     1.20325371
      6      O    -0.09986877    -2.03510157    -0.07536911
      7      H    -0.89239847    -2.50990462    -0.35957864
      8      H     0.61485227    -2.64984129     0.13009741
      9      H     2.18850380     2.10559385     0.66170552
     10      H    -1.79553528     2.56975054    -0.34627555
 
Total System Charge             0.00000
Bonding info available!
 
 *** GO1_GOStep4 ***



 ======================
 RI Hartree-Fock Scheme
 ======================
  
 Fit Set Quality     : GOOD
 Threshold Quality   : GOOD
 Integration Quality : GOOD
 Response Quality    : DEFAULT
 Is Range Separated  :  F
 
 RIHartreeFock Dependency: number of modified vectors:           4
  
 Hartree-Fock exchange energy:   -510.654709298302     

 Energy gradients wrt nuclear displacements
 ==========================================

     Atom      Cartesian (a.u./angstrom)
                 X         Y         Z
 ----------------------------------------
     1 Pa   -0.023071 -0.150661 -0.020605
     2 O     0.012106  0.018100  0.019912
     3 O    -0.006698  0.022359  0.011589
     4 F    -0.013476  0.022870  0.001491
     5 O     0.023614  0.026221 -0.019847
     6 O     0.007520  0.044771  0.019731
     7 H    -0.002610  0.003094 -0.002612
     8 H     0.003795  0.000979 -0.005046
     9 H    -0.008868  0.005708  0.006541
    10 H     0.007689  0.006560 -0.011154
 ----------------------------------------
 Mulliken charges used for AMS results%charges...

 dE(predicted):    -0.72107E-01, dE(actual):    -0.50881E-01, Trust radius:    0.800000, all in a.u.
 
----------------------------------------------------------------------
Geometry Convergence after Step   4       (Hartree/Angstrom,Angstrom)
----------------------------------------------------------------------
current energy                               -2.66759628 Hartree
energy change                      -0.05088058     0.00001000    F
constrained gradient max            0.15066459     0.00010000    F
constrained gradient rms            0.03185696     0.00006667    F
gradient max                        0.15066459
gradient rms                        0.03185696
cart. step max                      0.20251009     0.00100000    F
cart. step rms                      0.07782823     0.00066667    F
 
 
--------
Geometry
--------
Formula: H4FO4Pa
Atoms
  Index Symbol   x (angstrom)   y (angstrom)   z (angstrom)
      1     Pa     0.09072617     0.42731555     0.05046437
      2      O     1.65534563     1.92286581    -0.17104374
      3      O    -1.01263626     2.28821870     0.14708519
      4      F    -1.97020188    -0.19794079    -0.16541193
      5      O     1.13672353    -0.21080757     1.40061649
      6      O    -0.09229200    -2.00889224    -0.09601492
      7      H    -0.87455892    -2.47884731    -0.40651566
      8      H     0.60562892    -2.62997823     0.13507099
      9      H     2.29787219     2.09390020     0.52278416
     10      H    -1.84835681     2.53605378    -0.25757650
 
Total System Charge             0.00000
Bonding info available!
 
 *** GO1_GOStep5 ***



 ======================
 RI Hartree-Fock Scheme
 ======================
  
 Fit Set Quality     : GOOD
 Threshold Quality   : GOOD
 Integration Quality : GOOD
 Response Quality    : DEFAULT
 Is Range Separated  :  F
 
 RIHartreeFock Dependency: number of modified vectors:           4
  
 Hartree-Fock exchange energy:   -510.689787554941     

 Energy gradients wrt nuclear displacements
 ==========================================

     Atom      Cartesian (a.u./angstrom)
                 X         Y         Z
 ----------------------------------------
     1 Pa    0.015833 -0.115758  0.015705
     2 O     0.004614  0.019356  0.011685
     3 O    -0.009102  0.014308  0.006108
     4 F    -0.001683  0.014537  0.004008
     5 O    -0.009893  0.021879 -0.045367
     6 O    -0.002799  0.035631  0.018881
     7 H     0.001501  0.001383 -0.001199
     8 H     0.001980  0.004483 -0.005473
     9 H    -0.007331  0.000801  0.004983
    10 H     0.006880  0.003379 -0.009332
 ----------------------------------------
 Mulliken charges used for AMS results%charges...

 dE(predicted):    -0.23272E-01, dE(actual):    -0.20276E-01, Trust radius:    0.800000, all in a.u.
 
----------------------------------------------------------------------
Geometry Convergence after Step   5       (Hartree/Angstrom,Angstrom)
----------------------------------------------------------------------
current energy                               -2.68787241 Hartree
energy change                      -0.02027613     0.00001000    F
constrained gradient max            0.11576143     0.00010000    F
constrained gradient rms            0.02551999     0.00006667    F
gradient max                        0.11576143
gradient rms                        0.02551999
cart. step max                      0.19466803     0.00100000    F
cart. step rms                      0.07382779     0.00066667    F
 
 
--------
Geometry
--------
Formula: H4FO4Pa
Atoms
  Index Symbol   x (angstrom)   y (angstrom)   z (angstrom)
      1     Pa     0.08923318     0.47816757     0.08552955
      2      O     1.73296631     1.83957712    -0.26476971
      3      O    -1.05834716     2.29115769     0.21670724
      4      F    -1.91931064    -0.25418107    -0.24203964
      5      O     0.94205550    -0.14098630     1.58308494
      6      O    -0.06875009    -1.98417213    -0.11943765
      7      H    -0.83811581    -2.45346590    -0.45807982
      8      H     0.61740780    -2.60856677     0.13476880
      9      H     2.39492097     2.05139569     0.39945815
     10      H    -1.90380950     2.52296200    -0.17576339
 
Total System Charge             0.00000
Bonding info available!
 
 *** GO1_GOStep6 ***



 ======================
 RI Hartree-Fock Scheme
 ======================
  
 Fit Set Quality     : GOOD
 Threshold Quality   : GOOD
 Integration Quality : GOOD
 Response Quality    : DEFAULT
 Is Range Separated  :  F
 
 RIHartreeFock Dependency: number of modified vectors:           4
  
 Hartree-Fock exchange energy:   -510.687828677023     

 Energy gradients wrt nuclear displacements
 ==========================================

     Atom      Cartesian (a.u./angstrom)
                 X         Y         Z
 ----------------------------------------
     1 Pa    0.021790 -0.075180  0.011078
     2 O     0.001823  0.015565  0.006102
     3 O    -0.011214  0.008969  0.004436
     4 F     0.002784  0.006071  0.006545
     5 O    -0.007199  0.010077 -0.035368
     6 O    -0.013452  0.029350  0.016116
     7 H     0.003607 -0.000082 -0.000981
     8 H     0.001967  0.005808 -0.004865
     9 H    -0.006107 -0.001575  0.004787
    10 H     0.006001  0.000996 -0.007850
 ----------------------------------------
 Mulliken charges used for AMS results%charges...

 dE(predicted):    -0.22123E-01, dE(actual):    -0.13419E-01, Trust radius:    0.800000, all in a.u.
 
----------------------------------------------------------------------
Geometry Convergence after Step   6       (Hartree/Angstrom,Angstrom)
----------------------------------------------------------------------
current energy                               -2.70129154 Hartree
energy change                      -0.01341914     0.00001000    F
constrained gradient max            0.07518181     0.00010000    F
constrained gradient rms            0.01806342     0.00006667    F
gradient max                        0.07518181
gradient rms                        0.01806342
cart. step max                      0.18909731     0.00100000    F
cart. step rms                      0.06910276     0.00066667    F
 
 
--------
Geometry
--------
Formula: H4FO4Pa
Atoms
  Index Symbol   x (angstrom)   y (angstrom)   z (angstrom)
      1     Pa     0.06726357     0.52329659     0.12687042
      2      O     1.79261232     1.72659033    -0.34114741
      3      O    -1.10137020     2.30713381     0.27520339
      4      F    -1.89410939    -0.29020445    -0.28691029
      5      O     0.75295819    -0.05847146     1.73205469
      6      O    -0.02650011    -1.96156805    -0.14329012
      7      H    -0.77945502    -2.43473475    -0.51164094
      8      H     0.65376305    -2.58549814     0.12913066
      9      H     2.47531020     1.98010673     0.28721380
     10      H    -1.95222205     2.53523728    -0.10802573
 
Total System Charge             0.00000
Bonding info available!
 
 *** GO1_GOStep7 ***



 ======================
 RI Hartree-Fock Scheme
 ======================
  
 Fit Set Quality     : GOOD
 Threshold Quality   : GOOD
 Integration Quality : GOOD
 Response Quality    : DEFAULT
 Is Range Separated  :  F
 
 RIHartreeFock Dependency: number of modified vectors:           4
  
 Hartree-Fock exchange energy:   -510.681591576093     

 Energy gradients wrt nuclear displacements
 ==========================================

     Atom      Cartesian (a.u./angstrom)
                 X         Y         Z
 ----------------------------------------
     1 Pa    0.025525 -0.042346  0.000798
     2 O    -0.001045  0.010102  0.001839
     3 O    -0.010140  0.003644  0.005143
     4 F     0.004107  0.000542  0.008344
     5 O    -0.004696  0.002601 -0.022546
     6 O    -0.020032  0.024154  0.012957
     7 H     0.004183 -0.001151 -0.001535
     8 H     0.002737  0.005570 -0.003390
     9 H    -0.005387 -0.002429  0.005491
    10 H     0.004749 -0.000688 -0.007099
 ----------------------------------------
 Mulliken charges used for AMS results%charges...
 Rebuilding optimization coordinates

 dE(predicted):    -0.17249E-01, dE(actual):    -0.87151E-02, Trust radius:    0.800000, all in a.u.
 Residual max backtransformation error   0.9428E-05
 
----------------------------------------------------------------------
Geometry Convergence after Step   7       (Hartree/Angstrom,Angstrom)
----------------------------------------------------------------------
current energy                               -2.71000668 Hartree
energy change                      -0.00871514     0.00001000    F
constrained gradient max            0.04234716     0.00010000    F
constrained gradient rms            0.01249084     0.00006667    F
gradient max                        0.04234716
gradient rms                        0.01249084
cart. step max                      0.20511481     0.00100000    F
cart. step rms                      0.07789598     0.00066667    F
 
 
--------
Geometry
--------
Formula: H4FO4Pa
Atoms
  Index Symbol   x (angstrom)   y (angstrom)   z (angstrom)
      1     Pa     0.02750662     0.57039273     0.18170042
      2      O     1.83135745     1.58207999    -0.40972327
      3      O    -1.14747716     2.33805498     0.33448100
      4      F    -1.87841638    -0.31743005    -0.33470441
      5      O     0.54784338     0.03724721     1.87536996
      6      O     0.03877226    -1.93434535    -0.16852319
      7      H    -0.69388926    -2.41358091    -0.56920013
      8      H     0.71271626    -2.55690793     0.12448097
      9      H     2.55428603     1.86559536     0.15870408
     10      H    -2.00444864     2.57078188    -0.03312695
 
Total System Charge             0.00000
Bonding info available!
 
 *** GO1_GOStep8 ***



 ======================
 RI Hartree-Fock Scheme
 ======================
  
 Fit Set Quality     : GOOD
 Threshold Quality   : GOOD
 Integration Quality : GOOD
 Response Quality    : DEFAULT
 Is Range Separated  :  F
 
 RIHartreeFock Dependency: number of modified vectors:           4
  
 Hartree-Fock exchange energy:   -510.671420987831     

 Energy gradients wrt nuclear displacements
 ==========================================

     Atom      Cartesian (a.u./angstrom)
                 X         Y         Z
 ----------------------------------------
     1 Pa    0.028355 -0.013721 -0.014690
     2 O    -0.003771  0.004940 -0.001361
     3 O    -0.007123 -0.001401  0.006981
     4 F     0.003013 -0.003390  0.009613
     5 O    -0.003479 -0.002651 -0.005981
     6 O    -0.023160  0.018477  0.009124
     7 H     0.004413 -0.002113 -0.002218
     8 H     0.003229  0.004358 -0.001556
     9 H    -0.004548 -0.002440  0.006555
    10 H     0.003071 -0.002059 -0.006468
 ----------------------------------------
 Mulliken charges used for AMS results%charges...

 dE(predicted):    -0.11313E-01, dE(actual):    -0.69232E-02, Trust radius:    0.800000, all in a.u.
 
----------------------------------------------------------------------
Geometry Convergence after Step   8       (Hartree/Angstrom,Angstrom)
----------------------------------------------------------------------
current energy                               -2.71692993 Hartree
energy change                      -0.00692325     0.00001000    F
constrained gradient max            0.02836052     0.00010000    F
constrained gradient rms            0.00942460     0.00006667    F
gradient max                        0.02836052
gradient rms                        0.00942460
cart. step max                      0.20603975     0.00100000    F
cart. step rms                      0.08673231     0.00066667    F
 
 
--------
Geometry
--------
Formula: H4FO4Pa
Atoms
  Index Symbol   x (angstrom)   y (angstrom)   z (angstrom)
      1     Pa    -0.01774393     0.62797301     0.24742698
      2      O     1.85150931     1.40913371    -0.46923483
      3      O    -1.20202172     2.38113397     0.39536554
      4      F    -1.82549460    -0.38570150    -0.38231405
      5      O     0.34180363     0.15063286     2.00479562
      6      O     0.10965502    -1.88285803    -0.19652564
      7      H    -0.60333096    -2.36590417    -0.62721333
      8      H     0.77481357    -2.50561816     0.11637733
      9      H     2.62529298     1.69776008     0.02537651
     10      H    -2.06623272     2.61533614     0.04540433
 
Total System Charge             0.00000
Bonding info available!
 
 *** GO1_GOStep9 ***



 ======================
 RI Hartree-Fock Scheme
 ======================
  
 Fit Set Quality     : GOOD
 Threshold Quality   : GOOD
 Integration Quality : GOOD
 Response Quality    : DEFAULT
 Is Range Separated  :  F
 
 RIHartreeFock Dependency: number of modified vectors:           4
  
 Hartree-Fock exchange energy:   -510.668205049781     

 Energy gradients wrt nuclear displacements
 ==========================================

     Atom      Cartesian (a.u./angstrom)
                 X         Y         Z
 ----------------------------------------
     1 Pa    0.032300  0.011151 -0.025928
     2 O    -0.006971 -0.000144 -0.003197
     3 O    -0.002189 -0.006372  0.009933
     4 F     0.006762 -0.011345  0.011281
     5 O    -0.006276 -0.003865  0.004992
     6 O    -0.029161  0.016507  0.003587
     7 H     0.005483 -0.003894 -0.003060
     8 H     0.002345  0.003677  0.000505
     9 H    -0.004176 -0.001883  0.007683
    10 H     0.001885 -0.003833 -0.005795
 ----------------------------------------
 Mulliken charges used for AMS results%charges...

 dE(predicted):    -0.64109E-02, dE(actual):    -0.38406E-02, Trust radius:    0.800000, all in a.u.
 
----------------------------------------------------------------------
Geometry Convergence after Step   9       (Hartree/Angstrom,Angstrom)
----------------------------------------------------------------------
current energy                               -2.72077053 Hartree
energy change                      -0.00384060     0.00001000    F
constrained gradient max            0.03231109     0.00010000    F
constrained gradient rms            0.01120288     0.00006667    F
gradient max                        0.03231109
gradient rms                        0.01120288
cart. step max                      0.20376223     0.00100000    F
cart. step rms                      0.07931852     0.00066667    F
 
 
--------
Geometry
--------
Formula: H4FO4Pa
Atoms
  Index Symbol   x (angstrom)   y (angstrom)   z (angstrom)
      1     Pa    -0.08404474     0.66862681     0.28737013
      2      O     1.82733003     1.26863873    -0.49879088
      3      O    -1.24100137     2.43748296     0.42169752
      4      F    -1.84454236    -0.36355949    -0.44656858
      5      O     0.17876442     0.20623938     2.07458614
      6      O     0.22238829    -1.84610027    -0.22106107
      7      H    -0.48593256    -2.34567607    -0.64153509
      8      H     0.87343867    -2.46411756     0.13057277
      9      H     2.66868537     1.49399785    -0.08831317
     10      H    -2.12683519     2.68635555     0.14150068
 
Total System Charge             0.00000
Bonding info available!
 
 *** GO1_GOStep10 ***



 ======================
 RI Hartree-Fock Scheme
 ======================
  
 Fit Set Quality     : GOOD
 Threshold Quality   : GOOD
 Integration Quality : GOOD
 Response Quality    : DEFAULT
 Is Range Separated  :  F
 
 RIHartreeFock Dependency: number of modified vectors:           4
  
 Hartree-Fock exchange energy:   -510.653733883076     

 Energy gradients wrt nuclear displacements
 ==========================================

     Atom      Cartesian (a.u./angstrom)
                 X         Y         Z
 ----------------------------------------
     1 Pa    0.029095  0.021640 -0.035928
     2 O    -0.005850 -0.001151 -0.004718
     3 O     0.000633 -0.007900  0.010729
     4 F    -0.002540 -0.008450  0.008610
     5 O    -0.005955 -0.005366  0.018130
     6 O    -0.020669  0.009976  0.002124
     7 H     0.005145 -0.003574 -0.002834
     8 H     0.002418  0.000526  0.000937
     9 H    -0.001754 -0.001432  0.007899
    10 H    -0.000523 -0.004267 -0.004948
 ----------------------------------------
 Mulliken charges used for AMS results%charges...

 dE(predicted):    -0.43945E-02, dE(actual):    -0.48313E-02, Trust radius:    0.800000, all in a.u.
 
----------------------------------------------------------------------
Geometry Convergence after Step  10       (Hartree/Angstrom,Angstrom)
----------------------------------------------------------------------
current energy                               -2.72560179 Hartree
energy change                      -0.00483126     0.00001000    F
constrained gradient max            0.03592587     0.00010000    F
constrained gradient rms            0.01166514     0.00006667    F
gradient max                        0.03592587
gradient rms                        0.01166514
cart. step max                      0.20749143     0.00100000    F
cart. step rms                      0.08129880     0.00066667    F
 
 
--------
Geometry
--------
Formula: H4FO4Pa
Atoms
  Index Symbol   x (angstrom)   y (angstrom)   z (angstrom)
      1     Pa    -0.16973532     0.69723573     0.33966098
      2      O     1.76446533     1.13790675    -0.51273371
      3      O    -1.27702181     2.50369418     0.44575172
      4      F    -1.82090254    -0.36494289    -0.57736881
      5      O     0.06523969     0.21578596     2.12355512
      6      O     0.34395682    -1.80128065    -0.23648089
      7      H    -0.37460585    -2.31244174    -0.62777934
      8      H     0.96104621    -2.41952727     0.17049482
      9      H     2.66672524     1.28650641    -0.21396158
     10      H    -2.17091721     2.79895139     0.24832017
 
Total System Charge             0.00000
Bonding info available!
 
 *** GO1_GOStep11 ***



 ======================
 RI Hartree-Fock Scheme
 ======================
  
 Fit Set Quality     : GOOD
 Threshold Quality   : GOOD
 Integration Quality : GOOD
 Response Quality    : DEFAULT
 Is Range Separated  :  F
 
 RIHartreeFock Dependency: number of modified vectors:           4
  
 Hartree-Fock exchange energy:   -510.647450936596     

 Energy gradients wrt nuclear displacements
 ==========================================

     Atom      Cartesian (a.u./angstrom)
                 X         Y         Z
 ----------------------------------------
     1 Pa    0.011066  0.023070 -0.023310
     2 O     0.002060 -0.001772 -0.005994
     3 O     0.003457 -0.004978  0.008296
     4 F    -0.005582 -0.007518  0.003590
     5 O    -0.002576 -0.004298  0.015456
     6 O    -0.009979  0.008824  0.001174
     7 H     0.003157 -0.005028 -0.002224
     8 H     0.000731 -0.002203  0.000159
     9 H     0.000261 -0.001184  0.006215
    10 H    -0.002594 -0.004912 -0.003362
 ----------------------------------------
 Mulliken charges used for AMS results%charges...
 Rebuilding optimization coordinates

 dE(predicted):    -0.46382E-02, dE(actual):    -0.46349E-02, Trust radius:    1.000000, all in a.u.
 
----------------------------------------------------------------------
Geometry Convergence after Step  11       (Hartree/Angstrom,Angstrom)
----------------------------------------------------------------------
current energy                               -2.73023668 Hartree
energy change                      -0.00463489     0.00001000    F
constrained gradient max            0.02330094     0.00010000    F
constrained gradient rms            0.00820193     0.00006667    F
gradient max                        0.02330094
gradient rms                        0.00820193
cart. step max                      0.19733566     0.00100000    F
cart. step rms                      0.07174760     0.00066667    F
 
 
--------
Geometry
--------
Formula: H4FO4Pa
Atoms
  Index Symbol   x (angstrom)   y (angstrom)   z (angstrom)
      1     Pa    -0.24378272     0.66338075     0.36565443
      2      O     1.68102000     1.12802489    -0.50941231
      3      O    -1.27627342     2.52923792     0.44752913
      4      F    -1.81586348    -0.28186073    -0.77470447
      5      O     0.02439942     0.11335568     2.11759626
      6      O     0.45683662    -1.81424566    -0.22708633
      7      H    -0.30401987    -2.31476317    -0.54813727
      8      H     0.99740161    -2.43486333     0.27242175
      9      H     2.61878304     1.23583571    -0.33618806
     10      H    -2.15025064     2.91778584     0.35178534
 
Total System Charge             0.00000
Bonding info available!
 
 *** GO1_GOStep12 ***



 ======================
 RI Hartree-Fock Scheme
 ======================
  
 Fit Set Quality     : GOOD
 Threshold Quality   : GOOD
 Integration Quality : GOOD
 Response Quality    : DEFAULT
 Is Range Separated  :  F
 
 RIHartreeFock Dependency: number of modified vectors:           4
  
 Hartree-Fock exchange energy:   -510.644265314401     

 Energy gradients wrt nuclear displacements
 ==========================================

     Atom      Cartesian (a.u./angstrom)
                 X         Y         Z
 ----------------------------------------
     1 Pa   -0.010461  0.000874 -0.001512
     2 O     0.014739  0.001208 -0.006203
     3 O     0.001192  0.005248  0.001854
     4 F    -0.008153  0.000225 -0.002136
     5 O     0.003124 -0.001937  0.003876
     6 O     0.004432  0.006187  0.003539
     7 H     0.002103 -0.002924  0.002800
     8 H    -0.003145 -0.003349 -0.004222
     9 H    -0.000030 -0.001543  0.003101
    10 H    -0.003800 -0.003989 -0.001096
 ----------------------------------------
 Mulliken charges used for AMS results%charges...

 dE(predicted):    -0.30206E-02, dE(actual):    -0.35925E-02, Trust radius:    1.000000, all in a.u.
 
----------------------------------------------------------------------
Geometry Convergence after Step  12       (Hartree/Angstrom,Angstrom)
----------------------------------------------------------------------
current energy                               -2.73382921 Hartree
energy change                      -0.00359254     0.00001000    F
constrained gradient max            0.01473188     0.00010000    F
constrained gradient rms            0.00474473     0.00006667    F
gradient max                        0.01473188
gradient rms                        0.00474473
cart. step max                      0.07399739     0.00100000    F
cart. step rms                      0.03249701     0.00066667    F
 
 
--------
Geometry
--------
Formula: H4FO4Pa
Atoms
  Index Symbol   x (angstrom)   y (angstrom)   z (angstrom)
      1     Pa    -0.25678515     0.66855331     0.40091350
      2      O     1.65077725     1.08258589    -0.52280037
      3      O    -1.28411370     2.53885493     0.47158080
      4      F    -1.74186609    -0.32513194    -0.80578236
      5      O    -0.03366626     0.12955160     2.16004815
      6      O     0.47842103    -1.79342040    -0.22810942
      7      H    -0.27812935    -2.28181457    -0.57967619
      8      H     1.00127190    -2.41874255     0.28677346
      9      H     2.59624933     1.18579199    -0.39584947
     10      H    -2.14390840     2.95565965     0.37236038
 
Total System Charge             0.00000
Bonding info available!
 
 *** GO1_GOStep13 ***



 ======================
 RI Hartree-Fock Scheme
 ======================
  
 Fit Set Quality     : GOOD
 Threshold Quality   : GOOD
 Integration Quality : GOOD
 Response Quality    : DEFAULT
 Is Range Separated  :  F
 
 RIHartreeFock Dependency: number of modified vectors:           4
  
 Hartree-Fock exchange energy:   -510.648090790618     

 Energy gradients wrt nuclear displacements
 ==========================================

     Atom      Cartesian (a.u./angstrom)
                 X         Y         Z
 ----------------------------------------
     1 Pa   -0.010397  0.002488  0.004148
     2 O     0.012544 -0.001400 -0.007440
     3 O     0.001906  0.005651  0.002717
     4 F    -0.003960 -0.001680 -0.001782
     5 O     0.001304  0.000185  0.000745
     6 O     0.002591  0.007720  0.000091
     7 H     0.000003 -0.003551  0.001219
     8 H    -0.000447 -0.003434 -0.001693
     9 H    -0.000089 -0.001542  0.003154
    10 H    -0.003456 -0.004437 -0.001160
 ----------------------------------------
 Mulliken charges used for AMS results%charges...

 dE(predicted):    -0.57197E-03, dE(actual):    -0.75214E-03, Trust radius:    1.000000, all in a.u.
 
----------------------------------------------------------------------
Geometry Convergence after Step  13       (Hartree/Angstrom,Angstrom)
----------------------------------------------------------------------
current energy                               -2.73458136 Hartree
energy change                      -0.00075214     0.00001000    F
constrained gradient max            0.01253595     0.00010000    F
constrained gradient rms            0.00429576     0.00006667    F
gradient max                        0.01253595
gradient rms                        0.00429576
cart. step max                      0.10970328     0.00100000    F
cart. step rms                      0.05450443     0.00066667    F
 
 
--------
Geometry
--------
Formula: H4FO4Pa
Atoms
  Index Symbol   x (angstrom)   y (angstrom)   z (angstrom)
      1     Pa    -0.25944434     0.61758031     0.45791925
      2      O     1.57469093     1.13195240    -0.52433491
      3      O    -1.24370357     2.51657456     0.46912766
      4      F    -1.65438116    -0.34922170    -0.85554485
      5      O    -0.07086097     0.07481660     2.21712081
      6      O     0.49085749    -1.82966991    -0.20873384
      7      H    -0.26283430    -2.27133647    -0.62750700
      8      H     0.94647698    -2.46640411     0.35840918
      9      H     2.51928345     1.29549527    -0.48923930
     10      H    -2.05183396     3.02210095     0.36224145
 
Total System Charge             0.00000
Bonding info available!
 
 *** GO1_GOStep14 ***



 ======================
 RI Hartree-Fock Scheme
 ======================
  
 Fit Set Quality     : GOOD
 Threshold Quality   : GOOD
 Integration Quality : GOOD
 Response Quality    : DEFAULT
 Is Range Separated  :  F
 
 RIHartreeFock Dependency: number of modified vectors:           5
  
 Hartree-Fock exchange energy:   -510.653682077447     

 Energy gradients wrt nuclear displacements
 ==========================================

     Atom      Cartesian (a.u./angstrom)
                 X         Y         Z
 ----------------------------------------
     1 Pa   -0.006906 -0.011666  0.010446
     2 O     0.005182  0.001419 -0.006215
     3 O     0.001344  0.010609  0.000192
     4 F     0.002547  0.000760  0.001123
     5 O     0.000116  0.003276 -0.005525
     6 O    -0.000354  0.006254 -0.003416
     7 H    -0.004976 -0.002010 -0.002548
     8 H     0.005427 -0.003028  0.003831
     9 H     0.000234 -0.001570  0.002941
    10 H    -0.002613 -0.004043 -0.000830
 ----------------------------------------
 Mulliken charges used for AMS results%charges...

 dE(predicted):    -0.12045E-02, dE(actual):    -0.15386E-02, Trust radius:    1.000000, all in a.u.
 
----------------------------------------------------------------------
Geometry Convergence after Step  14       (Hartree/Angstrom,Angstrom)
----------------------------------------------------------------------
current energy                               -2.73611999 Hartree
energy change                      -0.00153864     0.00001000    F
constrained gradient max            0.01166850     0.00010000    F
constrained gradient rms            0.00482658     0.00006667    F
gradient max                        0.01166850
gradient rms                        0.00482658
cart. step max                      0.10277345     0.00100000    F
cart. step rms                      0.05314942     0.00066667    F
 
 
--------
Geometry
--------
Formula: H4FO4Pa
Atoms
  Index Symbol   x (angstrom)   y (angstrom)   z (angstrom)
      1     Pa    -0.27216949     0.57762598     0.48268710
      2      O     1.50584048     1.16657887    -0.52855782
      3      O    -1.21556955     2.49519795     0.47516585
      4      F    -1.58748076    -0.34619597    -0.93081040
      5      O    -0.12216430     0.00272536     2.23863615
      6      O     0.53536941    -1.86103699    -0.18238528
      7      H    -0.21889450    -2.25954380    -0.63707634
      8      H     0.88453788    -2.50467537     0.44491115
      9      H     2.43874036     1.37883873    -0.59201274
     10      H    -1.95995898     3.09237313     0.38890079
 
Total System Charge             0.00000
Bonding info available!
 
 *** GO1_GOStep15 ***



 ======================
 RI Hartree-Fock Scheme
 ======================
  
 Fit Set Quality     : GOOD
 Threshold Quality   : GOOD
 Integration Quality : GOOD
 Response Quality    : DEFAULT
 Is Range Separated  :  F
 
 RIHartreeFock Dependency: number of modified vectors:           4
  
 Hartree-Fock exchange energy:   -510.660258825294     

 Energy gradients wrt nuclear displacements
 ==========================================

     Atom      Cartesian (a.u./angstrom)
                 X         Y         Z
 ----------------------------------------
     1 Pa   -0.007079 -0.018587  0.007950
     2 O    -0.000380  0.003150 -0.004647
     3 O     0.002458  0.012667 -0.002020
     4 F     0.004850  0.003752  0.001948
     5 O     0.000765  0.002954 -0.003203
     6 O     0.000507  0.000258 -0.002970
     7 H    -0.001700  0.000705  0.000695
     8 H     0.002350  0.000142  0.000504
     9 H     0.000369 -0.001553  0.002506
    10 H    -0.002139 -0.003488 -0.000762
 ----------------------------------------
 Mulliken charges used for AMS results%charges...

 dE(predicted):    -0.62290E-03, dE(actual):    -0.79452E-03, Trust radius:    1.000000, all in a.u.
 
----------------------------------------------------------------------
Geometry Convergence after Step  15       (Hartree/Angstrom,Angstrom)
----------------------------------------------------------------------
current energy                               -2.73691451 Hartree
energy change                      -0.00079452     0.00001000    F
constrained gradient max            0.01858659     0.00010000    F
constrained gradient rms            0.00505605     0.00006667    F
gradient max                        0.01858659
gradient rms                        0.00505605
cart. step max                      0.07226014     0.00100000    F
cart. step rms                      0.03595124     0.00066667    F
 
 
--------
Geometry
--------
Formula: H4FO4Pa
Atoms
  Index Symbol   x (angstrom)   y (angstrom)   z (angstrom)
      1     Pa    -0.28078658     0.56592494     0.47692824
      2      O     1.47516119     1.17935497    -0.53252591
      3      O    -1.20975263     2.48109836     0.48731639
      4      F    -1.55399485    -0.35899846    -0.97282384
      5      O    -0.16946236    -0.04113373     2.22821966
      6      O     0.56906714    -1.87829588    -0.15383911
      7      H    -0.16977684    -2.25077387    -0.65157646
      8      H     0.83326098    -2.52206031     0.51151360
      9      H     2.39314732     1.42253069    -0.66427289
     10      H    -1.89861281     3.14424118     0.43051878
 
Total System Charge             0.00000
Bonding info available!
 
 *** GO1_GOStep16 ***



 ======================
 RI Hartree-Fock Scheme
 ======================
  
 Fit Set Quality     : GOOD
 Threshold Quality   : GOOD
 Integration Quality : GOOD
 Response Quality    : DEFAULT
 Is Range Separated  :  F
 
 RIHartreeFock Dependency: number of modified vectors:           4
  
 Hartree-Fock exchange energy:   -510.664855663755     

 Energy gradients wrt nuclear displacements
 ==========================================

     Atom      Cartesian (a.u./angstrom)
                 X         Y         Z
 ----------------------------------------
     1 Pa   -0.005005 -0.013016  0.000823
     2 O    -0.006324  0.002009 -0.001530
     3 O     0.004852  0.008933 -0.001778
     4 F     0.005201  0.004505  0.002713
     5 O     0.001000  0.001547 -0.000385
     6 O     0.000519 -0.003146 -0.001423
     7 H     0.000227  0.001917  0.002158
     8 H     0.001154  0.001505 -0.001857
     9 H     0.000535 -0.001414  0.002283
    10 H    -0.002157 -0.002840 -0.001005
 ----------------------------------------
 Mulliken charges used for AMS results%charges...

 dE(predicted):    -0.41921E-03, dE(actual):    -0.72024E-03, Trust radius:    1.000000, all in a.u.
 
----------------------------------------------------------------------
Geometry Convergence after Step  16       (Hartree/Angstrom,Angstrom)
----------------------------------------------------------------------
current energy                               -2.73763475 Hartree
energy change                      -0.00072024     0.00001000    F
constrained gradient max            0.01301358     0.00010000    F
constrained gradient rms            0.00389488     0.00006667    F
gradient max                        0.01301358
gradient rms                        0.00389488
cart. step max                      0.17041180     0.00100000    F
cart. step rms                      0.08292192     0.00066667    F
 
 
--------
Geometry
--------
Formula: H4FO4Pa
Atoms
  Index Symbol   x (angstrom)   y (angstrom)   z (angstrom)
      1     Pa    -0.30453240     0.56048535     0.44406475
      2      O     1.43311967     1.18915648    -0.54309418
      3      O    -1.22511329     2.45255103     0.52997048
      4      F    -1.49135046    -0.41140736    -1.05465707
      5      O    -0.29935247    -0.12353241     2.17700106
      6      O     0.65276735    -1.89818765    -0.07451565
      7      H    -0.02313128    -2.21920353    -0.68383504
      8      H     0.70070794    -2.53262371     0.64621527
      9      H     2.30032220     1.47541606    -0.83468469
     10      H    -1.75518671     3.24923363     0.55299353
 
Total System Charge             0.00000
Bonding info available!
 
 *** GO1_GOStep17 ***



 ======================
 RI Hartree-Fock Scheme
 ======================
  
 Fit Set Quality     : GOOD
 Threshold Quality   : GOOD
 Integration Quality : GOOD
 Response Quality    : DEFAULT
 Is Range Separated  :  F
 
 RIHartreeFock Dependency: number of modified vectors:           4
  
 Hartree-Fock exchange energy:   -510.672571429556     

 Energy gradients wrt nuclear displacements
 ==========================================

     Atom      Cartesian (a.u./angstrom)
                 X         Y         Z
 ----------------------------------------
     1 Pa    0.001318  0.011178 -0.015048
     2 O    -0.016842 -0.002943  0.005787
     3 O     0.008653 -0.004577  0.000248
     4 F     0.003661  0.003254  0.002687
     5 O     0.000717 -0.002533  0.005508
     6 O     0.001276 -0.006228  0.002746
     7 H     0.001846  0.002537  0.004400
     8 H    -0.000052  0.001841 -0.006307
     9 H     0.000427 -0.000985  0.001335
    10 H    -0.001005 -0.001545 -0.001358
 ----------------------------------------
 Mulliken charges used for AMS results%charges...
 Rebuilding optimization coordinates
Bad geometry: could not add a dihedral for atom   10

 dE(predicted):    -0.10503E-02, dE(actual):    -0.10647E-02, Trust radius:    1.000000, all in a.u.
 
----------------------------------------------------------------------
Geometry Convergence after Step  17       (Hartree/Angstrom,Angstrom)
----------------------------------------------------------------------
current energy                               -2.73869945 Hartree
energy change                      -0.00106470     0.00001000    F
constrained gradient max            0.01683966     0.00010000    F
constrained gradient rms            0.00569143     0.00006667    F
gradient max                        0.01683966
gradient rms                        0.00569143
cart. step max                      0.03211842     0.00100000    F
cart. step rms                      0.01194174     0.00066667    F
 
 
--------
Geometry
--------
Formula: H4FO4Pa
Atoms
  Index Symbol   x (angstrom)   y (angstrom)   z (angstrom)
      1     Pa    -0.30246290     0.56622320     0.43356890
      2      O     1.45368143     1.19071213    -0.54115598
      3      O    -1.23364802     2.45360982     0.52970725
      4      F    -1.52346888    -0.42671821    -1.03104122
      5      O    -0.30461586    -0.11413394     2.16669004
      6      O     0.64139995    -1.89610319    -0.07572165
      7      H    -0.01073460    -2.23520242    -0.70262675
      8      H     0.70478484    -2.52706341     0.64883675
      9      H     2.32282778     1.47713726    -0.82766915
     10      H    -1.75951319     3.25342666     0.55887029
 
Total System Charge             0.00000
Bonding info available!
 
 *** GO1_GOStep18 ***



 ======================
 RI Hartree-Fock Scheme
 ======================
  
 Fit Set Quality     : GOOD
 Threshold Quality   : GOOD
 Integration Quality : GOOD
 Response Quality    : DEFAULT
 Is Range Separated  :  F
 
 RIHartreeFock Dependency: number of modified vectors:           4
  
 Hartree-Fock exchange energy:   -510.666427160125     

 Energy gradients wrt nuclear displacements
 ==========================================

     Atom      Cartesian (a.u./angstrom)
                 X         Y         Z
 ----------------------------------------
     1 Pa    0.001672  0.011807 -0.011234
     2 O    -0.012700 -0.001925  0.004000
     3 O     0.007578 -0.004383  0.000982
     4 F     0.001094  0.000699  0.001194
     5 O    -0.000028 -0.002510  0.005107
     6 O     0.000160 -0.005678  0.002483
     7 H     0.000702  0.002606  0.000341
     8 H     0.001777  0.000693 -0.002539
     9 H     0.001053 -0.000690  0.001073
    10 H    -0.001307 -0.000619 -0.001407
 ----------------------------------------
 Mulliken charges used for AMS results%charges...

 dE(predicted):    -0.26121E-03, dE(actual):    -0.37394E-03, Trust radius:    1.000000, all in a.u.
 
----------------------------------------------------------------------
Geometry Convergence after Step  18       (Hartree/Angstrom,Angstrom)
----------------------------------------------------------------------
current energy                               -2.73907340 Hartree
energy change                      -0.00037394     0.00001000    F
constrained gradient max            0.01269310     0.00010000    F
constrained gradient rms            0.00456511     0.00006667    F
gradient max                        0.01269833
gradient rms                        0.00456511
cart. step max                      0.02847897     0.00100000    F
cart. step rms                      0.01204285     0.00066667    F
 
 
--------
Geometry
--------
Formula: H4FO4Pa
Atoms
  Index Symbol   x (angstrom)   y (angstrom)   z (angstrom)
      1     Pa    -0.30262103     0.56329533     0.42672519
      2      O     1.46007700     1.19121611    -0.54541758
      3      O    -1.24472024     2.44654699     0.53915435
      4      F    -1.50978590    -0.43162327    -1.05068888
      5      O    -0.31505763    -0.12464503     2.15478343
      6      O     0.65798727    -1.89550888    -0.07107840
      7      H    -0.00428216    -2.23019213    -0.69018584
      8      H     0.67630588    -2.51502217     0.66639532
      9      H     2.32128161     1.47968051    -0.85212481
     10      H    -1.75093423     3.25814044     0.58189569
 
Total System Charge             0.00000
Bonding info available!
 
 *** GO1_GOStep19 ***



 ======================
 RI Hartree-Fock Scheme
 ======================
  
 Fit Set Quality     : GOOD
 Threshold Quality   : GOOD
 Integration Quality : GOOD
 Response Quality    : DEFAULT
 Is Range Separated  :  F
 
 RIHartreeFock Dependency: number of modified vectors:           4
  
 Hartree-Fock exchange energy:   -510.664243307778     

 Energy gradients wrt nuclear displacements
 ==========================================

     Atom      Cartesian (a.u./angstrom)
                 X         Y         Z
 ----------------------------------------
     1 Pa   -0.000679  0.008066 -0.006687
     2 O    -0.008255 -0.000884  0.001987
     3 O     0.005972 -0.002731  0.001373
     4 F     0.000404  0.000354 -0.000090
     5 O     0.000051 -0.001494  0.003351
     6 O     0.002974 -0.002201  0.001760
     7 H     0.000432  0.000761  0.003114
     8 H    -0.000566 -0.000602 -0.004353
     9 H     0.000606 -0.000717  0.000921
    10 H    -0.000938 -0.000552 -0.001376
 ----------------------------------------
 Mulliken charges used for AMS results%charges...

 dE(predicted):    -0.14045E-03, dE(actual):    -0.20445E-03, Trust radius:    1.000000, all in a.u.
 
----------------------------------------------------------------------
Geometry Convergence after Step  19       (Hartree/Angstrom,Angstrom)
----------------------------------------------------------------------
current energy                               -2.73927784 Hartree
energy change                      -0.00020445     0.00001000    F
constrained gradient max            0.00824814     0.00010000    F
constrained gradient rms            0.00312812     0.00006667    F
gradient max                        0.00825232
gradient rms                        0.00312813
cart. step max                      0.04793046     0.00100000    F
cart. step rms                      0.01957155     0.00066667    F
 
 
--------
Geometry
--------
Formula: H4FO4Pa
Atoms
  Index Symbol   x (angstrom)   y (angstrom)   z (angstrom)
      1     Pa    -0.29759224     0.56012328     0.41069817
      2      O     1.48373434     1.20440751    -0.54588527
      3      O    -1.26668687     2.43243880     0.54797938
      4      F    -1.51177000    -0.45390171    -1.05585879
      5      O    -0.32790133    -0.13583996     2.13043306
      6      O     0.65945008    -1.89856422    -0.06101340
      7      H     0.02036748    -2.24548861    -0.69969283
      8      H     0.62837542    -2.49080330     0.70059525
      9      H     2.32989177     1.50198719    -0.88315863
     10      H    -1.72961810     3.26752890     0.61536152
 
Total System Charge             0.00000
Bonding info available!
 
 *** GO1_GOStep20 ***



 ======================
 RI Hartree-Fock Scheme
 ======================
  
 Fit Set Quality     : GOOD
 Threshold Quality   : GOOD
 Integration Quality : GOOD
 Response Quality    : DEFAULT
 Is Range Separated  :  F
 
 RIHartreeFock Dependency: number of modified vectors:           4
  
 Hartree-Fock exchange energy:   -510.658352708472     

 Energy gradients wrt nuclear displacements
 ==========================================

     Atom      Cartesian (a.u./angstrom)
                 X         Y         Z
 ----------------------------------------
     1 Pa   -0.002334  0.002445  0.003475
     2 O     0.000217  0.001736 -0.001547
     3 O     0.002438  0.000389  0.002259
     4 F    -0.001887 -0.002252 -0.002071
     5 O    -0.000547  0.000565 -0.001295
     6 O     0.003732  0.000773  0.000619
     7 H    -0.000991 -0.000499  0.000884
     8 H    -0.000740 -0.002161 -0.001577
     9 H     0.000220 -0.000651  0.000591
    10 H    -0.000108 -0.000345 -0.001340
 ----------------------------------------
 Mulliken charges used for AMS results%charges...

 dE(predicted):    -0.27237E-03, dE(actual):    -0.35352E-03, Trust radius:    1.000000, all in a.u.
 
----------------------------------------------------------------------
Geometry Convergence after Step  20       (Hartree/Angstrom,Angstrom)
----------------------------------------------------------------------
current energy                               -2.73963136 Hartree
energy change                      -0.00035352     0.00001000    F
constrained gradient max            0.00373497     0.00010000    F
constrained gradient rms            0.00166054     0.00006667    F
gradient max                        0.00373511
gradient rms                        0.00166054
cart. step max                      0.02164649     0.00100000    F
cart. step rms                      0.00983921     0.00066667    F
 
 
--------
Geometry
--------
Formula: H4FO4Pa
Atoms
  Index Symbol   x (angstrom)   y (angstrom)   z (angstrom)
      1     Pa    -0.29245729     0.55737881     0.40242825
      2      O     1.49639092     1.21365644    -0.54352822
      3      O    -1.27872335     2.42276947     0.54873218
      4      F    -1.51139254    -0.45610645    -1.06087769
      5      O    -0.31983611    -0.14433300     2.11869250
      6      O     0.65136457    -1.90165983    -0.05830393
      7      H     0.02395740    -2.26052346    -0.70199041
      8      H     0.60672893    -2.47237680     0.71932849
      9      H     2.33580468     1.51644686    -0.89263296
     10      H    -1.72358666     3.26663586     0.62761028
 
Total System Charge             0.00000
Bonding info available!
 
 *** GO1_GOStep21 ***



 ======================
 RI Hartree-Fock Scheme
 ======================
  
 Fit Set Quality     : GOOD
 Threshold Quality   : GOOD
 Integration Quality : GOOD
 Response Quality    : DEFAULT
 Is Range Separated  :  F
 
 RIHartreeFock Dependency: number of modified vectors:           4
  
 Hartree-Fock exchange energy:   -510.656496666777     

 Energy gradients wrt nuclear displacements
 ==========================================

     Atom      Cartesian (a.u./angstrom)
                 X         Y         Z
 ----------------------------------------
     1 Pa   -0.002759 -0.000649  0.006584
     2 O     0.003126  0.002796 -0.002619
     3 O     0.000817  0.001818  0.002402
     4 F    -0.002262 -0.002880 -0.002284
     5 O    -0.000674  0.001160 -0.002789
     6 O     0.002565  0.000348  0.000294
     7 H    -0.000962 -0.000241 -0.000375
     8 H    -0.000199 -0.001675 -0.000295
     9 H     0.000221 -0.000569  0.000385
    10 H     0.000126 -0.000109 -0.001303
 ----------------------------------------
 Mulliken charges used for AMS results%charges...
 Rebuilding optimization coordinates
Bad geometry: could not add a dihedral for atom    9
Bad geometry: could not add a dihedral for atom   10

 dE(predicted):    -0.78036E-04, dE(actual):    -0.12644E-03, Trust radius:    1.000000, all in a.u.
 
----------------------------------------------------------------------
Geometry Convergence after Step  21       (Hartree/Angstrom,Angstrom)
----------------------------------------------------------------------
current energy                               -2.73975780 Hartree
energy change                      -0.00012644     0.00001000    F
constrained gradient max            0.00657316     0.00010000    F
constrained gradient rms            0.00205617     0.00006667    F
gradient max                        0.00657312
gradient rms                        0.00205617
cart. step max                      0.03249872     0.00100000    F
cart. step rms                      0.01494203     0.00066667    F
 
 
--------
Geometry
--------
Formula: H4FO4Pa
Atoms
  Index Symbol   x (angstrom)   y (angstrom)   z (angstrom)
      1     Pa    -0.28446400     0.55341067     0.39007515
      2      O     1.51128284     1.22460405    -0.53876814
      3      O    -1.29632687     2.40630697     0.54838315
      4      F    -1.50539655    -0.44652974    -1.07677527
      5      O    -0.29883768    -0.16077038     2.10181286
      6      O     0.63974170    -1.90576928    -0.05517791
      7      H     0.02175626    -2.28279861    -0.69689148
      8      H     0.57787540    -2.43987807     0.74697860
      9      H     2.34133858     1.53333838    -0.90446214
     10      H    -1.71871912     3.25997391     0.64428366
 
Total System Charge             0.00000
Bonding info available!
 
 *** GO1_GOStep22 ***



 ======================
 RI Hartree-Fock Scheme
 ======================
  
 Fit Set Quality     : GOOD
 Threshold Quality   : GOOD
 Integration Quality : GOOD
 Response Quality    : DEFAULT
 Is Range Separated  :  F
 
 RIHartreeFock Dependency: number of modified vectors:           4
  
 Hartree-Fock exchange energy:   -510.656078579970     

 Energy gradients wrt nuclear displacements
 ==========================================

     Atom      Cartesian (a.u./angstrom)
                 X         Y         Z
 ----------------------------------------
     1 Pa   -0.002832 -0.003309  0.007145
     2 O     0.004732  0.003271 -0.002813
     3 O    -0.000745  0.002499  0.002317
     4 F    -0.001829 -0.002568 -0.001731
     5 O    -0.000568  0.001229 -0.003335
     6 O     0.000899 -0.000691  0.000088
     7 H    -0.000555  0.000391 -0.001032
     8 H     0.000316 -0.000532  0.000480
     9 H     0.000160 -0.000469  0.000127
    10 H     0.000422  0.000180 -0.001245
 ----------------------------------------
 Mulliken charges used for AMS results%charges...

 dE(predicted):    -0.92494E-04, dE(actual):    -0.14870E-03, Trust radius:    1.000000, all in a.u.
 
----------------------------------------------------------------------
Geometry Convergence after Step  22       (Hartree/Angstrom,Angstrom)
----------------------------------------------------------------------
current energy                               -2.73990651 Hartree
energy change                      -0.00014870     0.00001000    F
constrained gradient max            0.00713494     0.00010000    F
constrained gradient rms            0.00226948     0.00006667    F
gradient max                        0.00713393
gradient rms                        0.00226948
cart. step max                      0.01088717     0.00100000    F
cart. step rms                      0.00476178     0.00066667    F
 
 
--------
Geometry
--------
Formula: H4FO4Pa
Atoms
  Index Symbol   x (angstrom)   y (angstrom)   z (angstrom)
      1     Pa    -0.28196339     0.55344807     0.38694573
      2      O     1.51457573     1.22418861    -0.53711192
      3      O    -1.30082187     2.40203886     0.54743526
      4      F    -1.50397018    -0.43617490    -1.08286215
      5      O    -0.28795051    -0.16398646     2.09859207
      6      O     0.63555268    -1.90570895    -0.05665639
      7      H     0.01596259    -2.28989817    -0.69217109
      8      H     0.57663057    -2.42983741     0.75218159
      9      H     2.34436457     1.53286161    -0.90349366
     10      H    -1.72412963     3.25495662     0.64659902
 
Total System Charge             0.00000
Bonding info available!
 
 *** GO1_GOStep23 ***



 ======================
 RI Hartree-Fock Scheme
 ======================
  
 Fit Set Quality     : GOOD
 Threshold Quality   : GOOD
 Integration Quality : GOOD
 Response Quality    : DEFAULT
 Is Range Separated  :  F
 
 RIHartreeFock Dependency: number of modified vectors:           4
  
 Hartree-Fock exchange energy:   -510.656792144725     

 Energy gradients wrt nuclear displacements
 ==========================================

     Atom      Cartesian (a.u./angstrom)
                 X         Y         Z
 ----------------------------------------
     1 Pa   -0.002400 -0.002923  0.005293
     2 O     0.003787  0.002738 -0.002185
     3 O    -0.000740  0.001966  0.002177
     4 F    -0.001321 -0.001926 -0.001169
     5 O    -0.000447  0.000861 -0.002564
     6 O     0.000593 -0.000875  0.000046
     7 H    -0.000431  0.000552 -0.000832
     8 H     0.000392 -0.000245  0.000380
     9 H     0.000170 -0.000441  0.000089
    10 H     0.000395  0.000294 -0.001236
 ----------------------------------------
 Mulliken charges used for AMS results%charges...

 dE(predicted):    -0.32127E-04, dE(actual):    -0.57352E-04, Trust radius:    1.000000, all in a.u.
 
----------------------------------------------------------------------
Geometry Convergence after Step  23       (Hartree/Angstrom,Angstrom)
----------------------------------------------------------------------
current energy                               -2.73996386 Hartree
energy change                      -0.00005735     0.00001000    F
constrained gradient max            0.00528292     0.00010000    F
constrained gradient rms            0.00179857     0.00006667    F
gradient max                        0.00528189
gradient rms                        0.00179858
cart. step max                      0.04211018     0.00100000    F
cart. step rms                      0.01841391     0.00066667    F
 
 
--------
Geometry
--------
Formula: H4FO4Pa
Atoms
  Index Symbol   x (angstrom)   y (angstrom)   z (angstrom)
      1     Pa    -0.27263357     0.55438319     0.37436767
      2      O     1.52654733     1.22163604    -0.53194810
      3      O    -1.31891895     2.38474606     0.54576059
      4      F    -1.49601824    -0.39406472    -1.11012986
      5      O    -0.24960881    -0.17548834     2.08518608
      6      O     0.62071914    -1.90508270    -0.05894673
      7      H     0.00058578    -2.31839102    -0.67429192
      8      H     0.56693593    -2.39041892     0.77401733
      9      H     2.35377224     1.52919934    -0.90497645
     10      H    -1.74313030     3.23536898     0.66041985
 
Total System Charge             0.00000
Bonding info available!
 
 *** GO1_GOStep24 ***



 ======================
 RI Hartree-Fock Scheme
 ======================
  
 Fit Set Quality     : GOOD
 Threshold Quality   : GOOD
 Integration Quality : GOOD
 Response Quality    : DEFAULT
 Is Range Separated  :  F
 
 RIHartreeFock Dependency: number of modified vectors:           4
  
 Hartree-Fock exchange energy:   -510.659839102180     

 Energy gradients wrt nuclear displacements
 ==========================================

     Atom      Cartesian (a.u./angstrom)
                 X         Y         Z
 ----------------------------------------
     1 Pa   -0.000362 -0.000624 -0.001528
     2 O    -0.000126  0.000509  0.000340
     3 O    -0.000731 -0.000310  0.001659
     4 F     0.000451  0.000317  0.000841
     5 O     0.000023 -0.000441  0.000088
     6 O    -0.000067 -0.000823  0.000080
     7 H    -0.000252  0.000833 -0.000284
     8 H     0.000490  0.000526  0.000085
     9 H     0.000073 -0.000392 -0.000047
    10 H     0.000502  0.000407 -0.001234
 ----------------------------------------
 Mulliken charges used for AMS results%charges...

 dE(predicted):    -0.10241E-03, dE(actual):    -0.97593E-04, Trust radius:    1.000000, all in a.u.
 
----------------------------------------------------------------------
Geometry Convergence after Step  24       (Hartree/Angstrom,Angstrom)
----------------------------------------------------------------------
current energy                               -2.74006145 Hartree
energy change                      -0.00009759     0.00001000    F
constrained gradient max            0.00161288     0.00010000    F
constrained gradient rms            0.00063183     0.00006667    F
gradient max                        0.00160754
gradient rms                        0.00063185
cart. step max                      0.00609178     0.00100000    F
cart. step rms                      0.00228787     0.00066667    F
 
 
--------
Geometry
--------
Formula: H4FO4Pa
Atoms
  Index Symbol   x (angstrom)   y (angstrom)   z (angstrom)
      1     Pa    -0.27166072     0.55504208     0.37354352
      2      O     1.52793388     1.22091692    -0.53276149
      3      O    -1.31965020     2.38440605     0.54609429
      4      F    -1.49635005    -0.38797294    -1.11321583
      5      O    -0.24532105    -0.17341028     2.08515926
      6      O     0.61790275    -1.90501435    -0.05890090
      7      H     0.00033201    -2.32354973    -0.67322899
      8      H     0.56721195    -2.38925922     0.77497690
      9      H     2.35614306     1.52801857    -0.90402751
     10      H    -1.74829107     3.23271079     0.66181922
 
Total System Charge             0.00000
Bonding info available!
 
 *** GO1_GOStep25 ***



 ======================
 RI Hartree-Fock Scheme
 ======================
  
 Fit Set Quality     : GOOD
 Threshold Quality   : GOOD
 Integration Quality : GOOD
 Response Quality    : DEFAULT
 Is Range Separated  :  F
 
 RIHartreeFock Dependency: number of modified vectors:           4
  
 Hartree-Fock exchange energy:   -510.659600888433     

 Energy gradients wrt nuclear displacements
 ==========================================

     Atom      Cartesian (a.u./angstrom)
                 X         Y         Z
 ----------------------------------------
     1 Pa   -0.000109 -0.000623 -0.001619
     2 O    -0.000249  0.000440  0.000402
     3 O    -0.000738 -0.000340  0.001637
     4 F     0.000353  0.000341  0.000702
     5 O     0.000048 -0.000462  0.000309
     6 O    -0.000002 -0.000533 -0.000086
     7 H    -0.000271  0.000676 -0.000200
     8 H     0.000427  0.000416  0.000144
     9 H     0.000126 -0.000391 -0.000060
    10 H     0.000415  0.000476 -0.001229
 ----------------------------------------
 Mulliken charges used for AMS results%charges...

 dE(predicted):    -0.45827E-05, dE(actual):    -0.65165E-05, Trust radius:    1.000000, all in a.u.
 
----------------------------------------------------------------------
Geometry Convergence after Step  25       (Hartree/Angstrom,Angstrom)
----------------------------------------------------------------------
current energy                               -2.74006797 Hartree
energy change                      -0.00000652     0.00001000    T
constrained gradient max            0.00162661     0.00010000    F
constrained gradient rms            0.00060888     0.00006667    F
gradient max                        0.00162767
gradient rms                        0.00060890
cart. step max                      0.02811748     0.00100000    F
cart. step rms                      0.01152904     0.00066667    F
 
 
--------
Geometry
--------
Formula: H4FO4Pa
Atoms
  Index Symbol   x (angstrom)   y (angstrom)   z (angstrom)
      1     Pa    -0.26856161     0.55831873     0.36930637
      2      O     1.53037749     1.22011903    -0.53991079
      3      O    -1.32220491     2.38265903     0.55176669
      4      F    -1.49033062    -0.35985546    -1.13644395
      5      O    -0.23406436    -0.16370698     2.08402069
      6      O     0.60713825    -1.90653318    -0.04869661
      7      H     0.01796391    -2.35003444    -0.67307293
      8      H     0.55222472    -2.38818801     0.78679548
      9      H     2.35836958     1.52580109    -0.91282674
     10      H    -1.76266189     3.22330808     0.67852026
 
Total System Charge             0.00000
Bonding info available!
 
 *** GO1_GOStep26 ***



 ======================
 RI Hartree-Fock Scheme
 ======================
  
 Fit Set Quality     : GOOD
 Threshold Quality   : GOOD
 Integration Quality : GOOD
 Response Quality    : DEFAULT
 Is Range Separated  :  F
 
 RIHartreeFock Dependency: number of modified vectors:           4
  
 Hartree-Fock exchange energy:   -510.659040877537     

 Energy gradients wrt nuclear displacements
 ==========================================

     Atom      Cartesian (a.u./angstrom)
                 X         Y         Z
 ----------------------------------------
     1 Pa    0.001136  0.000388 -0.000986
     2 O    -0.000749  0.000243  0.000661
     3 O    -0.000602 -0.000800  0.001643
     4 F    -0.000415  0.000018 -0.000477
     5 O     0.000117 -0.000303  0.000733
     6 O     0.000448  0.000982 -0.000696
     7 H    -0.000332 -0.000250  0.000214
     8 H    -0.000079 -0.000302  0.000258
     9 H     0.000183 -0.000461 -0.000141
    10 H     0.000293  0.000483 -0.001208
 ----------------------------------------
 Mulliken charges used for AMS results%charges...

 dE(predicted):    -0.26519E-04, dE(actual):    -0.25466E-04, Trust radius:    1.000000, all in a.u.
 
----------------------------------------------------------------------
Geometry Convergence after Step  26       (Hartree/Angstrom,Angstrom)
----------------------------------------------------------------------
current energy                               -2.74009343 Hartree
energy change                      -0.00002547     0.00001000    F
constrained gradient max            0.00160335     0.00010000    F
constrained gradient rms            0.00063975     0.00006667    F
gradient max                        0.00159875
gradient rms                        0.00063975
cart. step max                      0.01422156     0.00100000    F
cart. step rms                      0.00565642     0.00066667    F
 
 
--------
Geometry
--------
Formula: H4FO4Pa
Atoms
  Index Symbol   x (angstrom)   y (angstrom)   z (angstrom)
      1     Pa    -0.26823773     0.55942844     0.36765376
      2      O     1.52954420     1.22171436    -0.54454078
      3      O    -1.32094537     2.38355451     0.55487326
      4      F    -1.48718023    -0.35080262    -1.14596044
      5      O    -0.23282276    -0.15880771     2.08353724
      6      O     0.60232938    -1.90862871    -0.04096743
      7      H     0.03218547    -2.36123065    -0.67613268
      8      H     0.54182467    -2.39251313     0.79272443
      9      H     2.35676391     1.52783948    -0.91875433
     10      H    -1.76521099     3.22133393     0.68702545
 
Total System Charge             0.00000
Bonding info available!
 
 *** GO1_GOStep27 ***



 ======================
 RI Hartree-Fock Scheme
 ======================
  
 Fit Set Quality     : GOOD
 Threshold Quality   : GOOD
 Integration Quality : GOOD
 Response Quality    : DEFAULT
 Is Range Separated  :  F
 
 RIHartreeFock Dependency: number of modified vectors:           4
  
 Hartree-Fock exchange energy:   -510.659024940954     

 Energy gradients wrt nuclear displacements
 ==========================================

     Atom      Cartesian (a.u./angstrom)
                 X         Y         Z
 ----------------------------------------
     1 Pa    0.001231  0.000469 -0.000051
     2 O    -0.000569  0.000479  0.000553
     3 O    -0.000476 -0.000799  0.001712
     4 F    -0.000730 -0.000258 -0.000978
     5 O     0.000119 -0.000031  0.000373
     6 O     0.000306  0.001014 -0.000594
     7 H    -0.000192 -0.000434  0.000233
     8 H    -0.000129 -0.000383  0.000114
     9 H     0.000187 -0.000511 -0.000167
    10 H     0.000252  0.000453 -0.001196
 ----------------------------------------
 Mulliken charges used for AMS results%charges...

 dE(predicted):    -0.76028E-05, dE(actual):    -0.95715E-05, Trust radius:    1.000000, all in a.u.
 
----------------------------------------------------------------------
Geometry Convergence after Step  27       (Hartree/Angstrom,Angstrom)
----------------------------------------------------------------------
current energy                               -2.74010301 Hartree
energy change                      -0.00000957     0.00001000    T
constrained gradient max            0.00167217     0.00010000    F
constrained gradient rms            0.00063358     0.00006667    F
gradient max                        0.00166782
gradient rms                        0.00063359
cart. step max                      0.01599023     0.00100000    F
cart. step rms                      0.00572173     0.00066667    F
 
 
--------
Geometry
--------
Formula: H4FO4Pa
Atoms
  Index Symbol   x (angstrom)   y (angstrom)   z (angstrom)
      1     Pa    -0.26858329     0.56002082     0.36563139
      2      O     1.52768220     1.22397605    -0.54949755
      3      O    -1.31890777     2.38474472     0.55793447
      4      F    -1.48310507    -0.34550631    -1.15390246
      5      O    -0.23438714    -0.15574972     2.08212550
      6      O     0.59928041    -1.91119787    -0.03221621
      7      H     0.04817571    -2.36910330    -0.67993465
      8      H     0.52903133    -2.39726030     0.79915383
      9      H     2.35346985     1.53113856    -0.92591309
     10      H    -1.76440567     3.22082524     0.69607724
 
Total System Charge             0.00000
Bonding info available!
 
 *** GO1_GOStep28 ***



 ======================
 RI Hartree-Fock Scheme
 ======================
  
 Fit Set Quality     : GOOD
 Threshold Quality   : GOOD
 Integration Quality : GOOD
 Response Quality    : DEFAULT
 Is Range Separated  :  F
 
 RIHartreeFock Dependency: number of modified vectors:           4
  
 Hartree-Fock exchange energy:   -510.659428621172     

 Energy gradients wrt nuclear displacements
 ==========================================

     Atom      Cartesian (a.u./angstrom)
                 X         Y         Z
 ----------------------------------------
[...]
    30          3895.5996             156.2263

 Zero-point energy (Hartree):     0.0517

 ------------
 Normal Modes
 ------------

 Number of removed rigid normal modes: 6
 
 Mode:     7      Frequency (cm-1):       56.4929     Intensity (km/mol):        3.6697
 Index  Atom      ---- Displacements (x/y/z) ----
     1    Pa      -0.014759  -0.002814  -0.013308
     2     O      -0.042259  -0.058334  -0.108170
     3     O       0.198792   0.106654   0.131076
     4     F      -0.076230   0.066142   0.021520
     5     O      -0.186798  -0.161969  -0.071286
     6     O       0.284193   0.068560   0.189592
     7     H       0.615847  -0.204026   0.113683
     8     H       0.049724   0.268078   0.276016
     9     H      -0.088676  -0.035558  -0.179873
    10     H       0.213483   0.085414   0.194085
 
 Mode:     8      Frequency (cm-1):       65.8517     Intensity (km/mol):       11.8219
 Index  Atom      ---- Displacements (x/y/z) ----
     1    Pa      -0.006166   0.009112   0.018310
     2     O       0.043509  -0.062035   0.075279
     3     O       0.122846   0.094927  -0.175705
     4     F      -0.081952  -0.191995   0.174968
     5     O      -0.145794  -0.031257  -0.005032
     6     O       0.144734   0.077006  -0.299610
     7     H      -0.120113   0.332277  -0.266293
     8     H       0.254532  -0.108148  -0.391667
     9     H       0.077316  -0.165363   0.032428
    10     H       0.123223   0.223522  -0.441490
 
 Mode:     9      Frequency (cm-1):       92.9031     Intensity (km/mol):        0.3412
 Index  Atom      ---- Displacements (x/y/z) ----
     1    Pa      -0.018178   0.001194  -0.038592
     2     O       0.153868  -0.004338   0.299548
     3     O      -0.006681  -0.003169   0.056065
     4     F      -0.178115  -0.003776   0.090691
     5     O       0.219522  -0.015887  -0.036686
     6     O       0.059016   0.014007   0.064913
     7     H       0.057904  -0.234323   0.238251
     8     H       0.198875   0.227096   0.206558
     9     H       0.371236  -0.155825   0.583999
    10     H       0.140203   0.109587   0.016716
 
 Mode:    10      Frequency (cm-1):      103.7015     Intensity (km/mol):       15.6682
 Index  Atom      ---- Displacements (x/y/z) ----
     1    Pa      -0.043947  -0.011973   0.023037
     2     O      -0.015056  -0.235920  -0.045946
     3     O       0.044107   0.054748  -0.053394
     4     F       0.118436   0.120765  -0.178890
     5     O       0.241789   0.139310   0.085412
     6     O       0.148006   0.093537  -0.077845
     7     H       0.392322  -0.027291  -0.188026
     8     H       0.393541  -0.135844  -0.180297
     9     H       0.125305  -0.428749   0.036560
    10     H       0.283414   0.239902  -0.120510
 
 Mode:    11      Frequency (cm-1):      124.0475     Intensity (km/mol):        8.7176
 Index  Atom      ---- Displacements (x/y/z) ----
     1    Pa      -0.003689   0.036051  -0.010856
     2     O       0.067850  -0.218760  -0.038061
     3     O      -0.104194  -0.021320   0.208781
     4     F       0.121097  -0.186311   0.012109
     5     O      -0.026922  -0.052040  -0.049128
     6     O      -0.017778   0.027203  -0.010807
     7     H      -0.217338   0.169477   0.049425
     8     H      -0.087068   0.076815   0.009300
     9     H       0.293624  -0.627801  -0.018403
    10     H      -0.140152  -0.166230   0.461829
 
 Mode:    12      Frequency (cm-1):      131.7454     Intensity (km/mol):        4.2572
 Index  Atom      ---- Displacements (x/y/z) ----
     1    Pa       0.022276   0.012670   0.013815
     2     O       0.063239  -0.153833  -0.048306
     3     O      -0.234641  -0.121759  -0.142454
     4     F      -0.119129   0.193544   0.056940
     5     O      -0.041580  -0.126528  -0.036150
     6     O       0.050197   0.023638   0.002251
     7     H       0.210090  -0.077544  -0.054740
     8     H      -0.100229   0.107084   0.032203
     9     H       0.128465  -0.421057  -0.204047
    10     H      -0.515781  -0.154617  -0.448216
 
 Mode:    13      Frequency (cm-1):      154.6884     Intensity (km/mol):       55.5865
 Index  Atom      ---- Displacements (x/y/z) ----
     1    Pa       0.012965  -0.017252  -0.013659
     2     O       0.067005  -0.053823   0.025570
     3     O      -0.045081  -0.052351   0.074771
     4     F      -0.102076   0.062009   0.024210
     5     O      -0.158076   0.273784   0.087904
     6     O       0.056101   0.031805  -0.046379
     7     H       0.166015   0.042030  -0.141975
     8     H       0.217627  -0.206266  -0.163784
     9     H      -0.050893   0.177985   0.033199
    10     H      -0.110151  -0.392633   0.695866
 
 Mode:    14      Frequency (cm-1):      225.4921     Intensity (km/mol):        1.0064
 Index  Atom      ---- Displacements (x/y/z) ----
     1    Pa       0.010935  -0.030579  -0.002617
     2     O       0.011558  -0.025844  -0.023706
     3     O       0.022549  -0.017795  -0.006623
     4     F      -0.024014  -0.031798  -0.013059
     5     O       0.014571  -0.025603   0.013155
     6     O      -0.157790   0.475361   0.068865
     7     H       0.080777   0.510225  -0.148105
     8     H      -0.336292   0.389595  -0.002520
     9     H      -0.000193   0.286998   0.290330
    10     H      -0.066673  -0.022817  -0.114020
 
 Mode:    15      Frequency (cm-1):      232.1091     Intensity (km/mol):       21.1106
 Index  Atom      ---- Displacements (x/y/z) ----
     1    Pa      -0.003720   0.000348   0.001324
     2     O       0.041713  -0.030379   0.073034
     3     O       0.002171   0.030754  -0.059578
     4     F       0.010032  -0.000172  -0.008099
     5     O       0.033915  -0.042079  -0.012360
     6     O      -0.011360   0.034616  -0.005334
     7     H      -0.159827  -0.044990   0.168527
     8     H       0.198635   0.121017   0.071725
     9     H      -0.426383   0.141216  -0.700723
    10     H      -0.003123  -0.181188   0.376935
 
 Mode:    16      Frequency (cm-1):      255.7833     Intensity (km/mol):       21.2512
 Index  Atom      ---- Displacements (x/y/z) ----
     1    Pa       0.004469  -0.007625  -0.001344
     2     O      -0.021220   0.037026  -0.011155
     3     O       0.001334  -0.032598   0.049584
     4     F      -0.001222   0.028627  -0.021727
     5     O      -0.054638   0.029629   0.016191
     6     O      -0.004909   0.043104  -0.020643
     7     H      -0.456002  -0.081918   0.425207
     8     H       0.546974   0.206149   0.145278
     9     H       0.112924  -0.303657  -0.103682
    10     H       0.055344   0.163204  -0.288242
 
 Mode:    17      Frequency (cm-1):      272.3852     Intensity (km/mol):      151.6808
 Index  Atom      ---- Displacements (x/y/z) ----
     1    Pa      -0.002333   0.005146   0.003312
     2     O       0.007318  -0.080120  -0.052618
     3     O       0.012180   0.025809  -0.022211
     4     F       0.014194   0.007592   0.000751
     5     O       0.007215  -0.034861  -0.010128
     6     O       0.007146  -0.017675  -0.018997
     7     H      -0.231095  -0.104929   0.231787
     8     H       0.316882   0.082336   0.078394
     9     H      -0.065976   0.593619   0.523083
    10     H      -0.289979  -0.198147   0.043265
 
 Mode:    18      Frequency (cm-1):      284.4736     Intensity (km/mol):      229.3865
 Index  Atom      ---- Displacements (x/y/z) ----
     1    Pa      -0.002540   0.003091  -0.005377
     2     O       0.052241  -0.052303   0.034843
     3     O       0.018536  -0.021773   0.119755
     4     F      -0.000595  -0.020597  -0.009853
     5     O       0.002982   0.041853   0.002836
     6     O      -0.000400  -0.014281   0.004119
     7     H       0.115400  -0.008038  -0.091995
     8     H      -0.047254  -0.090482  -0.046609
     9     H      -0.329097   0.355608  -0.306459
    10     H      -0.309782   0.160761  -0.700487
 
 Mode:    19      Frequency (cm-1):      338.1433     Intensity (km/mol):      160.6289
 Index  Atom      ---- Displacements (x/y/z) ----
     1    Pa       0.002518   0.003610  -0.000020
     2     O       0.030456  -0.046078  -0.019078
     3     O      -0.088835  -0.053859   0.002650
     4     F       0.004179   0.005729   0.014454
     5     O      -0.025300  -0.010660  -0.006246
     6     O       0.008766  -0.005064  -0.002644
     7     H      -0.055539   0.028059   0.025359
     8     H      -0.026086   0.030740   0.013952
     9     H      -0.153838   0.367395   0.048222
    10     H       0.768446   0.473965   0.046341
 
 Mode:    20      Frequency (cm-1):      372.8467     Intensity (km/mol):      263.5403
 Index  Atom      ---- Displacements (x/y/z) ----
     1    Pa      -0.000357  -0.002609   0.001129
     2     O      -0.022380  -0.017202   0.015727
     3     O       0.014859  -0.011953  -0.000312
     4     F      -0.029092   0.015782  -0.044271
     5     O       0.017607   0.034700   0.023171
     6     O       0.105566  -0.036073  -0.018568
     7     H      -0.495754   0.433030   0.129527
     8     H      -0.603495   0.373291   0.133686
     9     H      -0.052685   0.029788   0.003149
    10     H      -0.053401  -0.051039  -0.008363
 
 Mode:    21      Frequency (cm-1):      461.7384     Intensity (km/mol):       47.5756
 Index  Atom      ---- Displacements (x/y/z) ----
     1    Pa       0.006551   0.007650   0.006845
     2     O      -0.005014  -0.003900   0.000746
     3     O      -0.002363  -0.010600  -0.006790
     4     F      -0.108314  -0.038005  -0.113117
     5     O       0.012928  -0.040483  -0.042347
     6     O       0.022393  -0.003222   0.100703
     7     H      -0.260544   0.543695  -0.054576
     8     H       0.331216  -0.652130  -0.238516
     9     H      -0.000861  -0.002566   0.009781
    10     H       0.026721  -0.002562   0.016316
 
 Mode:    22      Frequency (cm-1):      515.9551     Intensity (km/mol):      169.0818
 Index  Atom      ---- Displacements (x/y/z) ----
     1    Pa      -0.018120  -0.019133  -0.019793
     2     O       0.054637   0.028519  -0.013696
     3     O      -0.016430   0.061497   0.016491
     4     F       0.160582   0.143505   0.214636
     5     O       0.019697  -0.004989  -0.024309
     6     O       0.035850   0.006137   0.072424
     7     H      -0.406363   0.663890  -0.031344
     8     H       0.080353  -0.471312  -0.198234
     9     H       0.051695  -0.000285  -0.048978
    10     H      -0.086974   0.041666  -0.038205
 
 Mode:    23      Frequency (cm-1):      562.5942     Intensity (km/mol):      265.8515
 Index  Atom      ---- Displacements (x/y/z) ----
     1    Pa      -0.051915   0.021897   0.019010
     2     O       0.409283   0.141838  -0.209514
     3     O       0.255214  -0.402448  -0.057468
     4     F       0.014555  -0.008899  -0.012522
     5     O       0.025277  -0.024373   0.020537
     6     O       0.009619  -0.001015  -0.005115
     7     H      -0.050930   0.033031   0.020060
     8     H      -0.045693   0.048984   0.016590
     9     H       0.431866   0.098302  -0.212572
    10     H       0.191608  -0.493172   0.046624
 
 Mode:    24      Frequency (cm-1):      609.0396     Intensity (km/mol):      156.1157
 Index  Atom      ---- Displacements (x/y/z) ----
     1    Pa       0.006341   0.038078  -0.026206
     2     O      -0.380210  -0.155659   0.200484
     3     O       0.214674  -0.404013  -0.033752
     4     F       0.080110   0.055385   0.113158
     5     O      -0.000712  -0.039096   0.051569
     6     O      -0.020056   0.022341   0.025314
     7     H       0.035519   0.098182  -0.066644
     8     H       0.154969  -0.227828  -0.100078
     9     H      -0.430557  -0.085939   0.185559
    10     H       0.233004  -0.409246  -0.010923
 
 Mode:    25      Frequency (cm-1):      845.5613     Intensity (km/mol):      251.5596
 Index  Atom      ---- Displacements (x/y/z) ----
     1    Pa       0.001874   0.018817  -0.056715
     2     O       0.065918   0.021737  -0.029245
     3     O      -0.050529   0.086426   0.017854
     4     F      -0.029307  -0.022403  -0.034119
     5     O      -0.017802  -0.332310   0.870405
     6     O       0.005320  -0.023960   0.014161
     7     H      -0.022805   0.134275  -0.072064
     8     H       0.100617  -0.218369  -0.081295
     9     H       0.057197   0.029090  -0.052260
    10     H      -0.058250   0.101347  -0.007622
 
 Mode:    26      Frequency (cm-1):     1597.5245     Intensity (km/mol):      105.4042
 Index  Atom      ---- Displacements (x/y/z) ----
     1    Pa      -0.000067  -0.000014   0.000100
     2     O       0.000207  -0.000109   0.000018
     3     O      -0.000106   0.000154  -0.000021
     4     F      -0.000564   0.000814   0.000941
     5     O      -0.001203   0.001565  -0.001596
     6     O      -0.034648  -0.062168   0.008921
     7     H       0.180765   0.482804  -0.484164
     8     H       0.412584   0.465898   0.327671
     9     H       0.000091  -0.000237  -0.000524
    10     H      -0.000098   0.000454   0.000170
 
 Mode:    27      Frequency (cm-1):     3759.3372     Intensity (km/mol):       55.6953
 Index  Atom      ---- Displacements (x/y/z) ----
     1    Pa       0.000011  -0.000048  -0.000006
     2     O      -0.000155  -0.000053   0.000071
     3     O      -0.000014   0.000021  -0.000039
     4     F      -0.000151   0.000001  -0.000186
     5     O      -0.000015   0.000032   0.000321
     6     O      -0.027001  -0.040114   0.006822
     7     H       0.375958   0.314930   0.511526
     8     H       0.053440   0.329112  -0.619868
     9     H       0.003536   0.001721  -0.001622
    10     H      -0.001200   0.001840   0.000873
 
 Mode:    28      Frequency (cm-1):     3855.0650     Intensity (km/mol):      124.5708
 Index  Atom      ---- Displacements (x/y/z) ----
     1    Pa      -0.000008   0.000002  -0.000021
     2     O      -0.000156  -0.000096   0.000103
     3     O       0.000040  -0.000050  -0.000002
     4     F       0.000106   0.000120   0.000166
     5     O      -0.000008  -0.000120   0.000241
     6     O       0.019382  -0.001178   0.068574
     7     H      -0.385070  -0.335411  -0.482876
     8     H       0.077411   0.353849  -0.608079
     9     H       0.002398   0.001133  -0.001337
    10     H      -0.000460   0.000693   0.000240
 
 Mode:    29      Frequency (cm-1):     3892.5141     Intensity (km/mol):      204.9224
 Index  Atom      ---- Displacements (x/y/z) ----
     1    Pa      -0.000003  -0.000005   0.000008
     2     O      -0.017814  -0.009427   0.008742
     3     O      -0.029500   0.046208   0.021855
     4     F      -0.000066  -0.000055  -0.000089
     5     O       0.000088  -0.000148   0.000189
     6     O      -0.000016  -0.000027  -0.000017
     7     H       0.000202   0.000524   0.000366
     8     H      -0.000074   0.000408  -0.000107
     9     H       0.284558   0.150171  -0.138832
    10     H       0.466998  -0.729927  -0.349793
 
 Mode:    30      Frequency (cm-1):     3895.5996     Intensity (km/mol):      156.2263
 Index  Atom      ---- Displacements (x/y/z) ----
     1    Pa       0.000011   0.000001   0.000010
     2     O       0.048206   0.025248  -0.023630
     3     O      -0.011245   0.017533   0.008239
     4     F      -0.000166  -0.000137  -0.000160
     5     O      -0.000123  -0.000193   0.000341
     6     O      -0.000015  -0.000285   0.000221
     7     H       0.000276   0.000759   0.001028
     8     H       0.000182   0.002988  -0.004659
     9     H      -0.759292  -0.399365   0.370592
    10     H       0.175015  -0.273496  -0.130996

PES point character: Geometry corresponds to a local minimum on the PES.




 ============================
 Statistical Thermal Analysis  ***  ideal gas assumed  ***
 ============================
  
 Pressure:                  1.000000 atm.
 Temperature:             298.150000 K



 Moments of Inertia [amu*bohr^2] and principal axis
 ==================================================

         772.9249       1151.7486       1165.0512
 ------------------------------------------------
          -0.2774          0.8931         -0.3541
           0.9496          0.1988         -0.2423
           0.1460          0.4034          0.9033


 The rotational contribution to the molecular entropy includes
 a term, dependent on the symmetry number sigma. The results 
 reported below were computed using sigma = 1, determined from
 the point group symmetry of the input geometry (NOSYM). 
 If this is not the correct symmetry, try symmetrizing the molecule before
 running the calculation (note: linear molecules should be aligned along one
 of the Cartesian axes).
 Contributions from frequencies below 20 1/cm are not included in vibrational sums.
 Their contributions, if any, are reported separately.


     Temp                                                        Transl      Rotat     Vibrat     Total
     ----                                                        ------      -----     ------     -----

     298.15   Entropy (cal/mol-K):                               43.167     28.430     37.761    109.357
              Nuclear Internal Energy (kcal/mol):                 0.889      0.889     38.165     39.942
              Constant Volume Heat Capacity (cal/mol-K):          2.981      2.981     30.801     36.763
          (c) Constant Volume Heat Capacity (cal/mol-K):          2.981      2.981     27.346     33.308

       Summary of energy terms
                                                   hartree              eV         kcal/mol           kJ/mol
                                      --------------------     -----------       ----------      -----------
      Energy from Engine:               -2.740383250913132        -74.5696         -1719.62         -7194.88
      Nuclear Internal Energy:           0.063651789894007          1.7321            39.94           167.12
  (c) Nuclear Internal Energy:           0.061868264055293          1.6835            38.82           162.44
      Internal Energy U:                -2.676731461019124        -72.8376         -1679.67         -7027.76
      pV/n = RT:                         0.000944186013486          0.0257             0.59             2.48
      Enthalpy H:                       -2.675787275005638        -72.8119         -1679.08         -7025.28
      -T*S:                             -0.051959176181454         -1.4139           -32.60          -136.42
  (c) -T*S:                             -0.050659506143707         -1.3785           -31.79          -133.01
      Gibbs free energy:                -2.727746451187092        -74.2258         -1711.69         -7161.70
 
 
 
  (c) The properties marked with this symbol have been corrected using 'low vibrational frequency free rotor
      interpolation corrections'. For those terms all positive frequencies are used (also ones below 20 1/cm),
      but the contribution to the partition function of small vibrational frequencies is modified as described
      in the following paper:
      S. Grimme, 'Supramolecular Binding Thermodynamics by Dispersion-Corrected Density Functional Theory'
      (Chem. Eur. J. 2012, 18, 9955-9964)
      Configuration: Dampener Frequency          :   100.000 1/cm
                     Dampener Alpha              :     4.000
                     Averaging Moment of Inertia : 1.000E-44 kg m2

--------------
Atomic charges
--------------
  Index   Atom    Charge
      1     Pa    2.5366
      2      O   -0.6271
      3      O   -0.6358
      4      F   -0.6520
      5      O   -0.7390
      6      O   -0.4242
      7      H    0.2417
      8      H    0.2418
      9      H    0.0226
     10      H    0.0355


Dipole moment vector    (Debye):     1.35867632   -1.19414210   -0.54166561
              magnitude (Debye):     1.88822095


Final PES point is a local minimum. Geometry optimization successful!


AMS application finished. Exiting.
NORMAL TERMINATION
     Total cpu time:   92927.81
  Total system time:    1852.29
 Total elapsed time:   94777.79
