

 Parallel Execution: Process Information
 ==============================================================================
 Rank   Node Name                              NodeID   MyNodeRank  NodeMaster
    0   u-5-4.local                               0          0          0
    1   u-5-4.local                               0          1         -1
    2   u-5-4.local                               0          2         -1
    3   u-5-4.local                               0          3         -1
    4   u-5-4.local                               1          0          1
    5   u-5-4.local                               1          1         -1
    6   u-5-4.local                               1          2         -1
    7   u-5-4.local                               1          3         -1
 ==============================================================================


May use up to 31144MB of RAM as shared memory on node 0
May use up to 31250MB of RAM as shared memory on node 1

 *******************************************************************************
 *                                                                             *
 *  --------------------------------                                           *
 *   Amsterdam Modeling Suite (AMS)              2022.103                      *
 *  --------------------------------                                           *
 *                                               r104886 2022-06-17            *
 *                                                                             *
 *                                                                             *
 *                              =================                              *
 *                              |               |                              *
 *                              |     A M S     |                              *
 *                              |               |                              *
 *                              =================                              *
 *                                                                             *
 *                                                                             *
 *   Online information and documentation:  https://www.scm.com/support/       *
 *   E-mail:  support@scm.com   info@scm.com                                   *
 *                                                                             *
 *   Scientific publications using AMS results must be properly referenced     *
 *   See the User Manuals (or the web site) for recommended citations          *
 *   The terms and conditions of the End User License Agreement apply to       *
 *   the use of AMS, https://www.scm.com/license-terms/                        *
 *                                                                             *
 **********************  x86_64_linux_intel / intelmpi  ************************
 
 Licensed to: Dr. Val?rie Vallet / Laboratoire PhLAM UMR 8523 / Villeneuve d'Ascq Cedex / FRANCE 2023-02-21 11:49:39
 SCM User ID: u10325
  
 AMS 2022.103  RunTime: Feb27-2023 15:05:24  ShM Nodes: 2  Procs: 8

 AMS jobname: pa_oh5.SR.b3lyp.tz2p.opt-freq-B21-solvation
 AMS jobid  : 1646825441

 Start   directory: /home/shaaban/ams/PhD/hyroxide/pa_oh5/solvation/B21/
 Results directory: /home/shaaban/ams/PhD/hyroxide/pa_oh5/solvation/B21/pa_oh5.SR.b3lyp.tz2p.opt-freq-B21-solvation.results/
 Scratch directory: /state/partition1/shaaban/929840.phlam-s-sakura/amstmp_pa_oh5.SR.b3lyp.tz2p.opt-freq-B21-solvation_kid0.1646825441/


 Communication costs MPI_COMM_WORLD:      1.743 usec per message,   0.0064 usec per 8-byte item
 Communication costs for intra-node:      1.022 usec per message,   0.0035 usec per 8-byte item

 RNG seed: 791447483 -1370148766 1501495791 -1157764651 -1164728014 -1650786381 1850806826 -607976329
Floating license problem: error getting info for file /share/apps/FloatADF/Linuxu-4-0.local00:E0:81:B8:4C:0A.23715.682
Floating license problem: error getting info for file /share/apps/FloatADF/Linuxu-4-0.local00:E0:81:B8:4C:0A.23715.682
waiting for floating license...
Floating license problem: error getting info for file /share/apps/FloatADF/Linuxu-4-0.local00:E0:81:B8:4C:0A.23708.682
Floating license problem: error getting info for file /share/apps/FloatADF/Linuxu-4-0.local00:E0:81:B8:4C:0A.23708.682
waiting for floating license...
Floating license problem: error getting info for file /share/apps/FloatADF/Linuxu-4-0.local00:E0:81:B8:4C:0A.23712.682
Floating license problem: error getting info for file /share/apps/FloatADF/Linuxu-4-0.local00:E0:81:B8:4C:0A.23712.682
waiting for floating license...
Floating license problem: error getting info for file /share/apps/FloatADF/Linuxu-4-0.local00:E0:81:B8:4C:0A.23712.682
Floating license problem: error getting info for file /share/apps/FloatADF/Linuxu-4-0.local00:E0:81:B8:4C:0A.23712.682
waiting for floating license...
Floating license problem: error getting info for file /share/apps/FloatADF/Linuxu-4-0.local00:E0:81:B8:4C:0A.23712.682
Floating license problem: error getting info for file /share/apps/FloatADF/Linuxu-4-0.local00:E0:81:B8:4C:0A.23712.682
waiting for floating license...
Floating license problem: error getting info for file /share/apps/FloatADF/Linuxu-4-0.local00:E0:81:B8:4C:0A.23712.682
Floating license problem: error getting info for file /share/apps/FloatADF/Linuxu-4-0.local00:E0:81:B8:4C:0A.23712.682
waiting for floating license...
Floating license problem: error getting info for file /share/apps/FloatADF/Linuxu-4-0.local00:E0:81:B8:4C:0A.23712.682
Floating license problem: error getting info for file /share/apps/FloatADF/Linuxu-4-0.local00:E0:81:B8:4C:0A.23712.682
waiting for floating license...



                      ************************************************************************
                      *  ADF 2022.103  RunTime: Feb27-2023 15:05:28  ShM Nodes: 2  Procs: 8  *
                      ************************************************************************
  
       ***************************
       *  GEOMETRY OPTIMIZATION  *
       ***************************

Optimization Method                    Quasi Newton
Optimization Coordinates               Delocalized Coordinates
Optimize lattice                       F
 
 ------------------------------------------------------
 Convergence criteria (Hartree,Angstrom)
 ------------------------------------------------------
 Maximum gradient               0.000100000000
 Maximum rms gradient           0.000066666667
 Maximum step allowed           0.001000000000
 Maximum rms step allowed       0.000666666667
 Maximum energy change allowe   0.000011000000
 Maximum stress energy allowe   0.000500000000
 
Initial model Hessian                  Automatic Hessian
 
------------------------------------
Quasi-Newton Optimizer Parameters
------------------------------------
Hessian Update Method                  BFGS
Maximum number of steps                  250
First GDIIS cycle                          0
Maximum GDIIS vectors                      0
Trust radius (bohr)                        0.200000
Trust radius varies                        T
Constraints converged at all steps         T
Use projector                              T
 
 Rigid motions settings for: old optimizer
 Atomic rotations (x,y,z):     T T T
 Atomic translations (x,y,z):  T T T
 Tolerance:                   1.000000000000000E-006
 
--------
Geometry
--------
Formula: H5O5Pa
Atoms
  Index Symbol   x (angstrom)   y (angstrom)   z (angstrom)
      1     Pa     0.31948843     0.01613127     0.04673842       adf.R=2.200
      2      O     1.08581573     1.61487933    -1.08547977       adf.R=1.517
      3      H     1.37543767     2.02428164    -1.90384684       adf.R=1.350
      4      O    -1.41563413     1.14013552     0.50479500       adf.R=1.517
      5      H    -1.92529491     1.94972474     0.43872832       adf.R=1.350
      6      O     0.38409830    -1.17627336    -1.71070430       adf.R=1.517
      7      H     0.19334291    -2.06081026    -2.03159881       adf.R=1.350
      8      O    -0.42504323    -1.64149188     1.09772785       adf.R=1.517
      9      H    -0.78302860    -2.17274232     1.81150461       adf.R=1.350
     10      O     1.96991732     0.15650781     1.37099634       adf.R=1.517
     11      H     2.78052835     0.62203726     1.58695557       adf.R=1.350
 
Total System Charge             0.00000
Bonding info available!
 
 
----------------
ADF Engine Input
----------------
 
 Basis
 Type TZ2P
 Core None
 End
 XC
 Hybrid B3LYP
 End
 Solvation
 Surf Delley
 Solv name=Water cav0=0.0 cav1=0.0067639
 Charged method=CONJ
 C-Mat POT
 SCF VAR ALL
 CSMRSP
 End
 NumericalQuality Good
 

 Title: *** (NO TITLE) ***

 Using automatic Hessian for delocalized coordinates.
 *** GO1_GOStep1 ***

 SOLVATION
-------------------------------------------

  The Delley construction of COSMO surface surface is calculated

       Division Level for Surface Triangles (NDIV)                  3
       Final Division Level for Triangles (NFDIV)                   1
       Radius of the Solvent (RSOL)                           1.93000 angstr
  Dielectric Constant (EPSL)                                 78.39000

       COSMO equation is solved iteratively-               conjugate-gradient

       Maximun of Iterations for Charges (NCIX)                  1000
       Criterion for Charge convergence (CCNV)                1.0E-08

  COSMO charges included variationally in SCF

       COSMO included at every SCF cycle

  Geometry-dependent empirical factor                         0.00000

  C-Matrix calculated in cspmtx

  In cspmtx, C-Matrix calculated using fitted potential

-------------------------------------------



 -------------------------------------------
  COSMO surface
  Area             =          512.232
  Volume           =          779.767
  Number of Points =         1359
 -------------------------------------------



 ======================
 RI Hartree-Fock Scheme
 ======================
  
 Fit Set Quality     : GOOD
 Threshold Quality   : GOOD
 Integration Quality : GOOD
 Response Quality    : DEFAULT
 Is Range Separated  :  F
 
 RIHartreeFock Dependency: number of modified vectors:           5
 cosmo_calcen: 0.5 (esolb+esolc) (Hartrees) =   -0.030108

 Solvation energy (screening term,uncorrected) =    -18.892861 kcal/mol

 Solvation energy (dispersion and cavitation terms) =      0.957835 kcal/mol
 Solvation Energy Contributions (Hartrees)
          esola   esolb+esolc
     0.03010769   -0.06021537
 esol last cycle   -0.03010769
  
 Hartree-Fock exchange energy:   -509.168330209120     
 cosmo_calcen: 0.5 (esolb+esolc) (Hartrees) =   -0.030108

 Solvation energy (screening term,uncorrected) =    -18.892858 kcal/mol

 Solvation energy (dispersion and cavitation terms) =      0.957835 kcal/mol
 Solvation Energy Contributions (Hartrees)
          esola   esolb+esolc
     0.03010768   -0.06021536
 esol last cycle   -0.03010768

 Energy gradients wrt nuclear displacements
 ==========================================

     Atom      Cartesian (a.u./angstrom)
                 X         Y         Z
 ----------------------------------------
     1 Pa   -0.001552 -0.002998  0.003824
     2 O    -0.000901 -0.004039 -0.002314
     3 H    -0.001493 -0.001622  0.005655
     4 O     0.006116  0.002334 -0.004419
     5 H     0.001606 -0.005611  0.001624
     6 O    -0.002097 -0.001182  0.007944
     7 H     0.001585  0.005330  0.000030
     8 O     0.000852  0.004152 -0.000142
     9 H     0.002429  0.002732 -0.005209
    10 O    -0.002168  0.004786 -0.007470
    11 H    -0.004376 -0.003880  0.000479
 ----------------------------------------
 Mulliken charges used for AMS results%charges...
 
----------------------------------------------------------------------
Geometry Convergence after Step   1       (Hartree/Angstrom,Angstrom)
----------------------------------------------------------------------
current energy                               -3.02445407 Hartree
energy change                      -3.02445407     0.00001100    F
constrained gradient max            0.00794382     0.00010000    F
constrained gradient rms            0.00373578     0.00006667    F
gradient max                        0.00794382
gradient rms                        0.00373578
cart. step max                      0.01069848     0.00100000    F
cart. step rms                      0.00408954     0.00066667    F
 
 
--------
Geometry
--------
Formula: H5O5Pa
Atoms
  Index Symbol   x (angstrom)   y (angstrom)   z (angstrom)
      1     Pa     0.32123283     0.01561532     0.04312364       adf.R=2.200
      2      O     1.08680079     1.62183222    -1.08554621       adf.R=1.517
      3      H     1.37580999     2.03214882    -1.90726483       adf.R=1.350
      4      O    -1.42016083     1.13631671     0.50573401       adf.R=1.517
      5      H    -1.92808199     1.95024052     0.43702775       adf.R=1.350
      6      O     0.38627656    -1.17712481    -1.71955216       adf.R=1.517
      7      H     0.19314161    -2.06571601    -2.03584983       adf.R=1.350
      8      O    -0.42607349    -1.64155843     1.10212610       adf.R=1.517
      9      H    -0.78554659    -2.16913597     1.82220309       adf.R=1.350
     10      O     1.97204607     0.15000100     1.37512604       adf.R=1.517
     11      H     2.78418289     0.61976037     1.58868879       adf.R=1.350
 
Total System Charge             0.00000
Bonding info available!
 
 *** GO1_GOStep2 ***

 SOLVATION
-------------------------------------------

  The Delley construction of COSMO surface surface is calculated

       Division Level for Surface Triangles (NDIV)                  3
       Final Division Level for Triangles (NFDIV)                   1
       Radius of the Solvent (RSOL)                           1.93000 angstr
  Dielectric Constant (EPSL)                                 78.39000

       COSMO equation is solved iteratively-               conjugate-gradient

       Maximun of Iterations for Charges (NCIX)                  1000
       Criterion for Charge convergence (CCNV)                1.0E-08

  COSMO charges included variationally in SCF

       COSMO included at every SCF cycle

  Geometry-dependent empirical factor                         0.00000

  C-Matrix calculated in cspmtx

  In cspmtx, C-Matrix calculated using fitted potential

-------------------------------------------



 -------------------------------------------
  COSMO surface
  Area             =          513.771
  Volume           =          782.527
  Number of Points =         1358
 -------------------------------------------



 ======================
 RI Hartree-Fock Scheme
 ======================
  
 Fit Set Quality     : GOOD
 Threshold Quality   : GOOD
 Integration Quality : GOOD
 Response Quality    : DEFAULT
 Is Range Separated  :  F
 
 RIHartreeFock Dependency: number of modified vectors:           5
 cosmo_calcen: 0.5 (esolb+esolc) (Hartrees) =   -0.030542

 Solvation energy (screening term,uncorrected) =    -19.165126 kcal/mol

 Solvation energy (dispersion and cavitation terms) =      0.960711 kcal/mol
 Solvation Energy Contributions (Hartrees)
          esola   esolb+esolc
     0.03054157   -0.06108314
 esol last cycle   -0.03054157
  
 Hartree-Fock exchange energy:   -509.152369021084     
 cosmo_calcen: 0.5 (esolb+esolc) (Hartrees) =   -0.030542

 Solvation energy (screening term,uncorrected) =    -19.165130 kcal/mol

 Solvation energy (dispersion and cavitation terms) =      0.960711 kcal/mol
 Solvation Energy Contributions (Hartrees)
          esola   esolb+esolc
     0.03054158   -0.06108315
 esol last cycle   -0.03054158

 Energy gradients wrt nuclear displacements
 ==========================================

     Atom      Cartesian (a.u./angstrom)
                 X         Y         Z
 ----------------------------------------
     1 Pa   -0.000984 -0.002470  0.002690
     2 O    -0.001459 -0.003821  0.000559
     3 H     0.000275  0.000928  0.000783
     4 O     0.006033 -0.000414 -0.003221
     5 H    -0.001505 -0.001011  0.001373
     6 O    -0.000992  0.001369  0.006528
     7 H     0.000605  0.000724 -0.001716
     8 O     0.001576  0.004631 -0.001978
     9 H     0.000099 -0.000858 -0.000639
    10 O    -0.003781  0.002357 -0.006205
    11 H     0.000132 -0.001435  0.001826
 ----------------------------------------
 Mulliken charges used for AMS results%charges...

 dE(predicted):    -0.17756E-03, dE(actual):    -0.29503E-03, Trust radius:    0.200000, all in a.u.
 
----------------------------------------------------------------------
Geometry Convergence after Step   2       (Hartree/Angstrom,Angstrom)
----------------------------------------------------------------------
current energy                               -3.02474910 Hartree
energy change                      -0.00029503     0.00001100    F
constrained gradient max            0.00652687     0.00010000    F
constrained gradient rms            0.00262329     0.00006667    F
gradient max                        0.00652687
gradient rms                        0.00262329
cart. step max                      0.01497869     0.00100000    F
cart. step rms                      0.00609171     0.00066667    F
 
 
--------
Geometry
--------
Formula: H5O5Pa
Atoms
  Index Symbol   x (angstrom)   y (angstrom)   z (angstrom)
      1     Pa     0.32396785     0.01468363     0.03786314       adf.R=2.200
      2      O     1.08826025     1.63346478    -1.08312801       adf.R=1.517
      3      H     1.37411303     2.04073094    -1.90933693       adf.R=1.350
      4      O    -1.42816507     1.12867474     0.50838965       adf.R=1.517
      5      H    -1.92574940     1.94995575     0.43104384       adf.R=1.350
      6      O     0.38998485    -1.17688165    -1.73453085       adf.R=1.517
      7      H     0.19187295    -2.07084338    -2.03678321       adf.R=1.350
      8      O    -0.42724835    -1.64328458     1.10700219       adf.R=1.517
      9      H    -0.78787489    -2.16048220     1.83602121       adf.R=1.350
     10      O     1.97491784     0.13813044     1.38328805       adf.R=1.517
     11      H     2.78554877     0.61823130     1.58598730       adf.R=1.350
 
Total System Charge             0.00000
Bonding info available!
 
 *** GO1_GOStep3 ***

 SOLVATION
-------------------------------------------

  The Delley construction of COSMO surface surface is calculated

       Division Level for Surface Triangles (NDIV)                  3
       Final Division Level for Triangles (NFDIV)                   1
       Radius of the Solvent (RSOL)                           1.93000 angstr
  Dielectric Constant (EPSL)                                 78.39000

       COSMO equation is solved iteratively-               conjugate-gradient

       Maximun of Iterations for Charges (NCIX)                  1000
       Criterion for Charge convergence (CCNV)                1.0E-08

  COSMO charges included variationally in SCF

       COSMO included at every SCF cycle

  Geometry-dependent empirical factor                         0.00000

  C-Matrix calculated in cspmtx

  In cspmtx, C-Matrix calculated using fitted potential

-------------------------------------------



 -------------------------------------------
  COSMO surface
  Area             =          514.751
  Volume           =          784.899
  Number of Points =         1359
 -------------------------------------------



 ======================
 RI Hartree-Fock Scheme
 ======================
  
 Fit Set Quality     : GOOD
 Threshold Quality   : GOOD
 Integration Quality : GOOD
 Response Quality    : DEFAULT
 Is Range Separated  :  F
 
 RIHartreeFock Dependency: number of modified vectors:           5
 cosmo_calcen: 0.5 (esolb+esolc) (Hartrees) =   -0.031216

 Solvation energy (screening term,uncorrected) =    -19.588388 kcal/mol

 Solvation energy (dispersion and cavitation terms) =      0.962544 kcal/mol
 Solvation Energy Contributions (Hartrees)
          esola   esolb+esolc
     0.03121608   -0.06243216
 esol last cycle   -0.03121608
  
 Hartree-Fock exchange energy:   -509.136299438745     
 cosmo_calcen: 0.5 (esolb+esolc) (Hartrees) =   -0.031216

 Solvation energy (screening term,uncorrected) =    -19.588391 kcal/mol

 Solvation energy (dispersion and cavitation terms) =      0.962544 kcal/mol
 Solvation Energy Contributions (Hartrees)
          esola   esolb+esolc
     0.03121609   -0.06243217
 esol last cycle   -0.03121609

 Energy gradients wrt nuclear displacements
 ==========================================

     Atom      Cartesian (a.u./angstrom)
                 X         Y         Z
 ----------------------------------------
     1 Pa   -0.000127 -0.001453  0.000887
     2 O    -0.000605 -0.001104  0.000136
     3 H     0.001159  0.002270 -0.001624
     4 O     0.002992 -0.000025 -0.001733
     5 H    -0.003098  0.001193  0.001301
     6 O    -0.000238  0.000648  0.002605
     7 H     0.000083 -0.001607 -0.002534
     8 O     0.000321  0.001883 -0.000059
     9 H    -0.001006 -0.002638  0.001501
    10 O    -0.001837  0.001131 -0.003036
    11 H     0.002357 -0.000297  0.002556
 ----------------------------------------
 Mulliken charges used for AMS results%charges...

 dE(predicted):    -0.17577E-03, dE(actual):    -0.26404E-03, Trust radius:    0.200000, all in a.u.
 
----------------------------------------------------------------------
Geometry Convergence after Step   3       (Hartree/Angstrom,Angstrom)
----------------------------------------------------------------------
current energy                               -3.02501314 Hartree
energy change                      -0.00026404     0.00001100    F
constrained gradient max            0.00309062     0.00010000    F
constrained gradient rms            0.00169231     0.00006667    F
gradient max                        0.00309062
gradient rms                        0.00169231
cart. step max                      0.01104481     0.00100000    F
cart. step rms                      0.00547617     0.00066667    F
 
 
--------
Geometry
--------
Formula: H5O5Pa
Atoms
  Index Symbol   x (angstrom)   y (angstrom)   z (angstrom)
      1     Pa     0.32561039     0.01374158     0.03570331       adf.R=2.200
      2      O     1.08913799     1.64170310    -1.07700454       adf.R=1.517
      3      H     1.37089592     2.04167306    -1.90825080       adf.R=1.350
      4      O    -1.43469609     1.12114896     0.51226633       adf.R=1.517
      5      H    -1.91577537     1.95105282     0.42228311       adf.R=1.350
      6      O     0.39279970    -1.17344592    -1.74557565       adf.R=1.517
      7      H     0.18923090    -2.07217288    -2.03007120       adf.R=1.350
      8      O    -0.42732581    -1.64785046     1.10607847       adf.R=1.517
      9      H    -0.78867017    -2.15424140     1.84221382       adf.R=1.350
     10      O     1.97603703     0.12821654     1.39131196       adf.R=1.517
     11      H     2.78238335     0.62255437     1.57686159       adf.R=1.350
 
Total System Charge             0.00000
Bonding info available!
 
 *** GO1_GOStep4 ***

 SOLVATION
-------------------------------------------

  The Delley construction of COSMO surface surface is calculated

       Division Level for Surface Triangles (NDIV)                  3
       Final Division Level for Triangles (NFDIV)                   1
       Radius of the Solvent (RSOL)                           1.93000 angstr
  Dielectric Constant (EPSL)                                 78.39000

       COSMO equation is solved iteratively-               conjugate-gradient

       Maximun of Iterations for Charges (NCIX)                  1000
       Criterion for Charge convergence (CCNV)                1.0E-08

  COSMO charges included variationally in SCF

       COSMO included at every SCF cycle

  Geometry-dependent empirical factor                         0.00000

  C-Matrix calculated in cspmtx

  In cspmtx, C-Matrix calculated using fitted potential

-------------------------------------------



 -------------------------------------------
  COSMO surface
  Area             =          514.545
  Volume           =          785.801
  Number of Points =         1362
 -------------------------------------------



 ======================
 RI Hartree-Fock Scheme
 ======================
  
 Fit Set Quality     : GOOD
 Threshold Quality   : GOOD
 Integration Quality : GOOD
 Response Quality    : DEFAULT
 Is Range Separated  :  F
 
 RIHartreeFock Dependency: number of modified vectors:           5
 cosmo_calcen: 0.5 (esolb+esolc) (Hartrees) =   -0.031764

 Solvation energy (screening term,uncorrected) =    -19.931975 kcal/mol

 Solvation energy (dispersion and cavitation terms) =      0.962160 kcal/mol
 Solvation Energy Contributions (Hartrees)
          esola   esolb+esolc
     0.03176362   -0.06352724
 esol last cycle   -0.03176362
  
 Hartree-Fock exchange energy:   -509.129743545467     
 cosmo_calcen: 0.5 (esolb+esolc) (Hartrees) =   -0.031764

 Solvation energy (screening term,uncorrected) =    -19.931975 kcal/mol

 Solvation energy (dispersion and cavitation terms) =      0.962160 kcal/mol
 Solvation Energy Contributions (Hartrees)
          esola   esolb+esolc
     0.03176362   -0.06352724
 esol last cycle   -0.03176362

 Energy gradients wrt nuclear displacements
 ==========================================

     Atom      Cartesian (a.u./angstrom)
                 X         Y         Z
 ----------------------------------------
     1 Pa    0.000454 -0.000546 -0.000293
     2 O     0.000274  0.000956 -0.001337
     3 H     0.001153  0.002268 -0.001578
     4 O     0.000590  0.001255 -0.000951
     5 H    -0.003132  0.001166  0.001311
     6 O    -0.000070 -0.000888 -0.000096
     7 H     0.000029 -0.001660 -0.002400
     8 O    -0.001055 -0.000633  0.002337
     9 H    -0.000939 -0.002634  0.001349
    10 O     0.000320  0.001020 -0.000888
    11 H     0.002376 -0.000302  0.002544
 ----------------------------------------
 Mulliken charges used for AMS results%charges...

 dE(predicted):    -0.10230E-03, dE(actual):    -0.18005E-03, Trust radius:    0.200000, all in a.u.
 
----------------------------------------------------------------------
Geometry Convergence after Step   4       (Hartree/Angstrom,Angstrom)
----------------------------------------------------------------------
current energy                               -3.02519319 Hartree
energy change                      -0.00018005     0.00001100    F
constrained gradient max            0.00312534     0.00010000    F
constrained gradient rms            0.00143674     0.00006667    F
gradient max                        0.00312534
gradient rms                        0.00143674
cart. step max                      0.04378181     0.00100000    F
cart. step rms                      0.01865082     0.00066667    F
 
 
--------
Geometry
--------
Formula: H5O5Pa
Atoms
  Index Symbol   x (angstrom)   y (angstrom)   z (angstrom)
      1     Pa     0.32864904     0.01054442     0.03452708       adf.R=2.200
      2      O     1.09037757     1.66076705    -1.05204478       adf.R=1.517
      3      H     1.35811289     2.03313914    -1.90024897       adf.R=1.350
      4      O    -1.45149294     1.09935059     0.52531382       adf.R=1.517
      5      H    -1.87199357     1.95565960     0.39125360       adf.R=1.350
      6      O     0.39996629    -1.15792749    -1.77189669       adf.R=1.517
      7      H     0.18027364    -2.06935791    -1.99821725       adf.R=1.350
      8      O    -0.42581205    -1.66596019     1.09437348       adf.R=1.517
      9      H    -0.78954981    -2.13964255     1.85008920       adf.R=1.350
     10      O     1.97698860     0.10173955     1.41431323       adf.R=1.517
     11      H     2.76410816     0.64406756     1.53835367       adf.R=1.350
 
Total System Charge             0.00000
Bonding info available!
 
 *** GO1_GOStep5 ***

 SOLVATION
-------------------------------------------

  The Delley construction of COSMO surface surface is calculated

       Division Level for Surface Triangles (NDIV)                  3
       Final Division Level for Triangles (NFDIV)                   1
       Radius of the Solvent (RSOL)                           1.93000 angstr
  Dielectric Constant (EPSL)                                 78.39000

       COSMO equation is solved iteratively-               conjugate-gradient

       Maximun of Iterations for Charges (NCIX)                  1000
       Criterion for Charge convergence (CCNV)                1.0E-08

  COSMO charges included variationally in SCF

       COSMO included at every SCF cycle

  Geometry-dependent empirical factor                         0.00000

  C-Matrix calculated in cspmtx

  In cspmtx, C-Matrix calculated using fitted potential

-------------------------------------------



 -------------------------------------------
  COSMO surface
  Area             =          513.453
  Volume           =          788.634
  Number of Points =         1351
 -------------------------------------------



 ======================
 RI Hartree-Fock Scheme
 ======================
  
 Fit Set Quality     : GOOD
 Threshold Quality   : GOOD
 Integration Quality : GOOD
 Response Quality    : DEFAULT
 Is Range Separated  :  F
 
 RIHartreeFock Dependency: number of modified vectors:           5
 cosmo_calcen: 0.5 (esolb+esolc) (Hartrees) =   -0.033357

 Solvation energy (screening term,uncorrected) =    -20.932143 kcal/mol

 Solvation energy (dispersion and cavitation terms) =      0.960118 kcal/mol
 Solvation Energy Contributions (Hartrees)
          esola   esolb+esolc
     0.03335749   -0.06671498
 esol last cycle   -0.03335749
  
 Hartree-Fock exchange energy:   -509.120734084358     
 cosmo_calcen: 0.5 (esolb+esolc) (Hartrees) =   -0.033357

 Solvation energy (screening term,uncorrected) =    -20.932142 kcal/mol

 Solvation energy (dispersion and cavitation terms) =      0.960118 kcal/mol
 Solvation Energy Contributions (Hartrees)
          esola   esolb+esolc
     0.03335749   -0.06671498
 esol last cycle   -0.03335749

 Energy gradients wrt nuclear displacements
 ==========================================

     Atom      Cartesian (a.u./angstrom)
                 X         Y         Z
 ----------------------------------------
     1 Pa    0.001626  0.001907 -0.002506
     2 O     0.001841  0.004654 -0.004035
     3 H     0.000782  0.001653 -0.000735
     4 O    -0.003781  0.003670  0.000332
     5 H    -0.002429  0.000288  0.001227
     6 O     0.000197 -0.003766 -0.005267
     7 H    -0.000002 -0.000959 -0.001427
     8 O    -0.003813 -0.005605  0.007050
     9 H    -0.000412 -0.002008  0.000248
    10 O     0.004593  0.000738  0.003165
    11 H     0.001398 -0.000570  0.001949
 ----------------------------------------
 Mulliken charges used for AMS results%charges...

 dE(predicted):    -0.29264E-03, dE(actual):    -0.38373E-03, Trust radius:    0.400000, all in a.u.
 
----------------------------------------------------------------------
Geometry Convergence after Step   5       (Hartree/Angstrom,Angstrom)
----------------------------------------------------------------------
current energy                               -3.02557692 Hartree
energy change                      -0.00038373     0.00001100    F
constrained gradient max            0.00704712     0.00010000    F
constrained gradient rms            0.00289040     0.00006667    F
gradient max                        0.00704712
gradient rms                        0.00289040
cart. step max                      0.06457973     0.00100000    F
cart. step rms                      0.02427388     0.00066667    F
 
 
--------
Geometry
--------
Formula: H5O5Pa
Atoms
  Index Symbol   x (angstrom)   y (angstrom)   z (angstrom)
      1     Pa     0.32956627     0.00679891     0.03848615       adf.R=2.200
      2      O     1.09069459     1.67496957    -1.01893617       adf.R=1.517
      3      H     1.34101538     2.01122704    -1.88687754       adf.R=1.350
      4      O    -1.46683877     1.07753993     0.54136437       adf.R=1.517
      5      H    -1.80741383     1.95905399     0.35412134       adf.R=1.350
      6      O     0.40594892    -1.13591239    -1.79314537       adf.R=1.517
      7      H     0.17054124    -2.05767570    -1.95195320       adf.R=1.350
      8      O    -0.42158406    -1.68947532     1.07228762       adf.R=1.517
      9      H    -0.78828406    -2.12640909     1.84776873       adf.R=1.350
     10      O     1.97515384     0.07770332     1.43795093       adf.R=1.517
     11      H     2.73082832     0.67455953     1.48474955       adf.R=1.350
 
Total System Charge             0.00000
Bonding info available!
 
 *** GO1_GOStep6 ***

 SOLVATION
-------------------------------------------

  The Delley construction of COSMO surface surface is calculated

       Division Level for Surface Triangles (NDIV)                  3
       Final Division Level for Triangles (NFDIV)                   1
       Radius of the Solvent (RSOL)                           1.93000 angstr
  Dielectric Constant (EPSL)                                 78.39000

       COSMO equation is solved iteratively-               conjugate-gradient

       Maximun of Iterations for Charges (NCIX)                  1000
       Criterion for Charge convergence (CCNV)                1.0E-08

  COSMO charges included variationally in SCF

       COSMO included at every SCF cycle

  Geometry-dependent empirical factor                         0.00000

  C-Matrix calculated in cspmtx

  In cspmtx, C-Matrix calculated using fitted potential

-------------------------------------------



 -------------------------------------------
  COSMO surface
  Area             =          512.267
  Volume           =          792.759
  Number of Points =         1347
 -------------------------------------------



 ======================
 RI Hartree-Fock Scheme
 ======================
  
 Fit Set Quality     : GOOD
 Threshold Quality   : GOOD
 Integration Quality : GOOD
 Response Quality    : DEFAULT
 Is Range Separated  :  F
 
 RIHartreeFock Dependency: number of modified vectors:           5
 cosmo_calcen: 0.5 (esolb+esolc) (Hartrees) =   -0.035099

 Solvation energy (screening term,uncorrected) =    -22.024855 kcal/mol

 Solvation energy (dispersion and cavitation terms) =      0.957899 kcal/mol
 Solvation Energy Contributions (Hartrees)
          esola   esolb+esolc
     0.03509884   -0.07019767
 esol last cycle   -0.03509884
  
 Hartree-Fock exchange energy:   -509.120722766715     
 cosmo_calcen: 0.5 (esolb+esolc) (Hartrees) =   -0.035099

 Solvation energy (screening term,uncorrected) =    -22.024854 kcal/mol

 Solvation energy (dispersion and cavitation terms) =      0.957899 kcal/mol
 Solvation Energy Contributions (Hartrees)
          esola   esolb+esolc
     0.03509884   -0.07019767
 esol last cycle   -0.03509884

 Energy gradients wrt nuclear displacements
 ==========================================

     Atom      Cartesian (a.u./angstrom)
                 X         Y         Z
 ----------------------------------------
     1 Pa    0.002124  0.004776 -0.003391
     2 O     0.002433  0.005626 -0.005272
     3 H     0.000174  0.000613  0.000677
     4 O    -0.005565  0.004087  0.000970
     5 H    -0.001033 -0.000727  0.000890
     6 O     0.000442 -0.004766 -0.008093
     7 H    -0.000052  0.000068  0.000142
     8 O    -0.005007 -0.007884  0.009045
     9 H     0.000202 -0.001177 -0.001038
    10 O     0.006308 -0.000020  0.005390
    11 H    -0.000027 -0.000597  0.000681
 ----------------------------------------
 Mulliken charges used for AMS results%charges...

 dE(predicted):    -0.28399E-03, dE(actual):    -0.40907E-03, Trust radius:    0.400000, all in a.u.
 
----------------------------------------------------------------------
Geometry Convergence after Step   6       (Hartree/Angstrom,Angstrom)
----------------------------------------------------------------------
current energy                               -3.02598600 Hartree
energy change                      -0.00040907     0.00001100    F
constrained gradient max            0.00904097     0.00010000    F
constrained gradient rms            0.00383637     0.00006667    F
gradient max                        0.00904097
gradient rms                        0.00383637
cart. step max                      0.03449490     0.00100000    F
cart. step rms                      0.01241615     0.00066667    F
 
 
--------
Geometry
--------
Formula: H5O5Pa
Atoms
  Index Symbol   x (angstrom)   y (angstrom)   z (angstrom)
      1     Pa     0.32712468     0.00367882     0.04484791       adf.R=2.200
      2      O     1.08903041     1.67304632    -1.00110520       adf.R=1.517
      3      H     1.33246653     1.99289854    -1.87715790       adf.R=1.350
      4      O    -1.46869163     1.07247336     0.54826242       adf.R=1.517
      5      H    -1.77291894     1.96238974     0.33851648       adf.R=1.350
      6      O     0.40612932    -1.12495129    -1.79282358       adf.R=1.517
      7      H     0.16707265    -2.04919965    -1.93014238       adf.R=1.350
      8      O    -0.41798284    -1.70135973     1.05571345       adf.R=1.517
      9      H    -0.78615081    -2.12481444     1.83782335       adf.R=1.350
     10      O     1.97168661     0.07517017     1.44382863       adf.R=1.517
     11      H     2.71186184     0.69304793     1.45805321       adf.R=1.350
 
Total System Charge             0.00000
Bonding info available!
 
 *** GO1_GOStep7 ***

 SOLVATION
-------------------------------------------

  The Delley construction of COSMO surface surface is calculated

       Division Level for Surface Triangles (NDIV)                  3
       Final Division Level for Triangles (NFDIV)                   1
       Radius of the Solvent (RSOL)                           1.93000 angstr
  Dielectric Constant (EPSL)                                 78.39000

       COSMO equation is solved iteratively-               conjugate-gradient

       Maximun of Iterations for Charges (NCIX)                  1000
       Criterion for Charge convergence (CCNV)                1.0E-08

  COSMO charges included variationally in SCF

       COSMO included at every SCF cycle

  Geometry-dependent empirical factor                         0.00000

  C-Matrix calculated in cspmtx

  In cspmtx, C-Matrix calculated using fitted potential

-------------------------------------------



 -------------------------------------------
  COSMO surface
  Area             =          509.754
  Volume           =          791.375
  Number of Points =         1345
 -------------------------------------------



 ======================
 RI Hartree-Fock Scheme
 ======================
  
 Fit Set Quality     : GOOD
 Threshold Quality   : GOOD
 Integration Quality : GOOD
 Response Quality    : DEFAULT
 Is Range Separated  :  F
 
 RIHartreeFock Dependency: number of modified vectors:           5
 cosmo_calcen: 0.5 (esolb+esolc) (Hartrees) =   -0.035442

 Solvation energy (screening term,uncorrected) =    -22.240489 kcal/mol

 Solvation energy (dispersion and cavitation terms) =      0.953201 kcal/mol
 Solvation Energy Contributions (Hartrees)
          esola   esolb+esolc
     0.03544247   -0.07088494
 esol last cycle   -0.03544247
  
 Hartree-Fock exchange energy:   -509.130154956789     
 cosmo_calcen: 0.5 (esolb+esolc) (Hartrees) =   -0.035442

 Solvation energy (screening term,uncorrected) =    -22.240494 kcal/mol

 Solvation energy (dispersion and cavitation terms) =      0.953201 kcal/mol
 Solvation Energy Contributions (Hartrees)
          esola   esolb+esolc
     0.03544248   -0.07088496
 esol last cycle   -0.03544248

 Energy gradients wrt nuclear displacements
 ==========================================

     Atom      Cartesian (a.u./angstrom)
                 X         Y         Z
 ----------------------------------------
     1 Pa    0.001300  0.004621 -0.002220
     2 O     0.001273  0.002868 -0.003197
     3 H     0.000003  0.000172  0.000838
     4 O    -0.003184  0.002291  0.000411
     5 H    -0.000260 -0.000832  0.000498
     6 O     0.000349 -0.003191 -0.005919
     7 H    -0.000102  0.000503  0.000897
     8 O    -0.003446 -0.005065  0.006448
     9 H     0.000459 -0.000616 -0.001451
    10 O     0.004221 -0.000352  0.003790
    11 H    -0.000612 -0.000398 -0.000094
 ----------------------------------------
 Mulliken charges used for AMS results%charges...

 dE(predicted):    -0.17301E-03, dE(actual):    -0.19428E-03, Trust radius:    0.400000, all in a.u.
 
----------------------------------------------------------------------
Geometry Convergence after Step   7       (Hartree/Angstrom,Angstrom)
----------------------------------------------------------------------
current energy                               -3.02618028 Hartree
energy change                      -0.00019428     0.00001100    F
constrained gradient max            0.00643576     0.00010000    F
constrained gradient rms            0.00261924     0.00006667    F
gradient max                        0.00643576
gradient rms                        0.00261924
cart. step max                      0.01447641     0.00100000    F
cart. step rms                      0.00688859     0.00066667    F
 
 
--------
Geometry
--------
Formula: H5O5Pa
Atoms
  Index Symbol   x (angstrom)   y (angstrom)   z (angstrom)
      1     Pa     0.32273700    -0.00003621     0.05184961       adf.R=2.200
      2      O     1.08595256     1.66176615    -0.99438677       adf.R=1.517
      3      H     1.32934057     1.97842213    -1.87173432       adf.R=1.350
      4      O    -1.46273305     1.07724594     0.55034773       adf.R=1.517
      5      H    -1.76121510     1.96880457     0.33815303       adf.R=1.350
      6      O     0.40380428    -1.12192521    -1.78100680       adf.R=1.517
      7      H     0.16886824    -2.04552191    -1.92965200       adf.R=1.350
      8      O    -0.41603093    -1.70630408     1.04444772       adf.R=1.517
      9      H    -0.78503237    -2.12975000     1.82671457       adf.R=1.350
     10      O     1.96722087     0.08532574     1.43924360       adf.R=1.517
     11      H     2.70671576     0.70435264     1.45184002       adf.R=1.350
 
Total System Charge             0.00000
Bonding info available!
 
 *** GO1_GOStep8 ***

 SOLVATION
-------------------------------------------

  The Delley construction of COSMO surface surface is calculated

       Division Level for Surface Triangles (NDIV)                  3
       Final Division Level for Triangles (NFDIV)                   1
       Radius of the Solvent (RSOL)                           1.93000 angstr
  Dielectric Constant (EPSL)                                 78.39000

       COSMO equation is solved iteratively-               conjugate-gradient

       Maximun of Iterations for Charges (NCIX)                  1000
       Criterion for Charge convergence (CCNV)                1.0E-08

  COSMO charges included variationally in SCF

       COSMO included at every SCF cycle

  Geometry-dependent empirical factor                         0.00000

  C-Matrix calculated in cspmtx

  In cspmtx, C-Matrix calculated using fitted potential

-------------------------------------------



 -------------------------------------------
  COSMO surface
  Area             =          507.453
  Volume           =          787.483
  Number of Points =         1340
 -------------------------------------------



 ======================
 RI Hartree-Fock Scheme
 ======================
  
 Fit Set Quality     : GOOD
 Threshold Quality   : GOOD
 Integration Quality : GOOD
 Response Quality    : DEFAULT
 Is Range Separated  :  F
 
 RIHartreeFock Dependency: number of modified vectors:           5
 cosmo_calcen: 0.5 (esolb+esolc) (Hartrees) =   -0.034876

 Solvation energy (screening term,uncorrected) =    -21.885157 kcal/mol

 Solvation energy (dispersion and cavitation terms) =      0.948899 kcal/mol
 Solvation Energy Contributions (Hartrees)
          esola   esolb+esolc
     0.03487621   -0.06975243
 esol last cycle   -0.03487621
  
 Hartree-Fock exchange energy:   -509.143303984601     
 cosmo_calcen: 0.5 (esolb+esolc) (Hartrees) =   -0.034876

 Solvation energy (screening term,uncorrected) =    -21.885157 kcal/mol

 Solvation energy (dispersion and cavitation terms) =      0.948899 kcal/mol
 Solvation Energy Contributions (Hartrees)
          esola   esolb+esolc
     0.03487621   -0.06975243
 esol last cycle   -0.03487621

 Energy gradients wrt nuclear displacements
 ==========================================

     Atom      Cartesian (a.u./angstrom)
                 X         Y         Z
 ----------------------------------------
     1 Pa   -0.000328  0.001812  0.000096
     2 O    -0.000525 -0.001350 -0.000109
     3 H    -0.000016  0.000069  0.000719
     4 O     0.001237 -0.000425 -0.000730
     5 H    -0.000154 -0.000273  0.000186
     6 O     0.000182 -0.000038 -0.000949
     7 H    -0.000159  0.000188  0.000838
     8 O    -0.000282  0.000824  0.001126
     9 H     0.000292 -0.000483 -0.000938
    10 O    -0.000015 -0.000363  0.000003
    11 H    -0.000231  0.000039 -0.000243
 ----------------------------------------
 Mulliken charges used for AMS results%charges...

 dE(predicted):    -0.13128E-03, dE(actual):    -0.13374E-03, Trust radius:    0.400000, all in a.u.
 
----------------------------------------------------------------------
Geometry Convergence after Step   8       (Hartree/Angstrom,Angstrom)
----------------------------------------------------------------------
current energy                               -3.02631401 Hartree
energy change                      -0.00013374     0.00001100    F
constrained gradient max            0.00181237     0.00010000    F
constrained gradient rms            0.00064151     0.00006667    F
gradient max                        0.00181237
gradient rms                        0.00064151
cart. step max                      0.00419832     0.00100000    F
cart. step rms                      0.00144637     0.00066667    F
 
 
--------
Geometry
--------
Formula: H5O5Pa
Atoms
  Index Symbol   x (angstrom)   y (angstrom)   z (angstrom)
      1     Pa     0.32247428    -0.00143833     0.05223580       adf.R=2.200
      2      O     1.08541462     1.66166945    -0.99315906       adf.R=1.517
      3      H     1.32726720     1.97616236    -1.87204061       adf.R=1.350
      4      O    -1.46301612     1.07664283     0.55211199       adf.R=1.517
      5      H    -1.75701678     1.96931160     0.33778971       adf.R=1.350
      6      O     0.40446852    -1.12107687    -1.78190700       adf.R=1.517
      7      H     0.17042540    -2.04476766    -1.93218725       adf.R=1.350
      8      O    -0.41619512    -1.70816660     1.04358127       adf.R=1.517
      9      H    -0.78582228    -2.12711585     1.82835871       adf.R=1.350
     10      O     1.96670953     0.08522347     1.44023350       adf.R=1.517
     11      H     2.70491861     0.70593537     1.45079935       adf.R=1.350
 
Total System Charge             0.00000
Bonding info available!
 
 *** GO1_GOStep9 ***

 SOLVATION
-------------------------------------------

  The Delley construction of COSMO surface surface is calculated

       Division Level for Surface Triangles (NDIV)                  3
       Final Division Level for Triangles (NFDIV)                   1
       Radius of the Solvent (RSOL)                           1.93000 angstr
  Dielectric Constant (EPSL)                                 78.39000

       COSMO equation is solved iteratively-               conjugate-gradient

       Maximun of Iterations for Charges (NCIX)                  1000
       Criterion for Charge convergence (CCNV)                1.0E-08

  COSMO charges included variationally in SCF

       COSMO included at every SCF cycle

  Geometry-dependent empirical factor                         0.00000

  C-Matrix calculated in cspmtx

  In cspmtx, C-Matrix calculated using fitted potential

-------------------------------------------



 -------------------------------------------
  COSMO surface
  Area             =          507.610
  Volume           =          787.870
  Number of Points =         1341
 -------------------------------------------



 ======================
 RI Hartree-Fock Scheme
 ======================
  
 Fit Set Quality     : GOOD
 Threshold Quality   : GOOD
 Integration Quality : GOOD
 Response Quality    : DEFAULT
 Is Range Separated  :  F
 
 RIHartreeFock Dependency: number of modified vectors:           5
 cosmo_calcen: 0.5 (esolb+esolc) (Hartrees) =   -0.034934

 Solvation energy (screening term,uncorrected) =    -21.921294 kcal/mol

 Solvation energy (dispersion and cavitation terms) =      0.949190 kcal/mol
 Solvation Energy Contributions (Hartrees)
          esola   esolb+esolc
     0.03493380   -0.06986760
 esol last cycle   -0.03493380
  
 Hartree-Fock exchange energy:   -509.142704729672     
 cosmo_calcen: 0.5 (esolb+esolc) (Hartrees) =   -0.034934

 Solvation energy (screening term,uncorrected) =    -21.921294 kcal/mol

 Solvation energy (dispersion and cavitation terms) =      0.949190 kcal/mol
 Solvation Energy Contributions (Hartrees)
          esola   esolb+esolc
     0.03493380   -0.06986760
 esol last cycle   -0.03493380

 Energy gradients wrt nuclear displacements
 ==========================================

     Atom      Cartesian (a.u./angstrom)
                 X         Y         Z
 ----------------------------------------
     1 Pa   -0.000412  0.001316  0.000326
     2 O    -0.000564 -0.001352  0.000255
     3 H     0.000122  0.000255  0.000212
     4 O     0.001061 -0.000453 -0.000611
     5 H    -0.000154 -0.000120  0.000117
     6 O     0.000257  0.000199 -0.000983
     7 H    -0.000211 -0.000026  0.000802
     8 O    -0.000010  0.001167  0.000600
     9 H     0.000088 -0.000683 -0.000510
    10 O     0.000002 -0.000420  0.000069
    11 H    -0.000179  0.000118 -0.000277
 ----------------------------------------
 Mulliken charges used for AMS results%charges...

 dE(predicted):    -0.53762E-05, dE(actual):    -0.50361E-05, Trust radius:    0.400000, all in a.u.
 
----------------------------------------------------------------------
Geometry Convergence after Step   9       (Hartree/Angstrom,Angstrom)
----------------------------------------------------------------------
current energy                               -3.02631905 Hartree
energy change                      -0.00000504     0.00001100    T
constrained gradient max            0.00134621     0.00010000    F
constrained gradient rms            0.00056727     0.00006667    F
gradient max                        0.00134621
gradient rms                        0.00056727
cart. step max                      0.03301086     0.00100000    F
cart. step rms                      0.01207686     0.00066667    F
 
 
--------
Geometry
--------
Formula: H5O5Pa
Atoms
  Index Symbol   x (angstrom)   y (angstrom)   z (angstrom)
      1     Pa     0.32058959    -0.01359035     0.05360412       adf.R=2.200
      2      O     1.08021775     1.65965495    -0.98792683       adf.R=1.517
      3      H     1.30937470     1.95838591    -1.87699914       adf.R=1.350
      4      O    -1.46276878     1.07331265     0.56644692       adf.R=1.517
      5      H    -1.72886988     1.97295613     0.34185029       adf.R=1.350
      6      O     0.40971650    -1.11838269    -1.78726039       adf.R=1.517
      7      H     0.18684765    -2.04048365    -1.96519811       adf.R=1.350
      8      O    -0.41852496    -1.72154177     1.03917466       adf.R=1.517
      9      H    -0.79298068    -2.10034940     1.84373665       adf.R=1.350
     10      O     1.96131456     0.08765376     1.44601012       adf.R=1.517
     11      H     2.69471139     0.71476424     1.45237811       adf.R=1.350
 
Total System Charge             0.00000
Bonding info available!
 
 *** GO1_GOStep10 ***

 SOLVATION
-------------------------------------------

  The Delley construction of COSMO surface surface is calculated

       Division Level for Surface Triangles (NDIV)                  3
       Final Division Level for Triangles (NFDIV)                   1
       Radius of the Solvent (RSOL)                           1.93000 angstr
  Dielectric Constant (EPSL)                                 78.39000

       COSMO equation is solved iteratively-               conjugate-gradient

       Maximun of Iterations for Charges (NCIX)                  1000
       Criterion for Charge convergence (CCNV)                1.0E-08

  COSMO charges included variationally in SCF

       COSMO included at every SCF cycle

  Geometry-dependent empirical factor                         0.00000

  C-Matrix calculated in cspmtx

  In cspmtx, C-Matrix calculated using fitted potential

-------------------------------------------



 -------------------------------------------
  COSMO surface
  Area             =          507.148
  Volume           =          788.269
  Number of Points =         1339
 -------------------------------------------



 ======================
 RI Hartree-Fock Scheme
 ======================
  
 Fit Set Quality     : GOOD
 Threshold Quality   : GOOD
 Integration Quality : GOOD
 Response Quality    : DEFAULT
 Is Range Separated  :  F
 
 RIHartreeFock Dependency: number of modified vectors:           5
 cosmo_calcen: 0.5 (esolb+esolc) (Hartrees) =   -0.035185

 Solvation energy (screening term,uncorrected) =    -22.078797 kcal/mol

 Solvation energy (dispersion and cavitation terms) =      0.948328 kcal/mol
 Solvation Energy Contributions (Hartrees)
          esola   esolb+esolc
     0.03518480   -0.07036960
 esol last cycle   -0.03518480
  
 Hartree-Fock exchange energy:   -509.139086241671     
 cosmo_calcen: 0.5 (esolb+esolc) (Hartrees) =   -0.035185

 Solvation energy (screening term,uncorrected) =    -22.078801 kcal/mol

 Solvation energy (dispersion and cavitation terms) =      0.948328 kcal/mol
 Solvation Energy Contributions (Hartrees)
          esola   esolb+esolc
     0.03518481   -0.07036961
 esol last cycle   -0.03518481

 Energy gradients wrt nuclear displacements
 ==========================================

     Atom      Cartesian (a.u./angstrom)
                 X         Y         Z
 ----------------------------------------
     1 Pa   -0.000978 -0.003344  0.002214
     2 O    -0.000287 -0.000450  0.001008
     3 H     0.000632  0.001040 -0.001709
     4 O    -0.000602 -0.000200  0.000160
     5 H    -0.000190  0.000912 -0.000269
     6 O     0.000646  0.001470 -0.000978
     7 H    -0.000393 -0.001203  0.000275
     8 O     0.001421  0.003013 -0.002125
     9 H    -0.000783 -0.001311  0.001375
    10 O     0.000128 -0.000627  0.000353
    11 H     0.000405  0.000699 -0.000304
 ----------------------------------------
 Mulliken charges used for AMS results%charges...

 dE(predicted):    -0.46578E-04, dE(actual):    -0.50104E-04, Trust radius:    0.400000, all in a.u.
 
----------------------------------------------------------------------
Geometry Convergence after Step  10       (Hartree/Angstrom,Angstrom)
----------------------------------------------------------------------
current energy                               -3.02636915 Hartree
energy change                      -0.00005010     0.00001100    F
constrained gradient max            0.00334366     0.00010000    F
constrained gradient rms            0.00123625     0.00006667    F
gradient max                        0.00334366
gradient rms                        0.00123625
cart. step max                      0.01937610     0.00100000    F
cart. step rms                      0.00627819     0.00066667    F
 
 
--------
Geometry
--------
Formula: H5O5Pa
Atoms
  Index Symbol   x (angstrom)   y (angstrom)   z (angstrom)
      1     Pa     0.32051645    -0.01815979     0.05212005       adf.R=2.200
      2      O     1.07804246     1.65943929    -0.98820271       adf.R=1.517
      3      H     1.30066660     1.95024097    -1.88143402       adf.R=1.350
      4      O    -1.46125012     1.07122094     0.57375453       adf.R=1.517
      5      H    -1.71872428     1.97290688     0.34757794       adf.R=1.350
      6      O     0.41171715    -1.11946580    -1.78910153       adf.R=1.517
      7      H     0.19540487    -2.03931904    -1.98457421       adf.R=1.350
      8      O    -0.41937460    -1.72633195     1.03740873       adf.R=1.517
      9      H    -0.79568766    -2.08340806     1.85107988       adf.R=1.350
     10      O     1.95726432     0.08944214     1.44832687       adf.R=1.517
     11      H     2.69105264     0.71581418     1.45886087       adf.R=1.350
 
Total System Charge             0.00000
Bonding info available!
 
 *** GO1_GOStep11 ***

 SOLVATION
-------------------------------------------

  The Delley construction of COSMO surface surface is calculated

       Division Level for Surface Triangles (NDIV)                  3
       Final Division Level for Triangles (NFDIV)                   1
       Radius of the Solvent (RSOL)                           1.93000 angstr
  Dielectric Constant (EPSL)                                 78.39000

       COSMO equation is solved iteratively-               conjugate-gradient

       Maximun of Iterations for Charges (NCIX)                  1000
       Criterion for Charge convergence (CCNV)                1.0E-08

  COSMO charges included variationally in SCF

       COSMO included at every SCF cycle

  Geometry-dependent empirical factor                         0.00000

  C-Matrix calculated in cspmtx

  In cspmtx, C-Matrix calculated using fitted potential

-------------------------------------------



 -------------------------------------------
  COSMO surface
  Area             =          507.275
  Volume           =          788.783
  Number of Points =         1338
 -------------------------------------------



 ======================
 RI Hartree-Fock Scheme
 ======================
  
 Fit Set Quality     : GOOD
 Threshold Quality   : GOOD
 Integration Quality : GOOD
 Response Quality    : DEFAULT
 Is Range Separated  :  F
 
 RIHartreeFock Dependency: number of modified vectors:           5
 cosmo_calcen: 0.5 (esolb+esolc) (Hartrees) =   -0.035232

 Solvation energy (screening term,uncorrected) =    -22.108697 kcal/mol

 Solvation energy (dispersion and cavitation terms) =      0.948565 kcal/mol
 Solvation Energy Contributions (Hartrees)
          esola   esolb+esolc
     0.03523245   -0.07046490
 esol last cycle   -0.03523245
  
 Hartree-Fock exchange energy:   -509.138812194852     
 cosmo_calcen: 0.5 (esolb+esolc) (Hartrees) =   -0.035232

 Solvation energy (screening term,uncorrected) =    -22.108697 kcal/mol

 Solvation energy (dispersion and cavitation terms) =      0.948565 kcal/mol
 Solvation Energy Contributions (Hartrees)
          esola   esolb+esolc
     0.03523245   -0.07046490
 esol last cycle   -0.03523245

 Energy gradients wrt nuclear displacements
 ==========================================

     Atom      Cartesian (a.u./angstrom)
                 X         Y         Z
 ----------------------------------------
     1 Pa   -0.001048 -0.004716  0.002589
     2 O     0.000120  0.000232  0.000312
     3 H     0.000542  0.000974 -0.001417
     4 O    -0.001413  0.000422  0.000376
     5 H    -0.000037  0.000705 -0.000262
     6 O     0.000544  0.001116 -0.000889
     7 H    -0.000270 -0.000934  0.000095
     8 O     0.001545  0.003109 -0.002262
     9 H    -0.000758 -0.001102  0.001292
    10 O     0.000472 -0.000332  0.000406
    11 H     0.000301  0.000526 -0.000239
 ----------------------------------------
 Mulliken charges used for AMS results%charges...

 dE(predicted):    -0.14870E-04, dE(actual):    -0.28074E-04, Trust radius:    0.400000, all in a.u.
 
----------------------------------------------------------------------
Geometry Convergence after Step  11       (Hartree/Angstrom,Angstrom)
----------------------------------------------------------------------
current energy                               -3.02639722 Hartree
energy change                      -0.00002807     0.00001100    F
constrained gradient max            0.00471565     0.00010000    F
constrained gradient rms            0.00136148     0.00006667    F
gradient max                        0.00471565
gradient rms                        0.00136148
cart. step max                      0.03948245     0.00100000    F
cart. step rms                      0.01335645     0.00066667    F
 
 
--------
Geometry
--------
Formula: H5O5Pa
Atoms
  Index Symbol   x (angstrom)   y (angstrom)   z (angstrom)
      1     Pa     0.32196548    -0.02491146     0.04611153       adf.R=2.200
      2      O     1.07386283     1.66059282    -0.99138514       adf.R=1.517
      3      H     1.28260507     1.93385743    -1.89271469       adf.R=1.350
      4      O    -1.45580769     1.06552885     0.58867015       adf.R=1.517
      5      H    -1.70128566     1.97027769     0.36272999       adf.R=1.350
      6      O     0.41502122    -1.12393217    -1.79228773       adf.R=1.517
      7      H     0.21212517    -2.03759508    -2.02405666       adf.R=1.350
      8      O    -0.42042932    -1.73395797     1.03339600       adf.R=1.517
      9      H    -0.79924827    -2.04439926     1.86426559       adf.R=1.350
     10      O     1.94699314     0.09262986     1.45301407       adf.R=1.517
     11      H     2.68382588     0.71428906     1.47807329       adf.R=1.350
 
Total System Charge             0.00000
Bonding info available!
 
 *** GO1_GOStep12 ***

 SOLVATION
-------------------------------------------

  The Delley construction of COSMO surface surface is calculated

       Division Level for Surface Triangles (NDIV)                  3
       Final Division Level for Triangles (NFDIV)                   1
       Radius of the Solvent (RSOL)                           1.93000 angstr
  Dielectric Constant (EPSL)                                 78.39000

       COSMO equation is solved iteratively-               conjugate-gradient

       Maximun of Iterations for Charges (NCIX)                  1000
       Criterion for Charge convergence (CCNV)                1.0E-08

  COSMO charges included variationally in SCF

       COSMO included at every SCF cycle

  Geometry-dependent empirical factor                         0.00000

  C-Matrix calculated in cspmtx

  In cspmtx, C-Matrix calculated using fitted potential

-------------------------------------------



 -------------------------------------------
  COSMO surface
  Area             =          506.772
  Volume           =          788.485
  Number of Points =         1335
 -------------------------------------------



 ======================
 RI Hartree-Fock Scheme
 ======================
  
 Fit Set Quality     : GOOD
 Threshold Quality   : GOOD
 Integration Quality : GOOD
 Response Quality    : DEFAULT
 Is Range Separated  :  F
 
 RIHartreeFock Dependency: number of modified vectors:           5
 cosmo_calcen: 0.5 (esolb+esolc) (Hartrees) =   -0.035314

 Solvation energy (screening term,uncorrected) =    -22.159884 kcal/mol

 Solvation energy (dispersion and cavitation terms) =      0.947624 kcal/mol
 Solvation Energy Contributions (Hartrees)
          esola   esolb+esolc
     0.03531402   -0.07062804
 esol last cycle   -0.03531402
  
 Hartree-Fock exchange energy:   -509.139946033903     
 cosmo_calcen: 0.5 (esolb+esolc) (Hartrees) =   -0.035314

 Solvation energy (screening term,uncorrected) =    -22.159885 kcal/mol

 Solvation energy (dispersion and cavitation terms) =      0.947624 kcal/mol
 Solvation Energy Contributions (Hartrees)
          esola   esolb+esolc
     0.03531402   -0.07062804
 esol last cycle   -0.03531402

 Energy gradients wrt nuclear displacements
 ==========================================

     Atom      Cartesian (a.u./angstrom)
                 X         Y         Z
 ----------------------------------------
     1 Pa   -0.000594 -0.005534  0.002435
     2 O     0.000716  0.001282 -0.001391
     3 H     0.000133  0.000488  0.000007
     4 O    -0.002498  0.001387  0.000629
     5 H     0.000317  0.000009 -0.000173
     6 O     0.000166  0.000025 -0.000608
     7 H     0.000031 -0.000024 -0.000117
     8 O     0.001128  0.002500 -0.001174
     9 H    -0.000253 -0.000357  0.000156
    10 O     0.000932  0.000193  0.000322
    11 H    -0.000077  0.000030 -0.000086
 ----------------------------------------
 Mulliken charges used for AMS results%charges...

 dE(predicted):    -0.32300E-04, dE(actual):    -0.18273E-04, Trust radius:    0.400000, all in a.u.
 
----------------------------------------------------------------------
Geometry Convergence after Step  12       (Hartree/Angstrom,Angstrom)
----------------------------------------------------------------------
current energy                               -3.02641550 Hartree
energy change                      -0.00001827     0.00001100    F
constrained gradient max            0.00553432     0.00010000    F
constrained gradient rms            0.00135397     0.00006667    F
gradient max                        0.00553432
gradient rms                        0.00135397
cart. step max                      0.02465646     0.00100000    F
cart. step rms                      0.00845787     0.00066667    F
 
 
--------
Geometry
--------
Formula: H5O5Pa
Atoms
  Index Symbol   x (angstrom)   y (angstrom)   z (angstrom)
      1     Pa     0.32384423    -0.02618203     0.04004300       adf.R=2.200
      2      O     1.07213196     1.66210907    -0.99592916       adf.R=1.517
      3      H     1.27303970     1.92378780    -1.90205596       adf.R=1.350
      4      O    -1.45015184     1.06168525     0.59744872       adf.R=1.517
      5      H    -1.69487654     1.96745200     0.37571896       adf.R=1.350
      6      O     0.41604031    -1.12830486    -1.79329659       adf.R=1.517
      7      H     0.22090240    -2.03736193    -2.04673676       adf.R=1.350
      8      O    -0.42049804    -1.73701973     1.02989287       adf.R=1.517
      9      H    -0.79907182    -2.01974279     1.87025474       adf.R=1.350
     10      O     1.93875398     0.09510007     1.45561923       adf.R=1.517
     11      H     2.67951349     0.71085692     1.49485736       adf.R=1.350
 
Total System Charge             0.00000
Bonding info available!
 
 *** GO1_GOStep13 ***

 SOLVATION
-------------------------------------------

  The Delley construction of COSMO surface surface is calculated

       Division Level for Surface Triangles (NDIV)                  3
       Final Division Level for Triangles (NFDIV)                   1
       Radius of the Solvent (RSOL)                           1.93000 angstr
  Dielectric Constant (EPSL)                                 78.39000

       COSMO equation is solved iteratively-               conjugate-gradient

       Maximun of Iterations for Charges (NCIX)                  1000
       Criterion for Charge convergence (CCNV)                1.0E-08

  COSMO charges included variationally in SCF

       COSMO included at every SCF cycle

  Geometry-dependent empirical factor                         0.00000

  C-Matrix calculated in cspmtx

  In cspmtx, C-Matrix calculated using fitted potential

-------------------------------------------



 -------------------------------------------
  COSMO surface
  Area             =          505.637
  Volume           =          786.916
  Number of Points =         1334
 -------------------------------------------



 ======================
 RI Hartree-Fock Scheme
 ======================
  
 Fit Set Quality     : GOOD
 Threshold Quality   : GOOD
 Integration Quality : GOOD
 Response Quality    : DEFAULT
 Is Range Separated  :  F
 
 RIHartreeFock Dependency: number of modified vectors:           5
 cosmo_calcen: 0.5 (esolb+esolc) (Hartrees) =   -0.035301

 Solvation energy (screening term,uncorrected) =    -22.151463 kcal/mol

 Solvation energy (dispersion and cavitation terms) =      0.945503 kcal/mol
 Solvation Energy Contributions (Hartrees)
          esola   esolb+esolc
     0.03530060   -0.07060120
 esol last cycle   -0.03530060
  
 Hartree-Fock exchange energy:   -509.141350887453     
 cosmo_calcen: 0.5 (esolb+esolc) (Hartrees) =   -0.035301

 Solvation energy (screening term,uncorrected) =    -22.151464 kcal/mol

 Solvation energy (dispersion and cavitation terms) =      0.945503 kcal/mol
 Solvation Energy Contributions (Hartrees)
          esola   esolb+esolc
     0.03530060   -0.07060120
 esol last cycle   -0.03530060

 Energy gradients wrt nuclear displacements
 ==========================================

     Atom      Cartesian (a.u./angstrom)
                 X         Y         Z
 ----------------------------------------
     1 Pa    0.000007 -0.004045  0.001268
     2 O     0.000770  0.001215 -0.001737
     3 H    -0.000134  0.000121  0.000802
     4 O    -0.002397  0.001258  0.000682
     5 H     0.000457 -0.000270 -0.000152
     6 O    -0.000052 -0.000320 -0.000109
     7 H     0.000120  0.000261 -0.000198
     8 O     0.000614  0.001717 -0.000095
     9 H     0.000069 -0.000015 -0.000582
    10 O     0.000707  0.000254  0.000086
    11 H    -0.000162 -0.000175  0.000034
 ----------------------------------------
 Mulliken charges used for AMS results%charges...

 dE(predicted):    -0.18708E-04, dE(actual):     0.16072E-03, Trust radius:    0.020000, all in a.u.
 
----------------------------------------------------------------------
Geometry Convergence after Step  13       (Hartree/Angstrom,Angstrom)
----------------------------------------------------------------------
current energy                               -3.02625478 Hartree
energy change                       0.00016072     0.00001100    F
constrained gradient max            0.00404535     0.00010000    F
constrained gradient rms            0.00104994     0.00006667    F
gradient max                        0.00404535
gradient rms                        0.00104994
cart. step max                      0.00779445     0.00100000    F
cart. step rms                      0.00279633     0.00066667    F
 
 
--------
Geometry
--------
Formula: H5O5Pa
Atoms
  Index Symbol   x (angstrom)   y (angstrom)   z (angstrom)
      1     Pa     0.32511720    -0.02387420     0.03700617       adf.R=2.200
      2      O     1.07230338     1.66277159    -0.99921175       adf.R=1.517
      3      H     1.27218234     1.92021141    -1.90686371       adf.R=1.350
      4      O    -1.44621924     1.06109661     0.59930277       adf.R=1.517
      5      H    -1.69639501     1.96644279     0.38226075       adf.R=1.350
      6      O     0.41554143    -1.12987728    -1.79278851       adf.R=1.517
      7      H     0.22142909    -2.03784783    -2.04997195       adf.R=1.350
      8      O    -0.42015173    -1.73739765     1.02719432       adf.R=1.517
      9      H    -0.79735619    -2.01505610     1.86974952       adf.R=1.350
     10      O     1.93514445     0.09669272     1.45648699       adf.R=1.517
     11      H     2.67803211     0.70921771     1.50265181       adf.R=1.350
 
Total System Charge             0.00000
Bonding info available!
 
 *** GO1_GOStep14 ***

 SOLVATION
-------------------------------------------

  The Delley construction of COSMO surface surface is calculated

       Division Level for Surface Triangles (NDIV)                  3
       Final Division Level for Triangles (NFDIV)                   1
       Radius of the Solvent (RSOL)                           1.93000 angstr
  Dielectric Constant (EPSL)                                 78.39000

       COSMO equation is solved iteratively-               conjugate-gradient

       Maximun of Iterations for Charges (NCIX)                  1000
       Criterion for Charge convergence (CCNV)                1.0E-08

  COSMO charges included variationally in SCF

       COSMO included at every SCF cycle

  Geometry-dependent empirical factor                         0.00000

  C-Matrix calculated in cspmtx

  In cspmtx, C-Matrix calculated using fitted potential

-------------------------------------------



 -------------------------------------------
  COSMO surface
  Area             =          505.861
  Volume           =          787.274
  Number of Points =         1335
 -------------------------------------------



 ======================
 RI Hartree-Fock Scheme
 ======================
  
 Fit Set Quality     : GOOD
 Threshold Quality   : GOOD
 Integration Quality : GOOD
 Response Quality    : DEFAULT
 Is Range Separated  :  F
 
 RIHartreeFock Dependency: number of modified vectors:           4
 cosmo_calcen: 0.5 (esolb+esolc) (Hartrees) =   -0.035256

 Solvation energy (screening term,uncorrected) =    -22.123513 kcal/mol

 Solvation energy (dispersion and cavitation terms) =      0.945922 kcal/mol
 Solvation Energy Contributions (Hartrees)
          esola   esolb+esolc
     0.03525606   -0.07051212
 esol last cycle   -0.03525606
  
 Hartree-Fock exchange energy:   -509.143080013309     
 cosmo_calcen: 0.5 (esolb+esolc) (Hartrees) =   -0.035256

 Solvation energy (screening term,uncorrected) =    -22.123514 kcal/mol

 Solvation energy (dispersion and cavitation terms) =      0.945922 kcal/mol
 Solvation Energy Contributions (Hartrees)
          esola   esolb+esolc
     0.03525606   -0.07051212
 esol last cycle   -0.03525606

 Energy gradients wrt nuclear displacements
 ==========================================

     Atom      Cartesian (a.u./angstrom)
                 X         Y         Z
 ----------------------------------------
     1 Pa    0.000456 -0.001677  0.000109
     2 O     0.000342  0.000328 -0.001038
     3 H    -0.000172  0.000019  0.000764
     4 O    -0.001529  0.000873  0.000369
     5 H     0.000519 -0.000583 -0.000069
     6 O    -0.000365 -0.001086  0.000415
     7 H     0.000328  0.001140 -0.000064
     8 O     0.000218  0.001105  0.000627
     9 H     0.000186 -0.000030 -0.000902
    10 O     0.000493  0.000404 -0.000281
    11 H    -0.000476 -0.000491  0.000070
 ----------------------------------------
 Mulliken charges used for AMS results%charges...

 dE(predicted):    -0.12243E-04, dE(actual):    -0.24495E-03, Trust radius:    0.040000, all in a.u.
 
----------------------------------------------------------------------
Geometry Convergence after Step  14       (Hartree/Angstrom,Angstrom)
----------------------------------------------------------------------
current energy                               -3.02649973 Hartree
energy change                      -0.00024495     0.00001100    F
constrained gradient max            0.00167656     0.00010000    F
constrained gradient rms            0.00067781     0.00006667    F
gradient max                        0.00167656
gradient rms                        0.00067781
cart. step max                      0.00732623     0.00100000    F
cart. step rms                      0.00336495     0.00066667    F
 
 
--------
Geometry
--------
Formula: H5O5Pa
Atoms
  Index Symbol   x (angstrom)   y (angstrom)   z (angstrom)
      1     Pa     0.32640917    -0.02201215     0.03392048       adf.R=2.200
      2      O     1.07264951     1.66424146    -1.00039609       adf.R=1.517
      3      H     1.27023230     1.91288518    -1.91126320       adf.R=1.350
      4      O    -1.44221416     1.05953447     0.60304701       adf.R=1.517
      5      H    -1.69258470     1.96573626     0.38824348       adf.R=1.350
      6      O     0.41550446    -1.12947591    -1.79472159       adf.R=1.517
      7      H     0.22096509    -2.03826368    -2.05080873       adf.R=1.350
      8      O    -0.41986120    -1.74097161     1.02151297       adf.R=1.517
      9      H    -0.79478878    -2.00820329     1.86871167       adf.R=1.350
     10      O     1.93044876     0.09767101     1.45995768       adf.R=1.517
     11      H     2.67286738     0.71123805     1.50761272       adf.R=1.350
 
Total System Charge             0.00000
Bonding info available!
 
 *** GO1_GOStep15 ***

 SOLVATION
-------------------------------------------

  The Delley construction of COSMO surface surface is calculated

       Division Level for Surface Triangles (NDIV)                  3
       Final Division Level for Triangles (NFDIV)                   1
       Radius of the Solvent (RSOL)                           1.93000 angstr
  Dielectric Constant (EPSL)                                 78.39000

       COSMO equation is solved iteratively-               conjugate-gradient

       Maximun of Iterations for Charges (NCIX)                  1000
       Criterion for Charge convergence (CCNV)                1.0E-08

  COSMO charges included variationally in SCF

       COSMO included at every SCF cycle

  Geometry-dependent empirical factor                         0.00000

  C-Matrix calculated in cspmtx

  In cspmtx, C-Matrix calculated using fitted potential

-------------------------------------------



 -------------------------------------------
  COSMO surface
  Area             =          505.881
  Volume           =          787.672
  Number of Points =         1330
 -------------------------------------------



 ======================
 RI Hartree-Fock Scheme
 ======================
  
 Fit Set Quality     : GOOD
 Threshold Quality   : GOOD
 Integration Quality : GOOD
 Response Quality    : DEFAULT
 Is Range Separated  :  F
 
 RIHartreeFock Dependency: number of modified vectors:           5
 cosmo_calcen: 0.5 (esolb+esolc) (Hartrees) =   -0.035377

 Solvation energy (screening term,uncorrected) =    -22.199098 kcal/mol

 Solvation energy (dispersion and cavitation terms) =      0.945958 kcal/mol
 Solvation Energy Contributions (Hartrees)
          esola   esolb+esolc
     0.03537651   -0.07075302
 esol last cycle   -0.03537651
  
 Hartree-Fock exchange energy:   -509.142751767116     
 cosmo_calcen: 0.5 (esolb+esolc) (Hartrees) =   -0.035377

 Solvation energy (screening term,uncorrected) =    -22.199098 kcal/mol

 Solvation energy (dispersion and cavitation terms) =      0.945958 kcal/mol
 Solvation Energy Contributions (Hartrees)
          esola   esolb+esolc
     0.03537651   -0.07075302
 esol last cycle   -0.03537651

 Energy gradients wrt nuclear displacements
 ==========================================

     Atom      Cartesian (a.u./angstrom)
                 X         Y         Z
 ----------------------------------------
     1 Pa    0.000813  0.001218 -0.001112
     2 O    -0.000093 -0.000491 -0.000056
     3 H    -0.000191 -0.000069  0.000474
     4 O    -0.000613 -0.000568  0.000428
     5 H     0.000442  0.000150 -0.000320
     6 O    -0.000094  0.000282  0.000906
     7 H    -0.000005 -0.000293 -0.000359
     8 O     0.000014  0.000241  0.000661
     9 H    -0.000050 -0.000199 -0.000380
    10 O    -0.000386 -0.000379 -0.000262
    11 H     0.000165  0.000109  0.000020
 ----------------------------------------
 Mulliken charges used for AMS results%charges...

 dE(predicted):    -0.87723E-05, dE(actual):     0.20071E-03, Trust radius:    0.020000, all in a.u.
 
----------------------------------------------------------------------
Geometry Convergence after Step  15       (Hartree/Angstrom,Angstrom)
----------------------------------------------------------------------
current energy                               -3.02629902 Hartree
energy change                       0.00020071     0.00001100    F
constrained gradient max            0.00121788     0.00010000    F
constrained gradient rms            0.00047064     0.00006667    F
gradient max                        0.00121788
gradient rms                        0.00047064
cart. step max                      0.00532465     0.00100000    F
cart. step rms                      0.00209907     0.00066667    F
 
 
--------
Geometry
--------
Formula: H5O5Pa
Atoms
  Index Symbol   x (angstrom)   y (angstrom)   z (angstrom)
[...]
     6     O       0.045355   0.064155  -0.060365
     7     H       0.025550   0.145399  -0.230587
     8     O       0.020152   0.025960   0.094827
     9     H      -0.058828   0.074723   0.106919
    10     O       0.004357   0.165843  -0.075280
    11     H      -0.059360   0.258669  -0.228514
 
 Mode:    12      Frequency (cm-1):      146.3970     Intensity (km/mol):       28.8986
 Index  Atom      ---- Displacements (x/y/z) ----
     1    Pa       0.011324   0.020211  -0.034089
     2     O       0.056051   0.004190   0.002611
     3     H       0.416878  -0.094191  -0.050026
     4     O      -0.000779  -0.140968   0.284385
     5     H      -0.182289  -0.163812   0.429236
     6     O       0.020596  -0.176631   0.047340
     7     H      -0.030412  -0.164430   0.126031
     8     O      -0.092127   0.094829   0.028593
     9     H      -0.448491   0.331457   0.087030
    10     O      -0.123383  -0.064848   0.088855
    11     H      -0.135411  -0.044040   0.052250
 
 Mode:    13      Frequency (cm-1):      171.2330     Intensity (km/mol):       18.6263
 Index  Atom      ---- Displacements (x/y/z) ----
     1    Pa       0.004853   0.005727   0.004153
     2     O       0.051127   0.020423   0.095190
     3     H       0.010555   0.364190   0.214302
     4     O      -0.020203  -0.022529  -0.075810
     5     H      -0.014254   0.039082   0.166614
     6     O      -0.106261  -0.112512   0.080363
     7     H      -0.061419  -0.251747   0.349933
     8     O      -0.026662  -0.054654  -0.146532
     9     H      -0.468129  -0.113143  -0.176158
    10     O       0.048361   0.078202  -0.021926
    11     H       0.271975   0.094009  -0.416063
 
 Mode:    14      Frequency (cm-1):      185.3836     Intensity (km/mol):       74.3029
 Index  Atom      ---- Displacements (x/y/z) ----
     1    Pa       0.004632   0.008678   0.005639
     2     O       0.015140   0.010473  -0.007202
     3     H       0.109022  -0.173980  -0.074903
     4     O      -0.069973  -0.074109  -0.045774
     5     H       0.131691   0.086717   0.333138
     6     O       0.021827  -0.063405   0.050498
     7     H      -0.416283   0.338970  -0.058032
     8     O      -0.112000   0.000407  -0.050538
     9     H       0.563668  -0.157182  -0.076985
    10     O       0.070676  -0.009988  -0.050766
    11     H      -0.270361   0.084405   0.231169
 
 Mode:    15      Frequency (cm-1):      212.0615     Intensity (km/mol):      787.4523
 Index  Atom      ---- Displacements (x/y/z) ----
     1    Pa       0.009499  -0.004355  -0.001531
     2     O      -0.002480  -0.005186   0.015320
     3     H       0.198039  -0.027017  -0.002711
     4     O      -0.041130  -0.034432   0.030013
     5     H       0.092798  -0.022477  -0.101055
     6     O      -0.067371   0.057915  -0.017022
     7     H       0.493818  -0.472130   0.160552
     8     O      -0.090301   0.049869   0.000154
     9     H       0.565388  -0.238613  -0.065488
    10     O      -0.032110   0.045321  -0.000065
    11     H       0.176470  -0.042457  -0.090967
 
 Mode:    16      Frequency (cm-1):      219.4902     Intensity (km/mol):      313.6954
 Index  Atom      ---- Displacements (x/y/z) ----
     1    Pa       0.000093   0.006531   0.002452
     2     O       0.096420  -0.071272  -0.054927
     3     H      -0.629545   0.409862   0.146435
     4     O      -0.045818  -0.086219  -0.043375
     5     H      -0.161364  -0.012263   0.408830
     6     O      -0.020049   0.053015  -0.026523
     7     H       0.214277  -0.178159   0.073768
     8     O      -0.003464   0.032988   0.042548
     9     H      -0.070231   0.086729   0.055927
    10     O       0.023131  -0.040982  -0.011010
    11     H      -0.171370  -0.018321   0.233476
 
 Mode:    17      Frequency (cm-1):      234.4443     Intensity (km/mol):      115.0135
 Index  Atom      ---- Displacements (x/y/z) ----
     1    Pa       0.004550   0.001418   0.000505
     2     O      -0.028985  -0.053229  -0.067436
     3     H      -0.198323   0.212195   0.032522
     4     O      -0.008618  -0.005699   0.002092
     5     H       0.101073   0.095165   0.264740
     6     O       0.037864   0.007081  -0.006154
     7     H      -0.258214   0.280669  -0.083709
     8     O      -0.012694   0.003797  -0.005272
     9     H       0.237481  -0.055659  -0.015051
    10     O      -0.080735   0.003008   0.089206
    11     H       0.553562  -0.142510  -0.511606
 
 Mode:    18      Frequency (cm-1):      243.9230     Intensity (km/mol):       81.9173
 Index  Atom      ---- Displacements (x/y/z) ----
     1    Pa      -0.007884  -0.003498  -0.005047
     2     O       0.088384  -0.012198   0.038184
     3     H      -0.451689   0.409496   0.209236
     4     O       0.062664   0.049320   0.123468
     5     H      -0.175290  -0.181122  -0.493545
     6     O       0.050576  -0.063239   0.009569
     7     H      -0.137438   0.123278  -0.074927
     8     O      -0.035109  -0.028013  -0.030123
     9     H       0.392761  -0.101913  -0.039024
    10     O      -0.025933   0.086733  -0.051101
    11     H      -0.052206   0.034791   0.126819
 
 Mode:    19      Frequency (cm-1):      302.0282     Intensity (km/mol):      133.1835
 Index  Atom      ---- Displacements (x/y/z) ----
     1    Pa      -0.003034   0.000177   0.002236
     2     O      -0.045420  -0.059797   0.002861
     3     H       0.267529   0.336129   0.122660
     4     O       0.008620   0.009984   0.013829
     5     H       0.078587   0.018368  -0.047573
     6     O       0.038903  -0.007102  -0.127579
     7     H      -0.321226  -0.013709   0.652366
     8     O       0.029591   0.060747   0.020452
     9     H      -0.000581  -0.329318  -0.096223
    10     O       0.028050  -0.018874   0.021763
    11     H      -0.277006   0.186685  -0.053923
 
 Mode:    20      Frequency (cm-1):      338.4526     Intensity (km/mol):      408.2628
 Index  Atom      ---- Displacements (x/y/z) ----
     1    Pa      -0.000336   0.005157   0.000215
     2     O      -0.075856  -0.073127  -0.013406
     3     H       0.521927   0.504468   0.155402
     4     O       0.071450  -0.004019  -0.026512
     5     H      -0.313874  -0.090276   0.141005
     6     O       0.000863   0.018555   0.013227
     7     H       0.146188   0.000816  -0.248714
     8     O      -0.048209  -0.087847   0.004489
     9     H       0.164672   0.374181   0.147397
    10     O       0.030858   0.016252   0.005897
    11     H      -0.110363   0.094693   0.014464
 
 Mode:    21      Frequency (cm-1):      342.6826     Intensity (km/mol):      287.4789
 Index  Atom      ---- Displacements (x/y/z) ----
     1    Pa       0.002764   0.001244  -0.003649
     2     O      -0.006094  -0.071991  -0.017502
     3     H       0.095147   0.324238   0.112865
     4     O      -0.125174  -0.002661   0.050266
     5     H       0.658936   0.159779  -0.347672
     6     O      -0.001334   0.006119   0.059846
     7     H       0.136383   0.063650  -0.379877
     8     O       0.026724   0.019512  -0.019709
     9     H      -0.167458   0.021266  -0.024309
    10     O       0.032976  -0.014305   0.023591
    11     H      -0.199591   0.150913  -0.055850
 
 Mode:    22      Frequency (cm-1):      355.0662     Intensity (km/mol):      521.1891
 Index  Atom      ---- Displacements (x/y/z) ----
     1    Pa       0.006838   0.002555   0.004406
     2     O      -0.005887  -0.021190   0.013297
     3     H       0.077299   0.040205   0.029707
     4     O      -0.076229   0.000219   0.014699
     5     H       0.282999   0.093785  -0.086718
     6     O       0.007271   0.010205  -0.050554
     7     H      -0.185452  -0.002798   0.390774
     8     O      -0.006978  -0.069047  -0.001580
     9     H      -0.007121   0.538280   0.178352
    10     O      -0.047877   0.023427  -0.094158
    11     H       0.323148  -0.360256   0.355253
 
 Mode:    23      Frequency (cm-1):      374.4910     Intensity (km/mol):      124.5322
 Index  Atom      ---- Displacements (x/y/z) ----
     1    Pa      -0.002010   0.001880  -0.002467
     2     O       0.019770   0.009780   0.014394
     3     H      -0.256634  -0.238277  -0.057443
     4     O      -0.002890   0.002255   0.010218
     5     H       0.102282   0.009044  -0.105844
     6     O       0.013698   0.015436  -0.012482
     7     H       0.013463  -0.098870   0.280738
     8     O      -0.023592  -0.058188  -0.019313
     9     H       0.222222   0.514078   0.157944
    10     O       0.034203  -0.029930   0.054991
    11     H      -0.274277   0.345483  -0.468554
 
 Mode:    24      Frequency (cm-1):      463.4794     Intensity (km/mol):        2.6505
 Index  Atom      ---- Displacements (x/y/z) ----
     1    Pa      -0.000755   0.001506   0.001753
     2     O      -0.069443  -0.142796   0.129605
     3     H      -0.244063  -0.356472   0.062161
     4     O       0.008192  -0.003896  -0.007929
     5     H      -0.080887  -0.023832   0.031527
     6     O      -0.089795  -0.103573  -0.169619
     7     H      -0.046304  -0.033195  -0.433625
     8     O       0.056432   0.146695  -0.125487
     9     H       0.178428   0.441494  -0.031810
    10     O       0.104393   0.084847   0.146127
    11     H       0.210705  -0.076214   0.403140
 
 Mode:    25      Frequency (cm-1):      496.8740     Intensity (km/mol):      262.6942
 Index  Atom      ---- Displacements (x/y/z) ----
     1    Pa       0.013339  -0.008310  -0.034274
     2     O      -0.085809  -0.144082   0.122927
     3     H      -0.167750  -0.246433   0.090251
     4     O      -0.176546   0.163751   0.035353
     5     H      -0.655764   0.049450   0.222566
     6     O       0.085343   0.097911   0.190725
     7     H      -0.007909   0.082085   0.422878
     8     O      -0.006245  -0.016314   0.027502
     9     H      -0.043095  -0.164903  -0.018057
    10     O       0.044304   0.036598   0.060689
    11     H       0.021993  -0.003195   0.200749
 
 Mode:    26      Frequency (cm-1):      501.2656     Intensity (km/mol):      327.4647
 Index  Atom      ---- Displacements (x/y/z) ----
     1    Pa       0.029800   0.025458   0.013215
     2     O      -0.070711  -0.129179   0.101152
     3     H      -0.230499  -0.270323   0.059724
     4     O      -0.069606   0.062959   0.016400
     5     H      -0.224707   0.020882   0.055465
     6     O      -0.074602  -0.086609  -0.137379
     7     H       0.023614  -0.041094  -0.459172
     8     O      -0.036682  -0.088818   0.066686
     9     H      -0.106804  -0.308429  -0.000911
    10     O      -0.126293  -0.095985  -0.184696
    11     H      -0.295469   0.121306  -0.496971
 
 Mode:    27      Frequency (cm-1):      506.8921     Intensity (km/mol):      301.0109
 Index  Atom      ---- Displacements (x/y/z) ----
     1    Pa       0.007126  -0.029242   0.022470
     2     O       0.032840   0.089155  -0.077446
     3     H       0.241804   0.271000  -0.024318
     4     O      -0.125801   0.129663   0.023020
     5     H      -0.542818   0.027630   0.175267
     6     O      -0.001444  -0.001794  -0.003629
     7     H      -0.004044   0.032261  -0.087109
     8     O       0.074604   0.190514  -0.144038
     9     H       0.191536   0.495043  -0.048438
    10     O      -0.064190  -0.043030  -0.106107
    11     H      -0.186956   0.092542  -0.275032
 
 Mode:    28      Frequency (cm-1):      615.7077     Intensity (km/mol):       12.9520
 Index  Atom      ---- Displacements (x/y/z) ----
     1    Pa      -0.013651   0.009903   0.002697
     2     O      -0.116767  -0.209611   0.143088
     3     H      -0.174135  -0.249627   0.136478
     4     O       0.255433  -0.178038  -0.060173
     5     H       0.398769  -0.143783  -0.089451
     6     O       0.091598   0.108381   0.236790
     7     H       0.085745   0.090594   0.308839
     8     O       0.088984   0.221273  -0.132162
     9     H       0.113782   0.272312  -0.120217
    10     O      -0.140852  -0.077791  -0.226040
    11     H      -0.126154  -0.084636  -0.242971
 
 Mode:    29      Frequency (cm-1):     3798.4845     Intensity (km/mol):      207.5223
 Index  Atom      ---- Displacements (x/y/z) ----
     1    Pa       0.000011   0.000014  -0.000034
     2     O      -0.002809   0.019135  -0.055833
     3     H       0.044245  -0.306240   0.892833
     4     O       0.000446  -0.001702   0.000519
     5     H      -0.009188   0.028365  -0.007170
     6     O       0.008802   0.010671   0.004026
     7     H      -0.142253  -0.173687  -0.067118
     8     O      -0.000049  -0.000323   0.001108
     9     H       0.000527   0.005667  -0.018574
    10     O      -0.006393  -0.011103  -0.003947
    11     H       0.104106   0.178045   0.066793
 
 Mode:    30      Frequency (cm-1):     3803.8449     Intensity (km/mol):      261.6725
 Index  Atom      ---- Displacements (x/y/z) ----
     1    Pa       0.000012   0.000024  -0.000029
     2     O      -0.000481   0.003715  -0.010673
     3     H       0.008407  -0.057896   0.168466
     4     O       0.000171  -0.000576   0.000139
     5     H      -0.003109   0.008871  -0.002079
     6     O      -0.008691  -0.010584  -0.004002
     7     H       0.139115   0.169320   0.066225
     8     O       0.001442   0.014801  -0.050203
     9     H      -0.023971  -0.238300   0.803091
    10     O       0.013650   0.023442   0.008722
    11     H      -0.219776  -0.376247  -0.140111
 
 Mode:    31      Frequency (cm-1):     3806.3586     Intensity (km/mol):      492.1581
 Index  Atom      ---- Displacements (x/y/z) ----
     1    Pa      -0.000028  -0.000033  -0.000035
     2     O      -0.000057   0.000639  -0.001765
     3     H       0.001688  -0.010042   0.029713
     4     O       0.000368  -0.000881   0.000322
     5     H      -0.005136   0.014541  -0.003929
     6     O      -0.027726  -0.033770  -0.013107
     7     H       0.443159   0.539521   0.209558
     8     O       0.000313   0.002775  -0.009263
     9     H      -0.004299  -0.044150   0.149559
    10     O      -0.019932  -0.034112  -0.012748
    11     H       0.317557   0.544926   0.203343
 
 Mode:    32      Frequency (cm-1):     3822.8744     Intensity (km/mol):      149.9543
 Index  Atom      ---- Displacements (x/y/z) ----
     1    Pa      -0.000024   0.000033  -0.000010
     2     O       0.000535  -0.003752   0.010566
     3     H      -0.008310   0.057845  -0.167536
     4     O      -0.012425   0.037888  -0.009373
     5     H       0.201397  -0.606899   0.149836
     6     O       0.017030   0.020638   0.008063
     7     H      -0.270940  -0.329828  -0.128019
     8     O       0.000768   0.007137  -0.023913
     9     H      -0.011556  -0.112786   0.380318
    10     O      -0.012626  -0.021715  -0.008127
    11     H       0.201515   0.346255   0.129199
 
 Mode:    33      Frequency (cm-1):     3827.7449     Intensity (km/mol):       99.9616
 Index  Atom      ---- Displacements (x/y/z) ----
     1    Pa      -0.000009   0.000002   0.000010
     2     O       0.000300  -0.004318   0.011891
     3     H      -0.009265   0.063481  -0.185770
     4     O       0.014919  -0.043830   0.010532
     5     H      -0.229956   0.694003  -0.171123
     6     O       0.015305   0.018653   0.007541
     7     H      -0.242443  -0.295119  -0.114044
     8     O       0.000727   0.006337  -0.020292
     9     H      -0.009727  -0.094564   0.319964
    10     O      -0.010796  -0.018218  -0.007092
    11     H       0.168900   0.288364   0.107666

PES point character: Geometry corresponds to a local minimum on the PES.




 ============================
 Statistical Thermal Analysis  ***  ideal gas assumed  ***
 ============================
  
 Pressure:                  1.000000 atm.
 Temperature:             298.150000 K



 Moments of Inertia [amu*bohr^2] and principal axis
 ==================================================

         866.2785        869.3801       1152.3727
 ------------------------------------------------
           0.3603         -0.4221         -0.8319
           0.7839         -0.3464          0.5153
          -0.5057         -0.8377          0.2061


 The rotational contribution to the molecular entropy includes
 a term, dependent on the symmetry number sigma. The results 
 reported below were computed using sigma = 1, determined from
 the point group symmetry of the input geometry (NOSYM). 
 If this is not the correct symmetry, try symmetrizing the molecule before
 running the calculation (note: linear molecules should be aligned along one
 of the Cartesian axes).
 Contributions from frequencies below 20 1/cm are not included in vibrational sums.
 Their contributions, if any, are reported separately.


     Temp                                                        Transl      Rotat     Vibrat     Total
     ----                                                        ------      -----     ------     -----

     298.15   Entropy (cal/mol-K):                               43.148     28.253     42.694    114.095
              Nuclear Internal Energy (kcal/mol):                 0.889      0.889     42.723     44.500
              Constant Volume Heat Capacity (cal/mol-K):          2.981      2.981     36.601     42.563
          (c) Constant Volume Heat Capacity (cal/mol-K):          2.981      2.981     33.478     39.440

       Summary of energy terms
                                                   hartree              eV         kcal/mol           kJ/mol
                                      --------------------     -----------       ----------      -----------
      Energy from Engine:               -3.026785304093603        -82.3630         -1899.34         -7946.82
      Nuclear Internal Energy:           0.070915648277915          1.9297            44.50           186.19
  (c) Nuclear Internal Energy:           0.069277044124591          1.8851            43.47           181.89
      Internal Energy U:                -2.955869655815687        -80.4333         -1854.84         -7760.63
      pV/n = RT:                         0.000944186013486          0.0257             0.59             2.48
      Enthalpy H:                       -2.954925469802201        -80.4076         -1854.24         -7758.16
      -T*S:                             -0.054210332658328         -1.4751           -34.02          -142.33
  (c) -T*S:                             -0.053017352405224         -1.4427           -33.27          -139.20
      Gibbs free energy:                -3.009135802460529        -81.8828         -1888.26         -7900.48
 
 
 
  (c) The properties marked with this symbol have been corrected using 'low vibrational frequency free rotor
      interpolation corrections'. For those terms all positive frequencies are used (also ones below 20 1/cm),
      but the contribution to the partition function of small vibrational frequencies is modified as described
      in the following paper:
      S. Grimme, 'Supramolecular Binding Thermodynamics by Dispersion-Corrected Density Functional Theory'
      (Chem. Eur. J. 2012, 18, 9955-9964)
      Configuration: Dampener Frequency          :   100.000 1/cm
                     Dampener Alpha              :     4.000
                     Averaging Moment of Inertia : 1.000E-44 kg m2

--------------
Atomic charges
--------------
  Index   Atom    Charge
      1     Pa    2.8712
      2      O   -0.7006
      3      H    0.1358
      4      O   -0.7418
      5      H    0.1431
      6      O   -0.7034
      7      H    0.1326
      8      O   -0.7015
      9      H    0.1355
     10      O   -0.7049
     11      H    0.1340


Dipole moment vector    (Debye):     2.11504165    0.14742412   -1.12398843
              magnitude (Debye):     2.39968436


Final PES point is a local minimum. Geometry optimization successful!


AMS application finished. Exiting.
NORMAL TERMINATION
     Total cpu time:   50255.68
  Total system time:    1040.52
 Total elapsed time:   51354.95
