 Entering Gaussian System, Link 0=/home/pcmt/gaussian/g16.C.01/g16/g16
 AtFile(1): /home/shaaban/basis.gaussian/Pa-def-TZVP
 AtFile(1): /home/shaaban/basis.gaussian/Pa-ECP60MWB
 Initial command:
 /home/pcmt/gaussian/g16.C.01/g16/l1.exe "/state/partition2/shaaban/972892.phlam-s-sakura/Gau-151362.inp" -scrdir="/state/partition2/shaaban/972892.phlam-s-sakura/"
 Entering Link 1 = /home/pcmt/gaussian/g16.C.01/g16/l1.exe PID=    151364.
  
 Copyright (c) 1988-2019, Gaussian, Inc.  All Rights Reserved.
  
 This is part of the Gaussian(R) 16 program.  It is based on
 the Gaussian(R) 09 system (copyright 2009, Gaussian, Inc.),
 the Gaussian(R) 03 system (copyright 2003, Gaussian, Inc.),
 the Gaussian(R) 98 system (copyright 1998, Gaussian, Inc.),
 the Gaussian(R) 94 system (copyright 1995, Gaussian, Inc.),
 the Gaussian 92(TM) system (copyright 1992, Gaussian, Inc.),
 the Gaussian 90(TM) system (copyright 1990, Gaussian, Inc.),
 the Gaussian 88(TM) system (copyright 1988, Gaussian, Inc.),
 the Gaussian 86(TM) system (copyright 1986, Carnegie Mellon
 University), and the Gaussian 82(TM) system (copyright 1983,
 Carnegie Mellon University). Gaussian is a federally registered
 trademark of Gaussian, Inc.
  
 This software contains proprietary and confidential information,
 including trade secrets, belonging to Gaussian, Inc.
  
 This software is provided under written license and may be
 used, copied, transmitted, or stored only in accord with that
 written license.
  
 The following legend is applicable only to US Government
 contracts under FAR:
  
                    RESTRICTED RIGHTS LEGEND
  
 Use, reproduction and disclosure by the US Government is
 subject to restrictions as set forth in subparagraphs (a)
 and (c) of the Commercial Computer Software - Restricted
 Rights clause in FAR 52.227-19.
  
 Gaussian, Inc.
 340 Quinnipiac St., Bldg. 40, Wallingford CT 06492
  
  
 ---------------------------------------------------------------
 Warning -- This program may not be used in any manner that
 competes with the business of Gaussian, Inc. or will provide
 assistance to any competitor of Gaussian, Inc.  The licensee
 of this program is prohibited from giving any competitor of
 Gaussian, Inc. access to this program.  By using this program,
 the user acknowledges that Gaussian, Inc. is engaged in the
 business of creating and licensing software in the field of
 computational chemistry and represents and warrants to the
 licensee that it is not a competitor of Gaussian, Inc. and that
 it will not use this program in any manner prohibited above.
 ---------------------------------------------------------------
  

 Cite this work as:
 Gaussian 16, Revision C.01,
 M. J. Frisch, G. W. Trucks, H. B. Schlegel, G. E. Scuseria, 
 M. A. Robb, J. R. Cheeseman, G. Scalmani, V. Barone, 
 G. A. Petersson, H. Nakatsuji, X. Li, M. Caricato, A. V. Marenich, 
 J. Bloino, B. G. Janesko, R. Gomperts, B. Mennucci, H. P. Hratchian, 
 J. V. Ortiz, A. F. Izmaylov, J. L. Sonnenberg, D. Williams-Young, 
 F. Ding, F. Lipparini, F. Egidi, J. Goings, B. Peng, A. Petrone, 
 T. Henderson, D. Ranasinghe, V. G. Zakrzewski, J. Gao, N. Rega, 
 G. Zheng, W. Liang, M. Hada, M. Ehara, K. Toyota, R. Fukuda, 
 J. Hasegawa, M. Ishida, T. Nakajima, Y. Honda, O. Kitao, H. Nakai, 
 T. Vreven, K. Throssell, J. A. Montgomery, Jr., J. E. Peralta, 
 F. Ogliaro, M. J. Bearpark, J. J. Heyd, E. N. Brothers, K. N. Kudin, 
 V. N. Staroverov, T. A. Keith, R. Kobayashi, J. Normand, 
 K. Raghavachari, A. P. Rendell, J. C. Burant, S. S. Iyengar, 
 J. Tomasi, M. Cossi, J. M. Millam, M. Klene, C. Adamo, R. Cammi, 
 J. W. Ochterski, R. L. Martin, K. Morokuma, O. Farkas, 
 J. B. Foresman, and D. J. Fox, Gaussian, Inc., Wallingford CT, 2019.
 
 ******************************************
 Gaussian 16:  ES64L-G16RevC.01  3-Jul-2019
                 4-Jul-2023 
 ******************************************
 %mem=16Gb
 %NProc=8
 Will use up to    8 processors via shared memory.
 %chk=pa_oh4_no3-bp86-cosmors-deftzvp-klamt.chk
 ----------------------------------------------------------------------
 #p BP86/GEN Pseudo=Read GFInput GFPrint IOP(6/7=3) Symm=(Loose) Int=(U
 ltraFine) Guess=(Harris) SCRF=(COSMORS) Scf=(NoVarAcc,MaxCycle=100,con
 ver=8)
 ----------------------------------------------------------------------
 1/38=1,172=1/1;
 2/12=2,17=4,18=3,40=1/2;
 3/5=7,11=2,16=1,17=8,24=110,25=1,30=1,70=12101,74=404,75=-5/1,2,3;
 4/11=8/1;
 5/5=2,6=8,7=100,38=1/2;
 6/7=3,8=2,9=2,10=2,28=1/1;
 99/5=1,9=1/99;
 Leave Link    1 at Tue Jul  4 11:34:04 2023, MaxMem=  2147483648 cpu:               0.6 elap:               0.1
 (Enter /home/pcmt/gaussian/g16.C.01/g16/l101.exe)
 ----------------------------------------------------------------
 pa_oh4_no3-bp86-cosmors-deftzvp-klamt.com SGP in PCM calculation
 ----------------------------------------------------------------
 Symbolic Z-matrix:
 Charge =  0 Multiplicity = 1
 Pa                    0.41671  -0.06905   0.07735 
 O                     1.23497   1.54895  -0.96557 
 H                     1.34687   1.90379  -1.85675 
 O                    -1.40444   0.94126   0.41342 
 H                    -1.82265   1.76946   0.15025 
 O                     0.001    -1.09254  -1.69082 
 H                    -0.24907  -1.90044  -2.15126 
 O                    -0.14292  -1.66844   1.29716 
 H                    -0.88791  -2.16568   1.65719 
 O                     2.48142   0.09938   1.51693 
 O                     2.66344  -1.20611  -0.19368 
 N                     3.22125  -0.69334   0.83643 
 O                     4.3635   -0.93795   1.14523 
 
 ITRead=  0  0  0  0  0  0  0  0  0  0  0  0  0
 MicOpt= -1 -1 -1 -1 -1 -1 -1 -1 -1 -1 -1 -1 -1
 NAtoms=     13 NQM=       13 NQMF=       0 NMMI=      0 NMMIF=      0
                NMic=       0 NMicF=      0.
                    Isotopes and Nuclear Properties:
 (Nuclear quadrupole moments (NQMom) in fm**2, nuclear magnetic moments (NMagM)
  in nuclear magnetons)

  Atom         1           2           3           4           5           6           7           8           9          10
 IAtWgt=         231          16           1          16           1          16           1          16           1          16
 AtmWgt= 231.0359000  15.9949146   1.0078250  15.9949146   1.0078250  15.9949146   1.0078250  15.9949146   1.0078250  15.9949146
 NucSpn=           3           0           1           0           1           0           1           0           1           0
 AtZEff=  -0.0000000  -0.0000000  -0.0000000  -0.0000000  -0.0000000  -0.0000000  -0.0000000  -0.0000000  -0.0000000  -0.0000000
 NQMom= -172.0000000   0.0000000   0.0000000   0.0000000   0.0000000   0.0000000   0.0000000   0.0000000   0.0000000   0.0000000
 NMagM=    2.0100000   0.0000000   2.7928460   0.0000000   2.7928460   0.0000000   2.7928460   0.0000000   2.7928460   0.0000000
 AtZNuc=  91.0000000   8.0000000   1.0000000   8.0000000   1.0000000   8.0000000   1.0000000   8.0000000   1.0000000   8.0000000

  Atom        11          12          13
 IAtWgt=          16          14          16
 AtmWgt=  15.9949146  14.0030740  15.9949146
 NucSpn=           0           2           0
 AtZEff=  -0.0000000  -0.0000000  -0.0000000
 NQMom=    0.0000000   2.0440000   0.0000000
 NMagM=    0.0000000   0.4037610   0.0000000
 AtZNuc=   8.0000000   7.0000000   8.0000000
 Leave Link  101 at Tue Jul  4 11:34:04 2023, MaxMem=  2147483648 cpu:               0.7 elap:               0.1
 (Enter /home/pcmt/gaussian/g16.C.01/g16/l202.exe)
                          Input orientation:                          
 ---------------------------------------------------------------------
 Center     Atomic      Atomic             Coordinates (Angstroms)
 Number     Number       Type             X           Y           Z
 ---------------------------------------------------------------------
      1         91           0        0.416712   -0.069050    0.077346
      2          8           0        1.234966    1.548946   -0.965572
      3          1           0        1.346869    1.903791   -1.856753
      4          8           0       -1.404444    0.941257    0.413418
      5          1           0       -1.822650    1.769462    0.150252
      6          8           0        0.001000   -1.092544   -1.690815
      7          1           0       -0.249065   -1.900438   -2.151261
      8          8           0       -0.142917   -1.668436    1.297157
      9          1           0       -0.887914   -2.165681    1.657194
     10          8           0        2.481421    0.099376    1.516925
     11          8           0        2.663440   -1.206111   -0.193681
     12          7           0        3.221252   -0.693343    0.836435
     13          8           0        4.363503   -0.937953    1.145228
 ---------------------------------------------------------------------
                    Distance matrix (angstroms):
                    1          2          3          4          5
     1  Pa   0.000000
     2  O    2.091681   0.000000
     3  H    2.915139   0.965733   0.000000
     4  O    2.109567   3.039306   3.694573   0.000000
     5  H    2.898308   3.262316   3.753927   0.964405   0.000000
     6  O    2.084886   3.004350   3.288909   3.246447   3.860869
     7  H    2.960394   3.937824   4.135928   3.998464   4.608829
     8  O    2.087860   4.167740   4.992737   3.030337   3.994501
     9  H    2.931524   5.018364   5.822601   3.386273   4.316243
    10  O    2.522653   3.133321   3.990592   4.126310   4.814770
    11  O    2.532617   3.197920   3.764394   4.639767   5.394194
    12  N    2.971767   3.495772   4.184695   4.924218   5.654839
    13  O    4.180015   4.519723   5.117370   6.110334   6.825582
                    6          7          8          9         10
     6  O    0.000000
     7  H    0.962931   0.000000
     8  O    3.046366   3.457843   0.000000
     9  H    3.626425   3.870764   0.965349   0.000000
    10  O    4.226436   4.991032   3.171846   4.062336   0.000000
    11  O    3.056615   3.577274   3.211227   4.118085   2.159537
    12  N    4.112953   4.735663   3.532804   4.441472   1.280164
    13  O    5.205620   5.750566   4.567769   5.417269   2.180927
                   11         12         13
    11  O    0.000000
    12  N    1.278759   0.000000
    13  O    2.180551   1.208274   0.000000
 Stoichiometry    H4NO7Pa
 Framework group  C1[X(H4NO7Pa)]
 Deg. of freedom    33
 Full point group                 C1      NOp   1
 Largest Abelian subgroup         C1      NOp   1
 Largest concise Abelian subgroup C1      NOp   1
                         Standard orientation:                         
 ---------------------------------------------------------------------
 Center     Atomic      Atomic             Coordinates (Angstroms)
 Number     Number       Type             X           Y           Z
 ---------------------------------------------------------------------
      1         91           0       -0.440943    0.004170   -0.049136
      2          8           0       -0.276977   -2.080461   -0.099716
      3          1           0       -0.468899   -2.873287    0.417230
      4          8           0       -2.296245   -0.018590   -1.052935
      5          1           0       -2.935710   -0.671747   -1.360420
      6          8           0       -1.049846   -0.019129    1.944715
      7          1           0       -1.225086    0.441870    2.771762
      8          8           0       -0.320898    2.086920   -0.132189
      9          1           0       -0.827549    2.906862   -0.186039
     10          8           0        1.828925   -0.011543   -1.149696
     11          8           0        1.859797    0.024517    1.009320
     12          7           0        2.530672    0.002110   -0.079096
     13          8           0        3.738788   -0.006451   -0.096681
 ---------------------------------------------------------------------
 Rotational constants (GHZ):           1.7853184           0.7129089           0.6841946
 Leave Link  202 at Tue Jul  4 11:34:04 2023, MaxMem=  2147483648 cpu:               0.1 elap:               0.0
 (Enter /home/pcmt/gaussian/g16.C.01/g16/l301.exe)
 General basis read from cards:  (5D, 7F)
 Centers:       1
 S 3 1.00
     Exponent=  1.2047376000D+04 Coefficients=  3.4500000000D-04
     Exponent=  1.8116841000D+03 Coefficients=  2.7420000000D-03
     Exponent=  3.4770104000D+02 Coefficients=  1.0053000000D-02
 S 1 1.00
     Exponent=  9.8678010000D+01 Coefficients=  1.0000000000D+00
 S 3 1.00
     Exponent=  5.7507376000D+01 Coefficients=  5.1528000000D-02
     Exponent=  3.3502601000D+01 Coefficients= -2.3692400000D-01
     Exponent=  1.9554451000D+01 Coefficients=  7.1904800000D-01
 S 1 1.00
     Exponent=  9.7164210000D+00 Coefficients=  1.0000000000D+00
 S 1 1.00
     Exponent=  2.6920960000D+00 Coefficients=  1.0000000000D+00
 S 1 1.00
     Exponent=  1.4538470000D+00 Coefficients=  1.0000000000D+00
 S 1 1.00
     Exponent=  5.7435200000D-01 Coefficients=  1.0000000000D+00
 S 1 1.00
     Exponent=  2.6346800000D-01 Coefficients=  1.0000000000D+00
 S 1 1.00
     Exponent=  5.6557000000D-02 Coefficients=  1.0000000000D+00
 S 1 1.00
     Exponent=  2.3169000000D-02 Coefficients=  1.0000000000D+00
 P 5 1.00
     Exponent=  2.9033676000D+03 Coefficients=  3.5000000000D-05
     Exponent=  6.4486356000D+02 Coefficients=  2.0500000000D-04
     Exponent=  2.2025896000D+02 Coefficients=  1.2510000000D-03
     Exponent=  8.0276401000D+01 Coefficients=  2.4570000000D-03
     Exponent=  2.4080211000D+01 Coefficients=  1.1190000000D-02
 P 1 1.00
     Exponent=  1.4077580000D+01 Coefficients=  1.0000000000D+00
 P 1 1.00
     Exponent=  8.2658460000D+00 Coefficients=  1.0000000000D+00
 P 1 1.00
     Exponent=  3.5948000000D+00 Coefficients=  1.0000000000D+00
 P 1 1.00
     Exponent=  1.7531110000D+00 Coefficients=  1.0000000000D+00
 P 1 1.00
     Exponent=  6.5776700000D-01 Coefficients=  1.0000000000D+00
 P 1 1.00
     Exponent=  2.8463900000D-01 Coefficients=  1.0000000000D+00
 P 1 1.00
     Exponent=  1.0054300000D-01 Coefficients=  1.0000000000D+00
 P 1 1.00
     Exponent=  3.0190000000D-02 Coefficients=  1.0000000000D+00
 D 6 1.00
     Exponent=  4.4814991000D+02 Coefficients=  2.6000000000D-05
     Exponent=  1.5446145000D+02 Coefficients=  2.2800000000D-04
     Exponent=  6.0925377000D+01 Coefficients=  9.0400000000D-04
     Exponent=  1.7032091000D+01 Coefficients=  2.5647000000D-02
     Exponent=  1.0018877000D+01 Coefficients= -1.0575100000D-01
     Exponent=  3.4091930000D+00 Coefficients=  4.4743200000D-01
 D 1 1.00
     Exponent=  1.6702130000D+00 Coefficients=  1.0000000000D+00
 D 1 1.00
     Exponent=  7.4109500000D-01 Coefficients=  1.0000000000D+00
 D 1 1.00
     Exponent=  2.6139300000D-01 Coefficients=  1.0000000000D+00
 D 1 1.00
     Exponent=  8.2811000000D-02 Coefficients=  1.0000000000D+00
 F 5 1.00
     Exponent=  8.7991327000D+01 Coefficients=  2.2600000000D-04
     Exponent=  2.8340195000D+01 Coefficients=  2.3230000000D-03
     Exponent=  1.2440994000D+01 Coefficients=  4.5850000000D-03
     Exponent=  3.9572960000D+00 Coefficients=  1.5696100000D-01
     Exponent=  1.8759440000D+00 Coefficients=  3.4497700000D-01
 F 1 1.00
     Exponent=  8.2758900000D-01 Coefficients=  1.0000000000D+00
 F 1 1.00
     Exponent=  3.3274800000D-01 Coefficients=  1.0000000000D+00
 F 1 1.00
     Exponent=  1.1468500000D-01 Coefficients=  1.0000000000D+00
 G 1 1.00
     Exponent=  3.5000000000D-01 Coefficients=  1.0000000000D+00
 ****
 Centers:       2      4      6      8     10     11     13
 Def2TZVP
 ****
 Centers:       3      5      7      9
 Def2TZVP
 ****
 Centers:      12
 Def2TZVP
 ****
 ======================================================================================================
                                       Pseudopotential Parameters
 ======================================================================================================
  Center     Atomic      Valence      Angular      Power
  Number     Number     Electrons     Momentum     of R      Exponent        Coefficient   SO-Coeffient
 ======================================================================================================
    1         91           31
                                      H and up 
                                                     2        1.0000000        0.00000000    0.00000000
                                      S - H
                                                     2       15.2691737      475.47573283    0.00000000
                                      P - H
                                                     2        9.9577370      207.66485962    0.00000000
                                      D - H
                                                     2        8.9431413      156.67411988    0.00000000
                                      F - H
                                                     2        7.0104666       67.98223685    0.00000000
                                      G - H
                                                     2       12.2010560      -57.63059989    0.00000000
    2          8
                                   No pseudopotential on this center.
    3          1
                                   No pseudopotential on this center.
    4          8
                                   No pseudopotential on this center.
    5          1
                                   No pseudopotential on this center.
    6          8
                                   No pseudopotential on this center.
    7          1
                                   No pseudopotential on this center.
    8          8
                                   No pseudopotential on this center.
    9          1
                                   No pseudopotential on this center.
   10          8
                                   No pseudopotential on this center.
   11          8
                                   No pseudopotential on this center.
   12          7
                                   No pseudopotential on this center.
   13          8
                                   No pseudopotential on this center.
 ======================================================================================================
 Ernie: Thresh=  0.10000D-02 Tol=  0.10000D-05 Strict=F.
 AO basis set in the form of general basis input (Overlap normalization):
      1 0
 S   3 1.00       0.000000000000
      0.1204737600D+05  0.2857094961D-01
      0.1811684100D+04  0.2270769386D+00
      0.3477010400D+03  0.8325326273D+00
 S   3 1.00       0.000000000000
      0.5750737600D+02  0.9569327984D-01
      0.3350260100D+02 -0.4399944619D+00
      0.1955445100D+02  0.1335352847D+01
 S   1 1.00       0.000000000000
      0.9867801000D+02  0.1000000000D+01
 S   1 1.00       0.000000000000
      0.9716421000D+01  0.1000000000D+01
 S   1 1.00       0.000000000000
      0.2692096000D+01  0.1000000000D+01
 S   1 1.00       0.000000000000
      0.1453847000D+01  0.1000000000D+01
 S   1 1.00       0.000000000000
      0.5743520000D+00  0.1000000000D+01
 S   1 1.00       0.000000000000
      0.2634680000D+00  0.1000000000D+01
 S   1 1.00       0.000000000000
      0.5655700000D-01  0.1000000000D+01
 S   1 1.00       0.000000000000
      0.2316900000D-01  0.1000000000D+01
 P   5 1.00       0.000000000000
      0.2903367600D+04  0.2594222647D-02
      0.6448635600D+03  0.1519473264D-01
      0.2202589600D+03  0.9272492945D-01
      0.8027640100D+02  0.1821144298D+00
      0.2408021100D+02  0.8294100404D+00
 P   1 1.00       0.000000000000
      0.1407758000D+02  0.1000000000D+01
 P   1 1.00       0.000000000000
      0.8265846000D+01  0.1000000000D+01
 P   1 1.00       0.000000000000
      0.3594800000D+01  0.1000000000D+01
 P   1 1.00       0.000000000000
      0.1753111000D+01  0.1000000000D+01
 P   1 1.00       0.000000000000
      0.6577670000D+00  0.1000000000D+01
 P   1 1.00       0.000000000000
      0.2846390000D+00  0.1000000000D+01
 P   1 1.00       0.000000000000
      0.1005430000D+00  0.1000000000D+01
 P   1 1.00       0.000000000000
      0.3019000000D-01  0.1000000000D+01
 D   6 1.00       0.000000000000
      0.4481499100D+03  0.6556927566D-04
      0.1544614500D+03  0.5749921096D-03
      0.6092537700D+02  0.2279793277D-02
      0.1703209100D+02  0.6467904664D-01
      0.1001887700D+02 -0.2666929411D+00
      0.3409193000D+01  0.1128376621D+01
 D   1 1.00       0.000000000000
      0.1670213000D+01  0.1000000000D+01
 D   1 1.00       0.000000000000
      0.7410950000D+00  0.1000000000D+01
 D   1 1.00       0.000000000000
      0.2613930000D+00  0.1000000000D+01
 D   1 1.00       0.000000000000
      0.8281100000D-01  0.1000000000D+01
 F   5 1.00       0.000000000000
      0.8799132700D+02  0.4766318191D-03
      0.2834019500D+02  0.4899184583D-02
      0.1244099400D+02  0.9669720755D-02
      0.3957296000D+01  0.3310292343D+00
      0.1875944000D+01  0.7275531640D+00
 F   1 1.00       0.000000000000
      0.8275890000D+00  0.1000000000D+01
 F   1 1.00       0.000000000000
      0.3327480000D+00  0.1000000000D+01
 F   1 1.00       0.000000000000
      0.1146850000D+00  0.1000000000D+01
 G   1 1.00       0.000000000000
      0.3500000000D+00  0.1000000000D+01
 ****
      2 0
 S   6 1.00       0.000000000000
      0.2703238263D+05  0.5722733521D-03
      0.4052387139D+04  0.4435323349D-02
      0.9223272271D+03  0.2302010771D-01
      0.2612407099D+03  0.9282249067D-01
      0.8535464135D+02  0.2937850001D+00
      0.3103503524D+02  0.6740160450D+00
 S   2 1.00       0.000000000000
      0.1226086073D+02  0.6383993703D+00
      0.4998707601D+01  0.3953458713D+00
 S   1 1.00       0.000000000000
      0.1170310816D+01  0.1000000000D+01
 S   1 1.00       0.000000000000
      0.4647474099D+00  0.1000000000D+01
 S   1 1.00       0.000000000000
      0.1850453636D+00  0.1000000000D+01
 P   4 1.00       0.000000000000
      0.6327495480D+02  0.1201833222D-01
      0.1462704938D+02  0.8300542179D-01
      0.4450122346D+01  0.3199174393D+00
      0.1527579965D+01  0.7071554292D+00
 P   1 1.00       0.000000000000
      0.5293511794D+00  0.1000000000D+01
 P   1 1.00       0.000000000000
      0.1747842127D+00  0.1000000000D+01
 D   1 1.00       0.000000000000
      0.2314000000D+01  0.1000000000D+01
 D   1 1.00       0.000000000000
      0.6450000000D+00  0.1000000000D+01
 F   1 1.00       0.000000000000
      0.1428000000D+01  0.1000000000D+01
 ****
      3 0
 S   3 1.00       0.000000000000
      0.3406134100D+02  0.2543930721D-01
      0.5123574600D+01  0.1900859489D+00
      0.1164662600D+01  0.8524411301D+00
 S   1 1.00       0.000000000000
      0.3272304100D+00  0.1000000000D+01
 S   1 1.00       0.000000000000
      0.1030724100D+00  0.1000000000D+01
 P   1 1.00       0.000000000000
      0.8000000000D+00  0.1000000000D+01
 ****
      4 0
 S   6 1.00       0.000000000000
      0.2703238263D+05  0.5722733521D-03
      0.4052387139D+04  0.4435323349D-02
      0.9223272271D+03  0.2302010771D-01
      0.2612407099D+03  0.9282249067D-01
      0.8535464135D+02  0.2937850001D+00
      0.3103503524D+02  0.6740160450D+00
 S   2 1.00       0.000000000000
      0.1226086073D+02  0.6383993703D+00
      0.4998707601D+01  0.3953458713D+00
 S   1 1.00       0.000000000000
      0.1170310816D+01  0.1000000000D+01
 S   1 1.00       0.000000000000
      0.4647474099D+00  0.1000000000D+01
 S   1 1.00       0.000000000000
      0.1850453636D+00  0.1000000000D+01
 P   4 1.00       0.000000000000
      0.6327495480D+02  0.1201833222D-01
      0.1462704938D+02  0.8300542179D-01
      0.4450122346D+01  0.3199174393D+00
      0.1527579965D+01  0.7071554292D+00
 P   1 1.00       0.000000000000
      0.5293511794D+00  0.1000000000D+01
 P   1 1.00       0.000000000000
      0.1747842127D+00  0.1000000000D+01
 D   1 1.00       0.000000000000
      0.2314000000D+01  0.1000000000D+01
 D   1 1.00       0.000000000000
      0.6450000000D+00  0.1000000000D+01
 F   1 1.00       0.000000000000
      0.1428000000D+01  0.1000000000D+01
 ****
      5 0
 S   3 1.00       0.000000000000
      0.3406134100D+02  0.2543930721D-01
      0.5123574600D+01  0.1900859489D+00
      0.1164662600D+01  0.8524411301D+00
 S   1 1.00       0.000000000000
      0.3272304100D+00  0.1000000000D+01
 S   1 1.00       0.000000000000
      0.1030724100D+00  0.1000000000D+01
 P   1 1.00       0.000000000000
      0.8000000000D+00  0.1000000000D+01
 ****
      6 0
 S   6 1.00       0.000000000000
      0.2703238263D+05  0.5722733521D-03
      0.4052387139D+04  0.4435323349D-02
      0.9223272271D+03  0.2302010771D-01
      0.2612407099D+03  0.9282249067D-01
      0.8535464135D+02  0.2937850001D+00
      0.3103503524D+02  0.6740160450D+00
 S   2 1.00       0.000000000000
      0.1226086073D+02  0.6383993703D+00
      0.4998707601D+01  0.3953458713D+00
 S   1 1.00       0.000000000000
      0.1170310816D+01  0.1000000000D+01
 S   1 1.00       0.000000000000
      0.4647474099D+00  0.1000000000D+01
 S   1 1.00       0.000000000000
      0.1850453636D+00  0.1000000000D+01
 P   4 1.00       0.000000000000
      0.6327495480D+02  0.1201833222D-01
      0.1462704938D+02  0.8300542179D-01
      0.4450122346D+01  0.3199174393D+00
      0.1527579965D+01  0.7071554292D+00
 P   1 1.00       0.000000000000
      0.5293511794D+00  0.1000000000D+01
 P   1 1.00       0.000000000000
      0.1747842127D+00  0.1000000000D+01
 D   1 1.00       0.000000000000
      0.2314000000D+01  0.1000000000D+01
 D   1 1.00       0.000000000000
      0.6450000000D+00  0.1000000000D+01
 F   1 1.00       0.000000000000
      0.1428000000D+01  0.1000000000D+01
 ****
      7 0
 S   3 1.00       0.000000000000
      0.3406134100D+02  0.2543930721D-01
      0.5123574600D+01  0.1900859489D+00
      0.1164662600D+01  0.8524411301D+00
 S   1 1.00       0.000000000000
      0.3272304100D+00  0.1000000000D+01
 S   1 1.00       0.000000000000
      0.1030724100D+00  0.1000000000D+01
 P   1 1.00       0.000000000000
      0.8000000000D+00  0.1000000000D+01
 ****
      8 0
 S   6 1.00       0.000000000000
      0.2703238263D+05  0.5722733521D-03
      0.4052387139D+04  0.4435323349D-02
      0.9223272271D+03  0.2302010771D-01
      0.2612407099D+03  0.9282249067D-01
      0.8535464135D+02  0.2937850001D+00
      0.3103503524D+02  0.6740160450D+00
 S   2 1.00       0.000000000000
      0.1226086073D+02  0.6383993703D+00
      0.4998707601D+01  0.3953458713D+00
 S   1 1.00       0.000000000000
      0.1170310816D+01  0.1000000000D+01
 S   1 1.00       0.000000000000
      0.4647474099D+00  0.1000000000D+01
 S   1 1.00       0.000000000000
      0.1850453636D+00  0.1000000000D+01
 P   4 1.00       0.000000000000
      0.6327495480D+02  0.1201833222D-01
      0.1462704938D+02  0.8300542179D-01
      0.4450122346D+01  0.3199174393D+00
      0.1527579965D+01  0.7071554292D+00
 P   1 1.00       0.000000000000
      0.5293511794D+00  0.1000000000D+01
 P   1 1.00       0.000000000000
      0.1747842127D+00  0.1000000000D+01
 D   1 1.00       0.000000000000
      0.2314000000D+01  0.1000000000D+01
 D   1 1.00       0.000000000000
      0.6450000000D+00  0.1000000000D+01
 F   1 1.00       0.000000000000
      0.1428000000D+01  0.1000000000D+01
 ****
      9 0
 S   3 1.00       0.000000000000
      0.3406134100D+02  0.2543930721D-01
      0.5123574600D+01  0.1900859489D+00
      0.1164662600D+01  0.8524411301D+00
 S   1 1.00       0.000000000000
      0.3272304100D+00  0.1000000000D+01
 S   1 1.00       0.000000000000
      0.1030724100D+00  0.1000000000D+01
 P   1 1.00       0.000000000000
      0.8000000000D+00  0.1000000000D+01
 ****
     10 0
 S   6 1.00       0.000000000000
      0.2703238263D+05  0.5722733521D-03
      0.4052387139D+04  0.4435323349D-02
      0.9223272271D+03  0.2302010771D-01
      0.2612407099D+03  0.9282249067D-01
      0.8535464135D+02  0.2937850001D+00
      0.3103503524D+02  0.6740160450D+00
 S   2 1.00       0.000000000000
      0.1226086073D+02  0.6383993703D+00
      0.4998707601D+01  0.3953458713D+00
 S   1 1.00       0.000000000000
      0.1170310816D+01  0.1000000000D+01
 S   1 1.00       0.000000000000
      0.4647474099D+00  0.1000000000D+01
 S   1 1.00       0.000000000000
      0.1850453636D+00  0.1000000000D+01
 P   4 1.00       0.000000000000
      0.6327495480D+02  0.1201833222D-01
      0.1462704938D+02  0.8300542179D-01
      0.4450122346D+01  0.3199174393D+00
      0.1527579965D+01  0.7071554292D+00
 P   1 1.00       0.000000000000
      0.5293511794D+00  0.1000000000D+01
 P   1 1.00       0.000000000000
      0.1747842127D+00  0.1000000000D+01
 D   1 1.00       0.000000000000
      0.2314000000D+01  0.1000000000D+01
 D   1 1.00       0.000000000000
      0.6450000000D+00  0.1000000000D+01
 F   1 1.00       0.000000000000
      0.1428000000D+01  0.1000000000D+01
 ****
     11 0
 S   6 1.00       0.000000000000
      0.2703238263D+05  0.5722733521D-03
      0.4052387139D+04  0.4435323349D-02
      0.9223272271D+03  0.2302010771D-01
      0.2612407099D+03  0.9282249067D-01
      0.8535464135D+02  0.2937850001D+00
      0.3103503524D+02  0.6740160450D+00
 S   2 1.00       0.000000000000
      0.1226086073D+02  0.6383993703D+00
      0.4998707601D+01  0.3953458713D+00
 S   1 1.00       0.000000000000
      0.1170310816D+01  0.1000000000D+01
 S   1 1.00       0.000000000000
      0.4647474099D+00  0.1000000000D+01
 S   1 1.00       0.000000000000
      0.1850453636D+00  0.1000000000D+01
 P   4 1.00       0.000000000000
      0.6327495480D+02  0.1201833222D-01
      0.1462704938D+02  0.8300542179D-01
      0.4450122346D+01  0.3199174393D+00
      0.1527579965D+01  0.7071554292D+00
 P   1 1.00       0.000000000000
      0.5293511794D+00  0.1000000000D+01
 P   1 1.00       0.000000000000
      0.1747842127D+00  0.1000000000D+01
 D   1 1.00       0.000000000000
      0.2314000000D+01  0.1000000000D+01
 D   1 1.00       0.000000000000
      0.6450000000D+00  0.1000000000D+01
 F   1 1.00       0.000000000000
      0.1428000000D+01  0.1000000000D+01
 ****
     12 0
 S   6 1.00       0.000000000000
      0.1973080065D+05  0.5862640263D-03
      0.2957895874D+04  0.4542882059D-02
      0.6732213360D+03  0.2355841345D-01
      0.1906824949D+03  0.9470919329D-01
      0.6229544190D+02  0.2971978491D+00
      0.2265416118D+02  0.6691624690D+00
 S   2 1.00       0.000000000000
      0.8979147743D+01  0.6459668363D+00
      0.3686300237D+01  0.3870057439D+00
 S   1 1.00       0.000000000000
      0.8466007680D+00  0.1000000000D+01
 S   1 1.00       0.000000000000
      0.3364713377D+00  0.1000000000D+01
 S   1 1.00       0.000000000000
      0.1364765367D+00  0.1000000000D+01
 P   4 1.00       0.000000000000
      0.4920038051D+02  0.1144882510D-01
      0.1134679054D+02  0.7842233797D-01
      0.3427397241D+01  0.3081809474D+00
      0.1178552513D+01  0.7202719637D+00
 P   1 1.00       0.000000000000
      0.4164220497D+00  0.1000000000D+01
 P   1 1.00       0.000000000000
      0.1426082601D+00  0.1000000000D+01
 D   1 1.00       0.000000000000
      0.1654000000D+01  0.1000000000D+01
 D   1 1.00       0.000000000000
      0.4690000000D+00  0.1000000000D+01
 F   1 1.00       0.000000000000
      0.1093000000D+01  0.1000000000D+01
 ****
     13 0
 S   6 1.00       0.000000000000
      0.2703238263D+05  0.5722733521D-03
      0.4052387139D+04  0.4435323349D-02
      0.9223272271D+03  0.2302010771D-01
      0.2612407099D+03  0.9282249067D-01
      0.8535464135D+02  0.2937850001D+00
      0.3103503524D+02  0.6740160450D+00
 S   2 1.00       0.000000000000
      0.1226086073D+02  0.6383993703D+00
      0.4998707601D+01  0.3953458713D+00
 S   1 1.00       0.000000000000
      0.1170310816D+01  0.1000000000D+01
 S   1 1.00       0.000000000000
      0.4647474099D+00  0.1000000000D+01
 S   1 1.00       0.000000000000
      0.1850453636D+00  0.1000000000D+01
 P   4 1.00       0.000000000000
      0.6327495480D+02  0.1201833222D-01
      0.1462704938D+02  0.8300542179D-01
      0.4450122346D+01  0.3199174393D+00
      0.1527579965D+01  0.7071554292D+00
 P   1 1.00       0.000000000000
      0.5293511794D+00  0.1000000000D+01
 P   1 1.00       0.000000000000
      0.1747842127D+00  0.1000000000D+01
 D   1 1.00       0.000000000000
      0.2314000000D+01  0.1000000000D+01
 D   1 1.00       0.000000000000
      0.6450000000D+00  0.1000000000D+01
 F   1 1.00       0.000000000000
      0.1428000000D+01  0.1000000000D+01
 ****

 AO basis set (Overlap normalization):
 Atom Pa1      Shell     1 S   3     bf    1 -     1         -0.833261412880          0.007879311513         -0.092854139107
      0.1204737600D+05  0.2857094961D-01
      0.1811684100D+04  0.2270769386D+00
      0.3477010400D+03  0.8325326273D+00
 Atom Pa1      Shell     2 S   3     bf    2 -     2         -0.833261412880          0.007879311513         -0.092854139107
      0.5750737600D+02  0.9569327984D-01
      0.3350260100D+02 -0.4399944619D+00
      0.1955445100D+02  0.1335352847D+01
 Atom Pa1      Shell     3 S   1     bf    3 -     3         -0.833261412880          0.007879311513         -0.092854139107
      0.9867801000D+02  0.1000000000D+01
 Atom Pa1      Shell     4 S   1     bf    4 -     4         -0.833261412880          0.007879311513         -0.092854139107
      0.9716421000D+01  0.1000000000D+01
 Atom Pa1      Shell     5 S   1     bf    5 -     5         -0.833261412880          0.007879311513         -0.092854139107
      0.2692096000D+01  0.1000000000D+01
 Atom Pa1      Shell     6 S   1     bf    6 -     6         -0.833261412880          0.007879311513         -0.092854139107
      0.1453847000D+01  0.1000000000D+01
 Atom Pa1      Shell     7 S   1     bf    7 -     7         -0.833261412880          0.007879311513         -0.092854139107
      0.5743520000D+00  0.1000000000D+01
 Atom Pa1      Shell     8 S   1     bf    8 -     8         -0.833261412880          0.007879311513         -0.092854139107
      0.2634680000D+00  0.1000000000D+01
 Atom Pa1      Shell     9 S   1     bf    9 -     9         -0.833261412880          0.007879311513         -0.092854139107
      0.5655700000D-01  0.1000000000D+01
 Atom Pa1      Shell    10 S   1     bf   10 -    10         -0.833261412880          0.007879311513         -0.092854139107
      0.2316900000D-01  0.1000000000D+01
 Atom Pa1      Shell    11 P   5     bf   11 -    13         -0.833261412880          0.007879311513         -0.092854139107
      0.2903367600D+04  0.2594222647D-02
      0.6448635600D+03  0.1519473264D-01
      0.2202589600D+03  0.9272492945D-01
      0.8027640100D+02  0.1821144298D+00
      0.2408021100D+02  0.8294100404D+00
 Atom Pa1      Shell    12 P   1     bf   14 -    16         -0.833261412880          0.007879311513         -0.092854139107
      0.1407758000D+02  0.1000000000D+01
 Atom Pa1      Shell    13 P   1     bf   17 -    19         -0.833261412880          0.007879311513         -0.092854139107
      0.8265846000D+01  0.1000000000D+01
 Atom Pa1      Shell    14 P   1     bf   20 -    22         -0.833261412880          0.007879311513         -0.092854139107
      0.3594800000D+01  0.1000000000D+01
 Atom Pa1      Shell    15 P   1     bf   23 -    25         -0.833261412880          0.007879311513         -0.092854139107
      0.1753111000D+01  0.1000000000D+01
 Atom Pa1      Shell    16 P   1     bf   26 -    28         -0.833261412880          0.007879311513         -0.092854139107
      0.6577670000D+00  0.1000000000D+01
 Atom Pa1      Shell    17 P   1     bf   29 -    31         -0.833261412880          0.007879311513         -0.092854139107
      0.2846390000D+00  0.1000000000D+01
 Atom Pa1      Shell    18 P   1     bf   32 -    34         -0.833261412880          0.007879311513         -0.092854139107
      0.1005430000D+00  0.1000000000D+01
 Atom Pa1      Shell    19 P   1     bf   35 -    37         -0.833261412880          0.007879311513         -0.092854139107
      0.3019000000D-01  0.1000000000D+01
 Atom Pa1      Shell    20 D   6     bf   38 -    42         -0.833261412880          0.007879311513         -0.092854139107
      0.4481499100D+03  0.6556927566D-04
      0.1544614500D+03  0.5749921096D-03
      0.6092537700D+02  0.2279793277D-02
      0.1703209100D+02  0.6467904664D-01
      0.1001887700D+02 -0.2666929411D+00
      0.3409193000D+01  0.1128376621D+01
 Atom Pa1      Shell    21 D   1     bf   43 -    47         -0.833261412880          0.007879311513         -0.092854139107
      0.1670213000D+01  0.1000000000D+01
 Atom Pa1      Shell    22 D   1     bf   48 -    52         -0.833261412880          0.007879311513         -0.092854139107
      0.7410950000D+00  0.1000000000D+01
 Atom Pa1      Shell    23 D   1     bf   53 -    57         -0.833261412880          0.007879311513         -0.092854139107
      0.2613930000D+00  0.1000000000D+01
 Atom Pa1      Shell    24 D   1     bf   58 -    62         -0.833261412880          0.007879311513         -0.092854139107
      0.8281100000D-01  0.1000000000D+01
 Atom Pa1      Shell    25 F   5     bf   63 -    69         -0.833261412880          0.007879311513         -0.092854139107
      0.8799132700D+02  0.4766318191D-03
      0.2834019500D+02  0.4899184583D-02
      0.1244099400D+02  0.9669720755D-02
      0.3957296000D+01  0.3310292343D+00
      0.1875944000D+01  0.7275531640D+00
 Atom Pa1      Shell    26 F   1     bf   70 -    76         -0.833261412880          0.007879311513         -0.092854139107
      0.8275890000D+00  0.1000000000D+01
 Atom Pa1      Shell    27 F   1     bf   77 -    83         -0.833261412880          0.007879311513         -0.092854139107
      0.3327480000D+00  0.1000000000D+01
 Atom Pa1      Shell    28 F   1     bf   84 -    90         -0.833261412880          0.007879311513         -0.092854139107
      0.1146850000D+00  0.1000000000D+01
 Atom Pa1      Shell    29 G   1     bf   91 -    99         -0.833261412880          0.007879311513         -0.092854139107
      0.3500000000D+00  0.1000000000D+01
 Atom O2       Shell    30 S   6     bf  100 -   100         -0.523410183184         -3.931502025825         -0.188436472826
      0.2703238263D+05  0.5722733521D-03
      0.4052387139D+04  0.4435323349D-02
      0.9223272271D+03  0.2302010771D-01
      0.2612407099D+03  0.9282249067D-01
      0.8535464135D+02  0.2937850001D+00
      0.3103503524D+02  0.6740160450D+00
 Atom O2       Shell    31 S   2     bf  101 -   101         -0.523410183184         -3.931502025825         -0.188436472826
      0.1226086073D+02  0.6383993703D+00
      0.4998707601D+01  0.3953458713D+00
 Atom O2       Shell    32 S   1     bf  102 -   102         -0.523410183184         -3.931502025825         -0.188436472826
      0.1170310816D+01  0.1000000000D+01
 Atom O2       Shell    33 S   1     bf  103 -   103         -0.523410183184         -3.931502025825         -0.188436472826
      0.4647474099D+00  0.1000000000D+01
 Atom O2       Shell    34 S   1     bf  104 -   104         -0.523410183184         -3.931502025825         -0.188436472826
      0.1850453636D+00  0.1000000000D+01
 Atom O2       Shell    35 P   4     bf  105 -   107         -0.523410183184         -3.931502025825         -0.188436472826
      0.6327495480D+02  0.1201833222D-01
      0.1462704938D+02  0.8300542179D-01
      0.4450122346D+01  0.3199174393D+00
      0.1527579965D+01  0.7071554292D+00
 Atom O2       Shell    36 P   1     bf  108 -   110         -0.523410183184         -3.931502025825         -0.188436472826
      0.5293511794D+00  0.1000000000D+01
 Atom O2       Shell    37 P   1     bf  111 -   113         -0.523410183184         -3.931502025825         -0.188436472826
      0.1747842127D+00  0.1000000000D+01
 Atom O2       Shell    38 D   1     bf  114 -   118         -0.523410183184         -3.931502025825         -0.188436472826
      0.2314000000D+01  0.1000000000D+01
 Atom O2       Shell    39 D   1     bf  119 -   123         -0.523410183184         -3.931502025825         -0.188436472826
      0.6450000000D+00  0.1000000000D+01
 Atom O2       Shell    40 F   1     bf  124 -   130         -0.523410183184         -3.931502025825         -0.188436472826
      0.1428000000D+01  0.1000000000D+01
 Atom H3       Shell    41 S   3     bf  131 -   131         -0.886090586826         -5.429724784352          0.788451287541
      0.3406134100D+02  0.2543930721D-01
      0.5123574600D+01  0.1900859489D+00
      0.1164662600D+01  0.8524411301D+00
 Atom H3       Shell    42 S   1     bf  132 -   132         -0.886090586826         -5.429724784352          0.788451287541
      0.3272304100D+00  0.1000000000D+01
 Atom H3       Shell    43 S   1     bf  133 -   133         -0.886090586826         -5.429724784352          0.788451287541
      0.1030724100D+00  0.1000000000D+01
 Atom H3       Shell    44 P   1     bf  134 -   136         -0.886090586826         -5.429724784352          0.788451287541
      0.8000000000D+00  0.1000000000D+01
 Atom O4       Shell    45 S   6     bf  137 -   137         -4.339273757455         -0.035129524408         -1.989758612490
      0.2703238263D+05  0.5722733521D-03
      0.4052387139D+04  0.4435323349D-02
      0.9223272271D+03  0.2302010771D-01
      0.2612407099D+03  0.9282249067D-01
      0.8535464135D+02  0.2937850001D+00
      0.3103503524D+02  0.6740160450D+00
 Atom O4       Shell    46 S   2     bf  138 -   138         -4.339273757455         -0.035129524408         -1.989758612490
      0.1226086073D+02  0.6383993703D+00
      0.4998707601D+01  0.3953458713D+00
 Atom O4       Shell    47 S   1     bf  139 -   139         -4.339273757455         -0.035129524408         -1.989758612490
      0.1170310816D+01  0.1000000000D+01
 Atom O4       Shell    48 S   1     bf  140 -   140         -4.339273757455         -0.035129524408         -1.989758612490
      0.4647474099D+00  0.1000000000D+01
 Atom O4       Shell    49 S   1     bf  141 -   141         -4.339273757455         -0.035129524408         -1.989758612490
      0.1850453636D+00  0.1000000000D+01
 Atom O4       Shell    50 P   4     bf  142 -   144         -4.339273757455         -0.035129524408         -1.989758612490
      0.6327495480D+02  0.1201833222D-01
      0.1462704938D+02  0.8300542179D-01
      0.4450122346D+01  0.3199174393D+00
      0.1527579965D+01  0.7071554292D+00
 Atom O4       Shell    51 P   1     bf  145 -   147         -4.339273757455         -0.035129524408         -1.989758612490
      0.5293511794D+00  0.1000000000D+01
 Atom O4       Shell    52 P   1     bf  148 -   150         -4.339273757455         -0.035129524408         -1.989758612490
      0.1747842127D+00  0.1000000000D+01
 Atom O4       Shell    53 D   1     bf  151 -   155         -4.339273757455         -0.035129524408         -1.989758612490
      0.2314000000D+01  0.1000000000D+01
 Atom O4       Shell    54 D   1     bf  156 -   160         -4.339273757455         -0.035129524408         -1.989758612490
      0.6450000000D+00  0.1000000000D+01
 Atom O4       Shell    55 F   1     bf  161 -   167         -4.339273757455         -0.035129524408         -1.989758612490
      0.1428000000D+01  0.1000000000D+01
 Atom H5       Shell    56 S   3     bf  168 -   168         -5.547687051496         -1.269418469656         -2.570820432266
      0.3406134100D+02  0.2543930721D-01
      0.5123574600D+01  0.1900859489D+00
      0.1164662600D+01  0.8524411301D+00
 Atom H5       Shell    57 S   1     bf  169 -   169         -5.547687051496         -1.269418469656         -2.570820432266
      0.3272304100D+00  0.1000000000D+01
 Atom H5       Shell    58 S   1     bf  170 -   170         -5.547687051496         -1.269418469656         -2.570820432266
      0.1030724100D+00  0.1000000000D+01
 Atom H5       Shell    59 P   1     bf  171 -   173         -5.547687051496         -1.269418469656         -2.570820432266
      0.8000000000D+00  0.1000000000D+01
 Atom O6       Shell    60 S   6     bf  174 -   174         -1.983922332845         -0.036149010264          3.674979664801
      0.2703238263D+05  0.5722733521D-03
      0.4052387139D+04  0.4435323349D-02
      0.9223272271D+03  0.2302010771D-01
      0.2612407099D+03  0.9282249067D-01
      0.8535464135D+02  0.2937850001D+00
      0.3103503524D+02  0.6740160450D+00
 Atom O6       Shell    61 S   2     bf  175 -   175         -1.983922332845         -0.036149010264          3.674979664801
      0.1226086073D+02  0.6383993703D+00
      0.4998707601D+01  0.3953458713D+00
 Atom O6       Shell    62 S   1     bf  176 -   176         -1.983922332845         -0.036149010264          3.674979664801
      0.1170310816D+01  0.1000000000D+01
 Atom O6       Shell    63 S   1     bf  177 -   177         -1.983922332845         -0.036149010264          3.674979664801
      0.4647474099D+00  0.1000000000D+01
 Atom O6       Shell    64 S   1     bf  178 -   178         -1.983922332845         -0.036149010264          3.674979664801
      0.1850453636D+00  0.1000000000D+01
 Atom O6       Shell    65 P   4     bf  179 -   181         -1.983922332845         -0.036149010264          3.674979664801
      0.6327495480D+02  0.1201833222D-01
      0.1462704938D+02  0.8300542179D-01
      0.4450122346D+01  0.3199174393D+00
      0.1527579965D+01  0.7071554292D+00
 Atom O6       Shell    66 P   1     bf  182 -   184         -1.983922332845         -0.036149010264          3.674979664801
      0.5293511794D+00  0.1000000000D+01
 Atom O6       Shell    67 P   1     bf  185 -   187         -1.983922332845         -0.036149010264          3.674979664801
      0.1747842127D+00  0.1000000000D+01
 Atom O6       Shell    68 D   1     bf  188 -   192         -1.983922332845         -0.036149010264          3.674979664801
      0.2314000000D+01  0.1000000000D+01
 Atom O6       Shell    69 D   1     bf  193 -   197         -1.983922332845         -0.036149010264          3.674979664801
      0.6450000000D+00  0.1000000000D+01
 Atom O6       Shell    70 F   1     bf  198 -   204         -1.983922332845         -0.036149010264          3.674979664801
      0.1428000000D+01  0.1000000000D+01
 Atom H7       Shell    71 S   3     bf  205 -   205         -2.315077563733          0.835013516515          5.237871399739
      0.3406134100D+02  0.2543930721D-01
      0.5123574600D+01  0.1900859489D+00
      0.1164662600D+01  0.8524411301D+00
 Atom H7       Shell    72 S   1     bf  206 -   206         -2.315077563733          0.835013516515          5.237871399739
      0.3272304100D+00  0.1000000000D+01
 Atom H7       Shell    73 S   1     bf  207 -   207         -2.315077563733          0.835013516515          5.237871399739
      0.1030724100D+00  0.1000000000D+01
 Atom H7       Shell    74 P   1     bf  208 -   210         -2.315077563733          0.835013516515          5.237871399739
      0.8000000000D+00  0.1000000000D+01
 Atom O8       Shell    75 S   6     bf  211 -   211         -0.606409344654          3.943707879938         -0.249801068457
      0.2703238263D+05  0.5722733521D-03
      0.4052387139D+04  0.4435323349D-02
      0.9223272271D+03  0.2302010771D-01
      0.2612407099D+03  0.9282249067D-01
      0.8535464135D+02  0.2937850001D+00
      0.3103503524D+02  0.6740160450D+00
 Atom O8       Shell    76 S   2     bf  212 -   212         -0.606409344654          3.943707879938         -0.249801068457
      0.1226086073D+02  0.6383993703D+00
      0.4998707601D+01  0.3953458713D+00
 Atom O8       Shell    77 S   1     bf  213 -   213         -0.606409344654          3.943707879938         -0.249801068457
      0.1170310816D+01  0.1000000000D+01
 Atom O8       Shell    78 S   1     bf  214 -   214         -0.606409344654          3.943707879938         -0.249801068457
      0.4647474099D+00  0.1000000000D+01
 Atom O8       Shell    79 S   1     bf  215 -   215         -0.606409344654          3.943707879938         -0.249801068457
      0.1850453636D+00  0.1000000000D+01
 Atom O8       Shell    80 P   4     bf  216 -   218         -0.606409344654          3.943707879938         -0.249801068457
      0.6327495480D+02  0.1201833222D-01
      0.1462704938D+02  0.8300542179D-01
      0.4450122346D+01  0.3199174393D+00
      0.1527579965D+01  0.7071554292D+00
 Atom O8       Shell    81 P   1     bf  219 -   221         -0.606409344654          3.943707879938         -0.249801068457
      0.5293511794D+00  0.1000000000D+01
 Atom O8       Shell    82 P   1     bf  222 -   224         -0.606409344654          3.943707879938         -0.249801068457
      0.1747842127D+00  0.1000000000D+01
 Atom O8       Shell    83 D   1     bf  225 -   229         -0.606409344654          3.943707879938         -0.249801068457
      0.2314000000D+01  0.1000000000D+01
 Atom O8       Shell    84 D   1     bf  230 -   234         -0.606409344654          3.943707879938         -0.249801068457
      0.6450000000D+00  0.1000000000D+01
 Atom O8       Shell    85 F   1     bf  235 -   241         -0.606409344654          3.943707879938         -0.249801068457
      0.1428000000D+01  0.1000000000D+01
 Atom H9       Shell    86 S   3     bf  242 -   242         -1.563840254079          5.493173499339         -0.351563506043
      0.3406134100D+02  0.2543930721D-01
      0.5123574600D+01  0.1900859489D+00
      0.1164662600D+01  0.8524411301D+00
 Atom H9       Shell    87 S   1     bf  243 -   243         -1.563840254079          5.493173499339         -0.351563506043
      0.3272304100D+00  0.1000000000D+01
 Atom H9       Shell    88 S   1     bf  244 -   244         -1.563840254079          5.493173499339         -0.351563506043
      0.1030724100D+00  0.1000000000D+01
 Atom H9       Shell    89 P   1     bf  245 -   247         -1.563840254079          5.493173499339         -0.351563506043
      0.8000000000D+00  0.1000000000D+01
 Atom O10      Shell    90 S   6     bf  248 -   248          3.456166822246         -0.021813724504         -2.172610011835
      0.2703238263D+05  0.5722733521D-03
      0.4052387139D+04  0.4435323349D-02
      0.9223272271D+03  0.2302010771D-01
      0.2612407099D+03  0.9282249067D-01
      0.8535464135D+02  0.2937850001D+00
      0.3103503524D+02  0.6740160450D+00
 Atom O10      Shell    91 S   2     bf  249 -   249          3.456166822246         -0.021813724504         -2.172610011835
      0.1226086073D+02  0.6383993703D+00
      0.4998707601D+01  0.3953458713D+00
 Atom O10      Shell    92 S   1     bf  250 -   250          3.456166822246         -0.021813724504         -2.172610011835
      0.1170310816D+01  0.1000000000D+01
 Atom O10      Shell    93 S   1     bf  251 -   251          3.456166822246         -0.021813724504         -2.172610011835
      0.4647474099D+00  0.1000000000D+01
 Atom O10      Shell    94 S   1     bf  252 -   252          3.456166822246         -0.021813724504         -2.172610011835
      0.1850453636D+00  0.1000000000D+01
 Atom O10      Shell    95 P   4     bf  253 -   255          3.456166822246         -0.021813724504         -2.172610011835
      0.6327495480D+02  0.1201833222D-01
      0.1462704938D+02  0.8300542179D-01
      0.4450122346D+01  0.3199174393D+00
      0.1527579965D+01  0.7071554292D+00
 Atom O10      Shell    96 P   1     bf  256 -   258          3.456166822246         -0.021813724504         -2.172610011835
      0.5293511794D+00  0.1000000000D+01
 Atom O10      Shell    97 P   1     bf  259 -   261          3.456166822246         -0.021813724504         -2.172610011835
      0.1747842127D+00  0.1000000000D+01
 Atom O10      Shell    98 D   1     bf  262 -   266          3.456166822246         -0.021813724504         -2.172610011835
      0.2314000000D+01  0.1000000000D+01
 Atom O10      Shell    99 D   1     bf  267 -   271          3.456166822246         -0.021813724504         -2.172610011835
      0.6450000000D+00  0.1000000000D+01
 Atom O10      Shell   100 F   1     bf  272 -   278          3.456166822246         -0.021813724504         -2.172610011835
      0.1428000000D+01  0.1000000000D+01
 Atom O11      Shell   101 S   6     bf  279 -   279          3.514506749146          0.046330063075          1.907337874478
      0.2703238263D+05  0.5722733521D-03
      0.4052387139D+04  0.4435323349D-02
      0.9223272271D+03  0.2302010771D-01
      0.2612407099D+03  0.9282249067D-01
      0.8535464135D+02  0.2937850001D+00
      0.3103503524D+02  0.6740160450D+00
 Atom O11      Shell   102 S   2     bf  280 -   280          3.514506749146          0.046330063075          1.907337874478
      0.1226086073D+02  0.6383993703D+00
      0.4998707601D+01  0.3953458713D+00
 Atom O11      Shell   103 S   1     bf  281 -   281          3.514506749146          0.046330063075          1.907337874478
      0.1170310816D+01  0.1000000000D+01
 Atom O11      Shell   104 S   1     bf  282 -   282          3.514506749146          0.046330063075          1.907337874478
      0.4647474099D+00  0.1000000000D+01
 Atom O11      Shell   105 S   1     bf  283 -   283          3.514506749146          0.046330063075          1.907337874478
      0.1850453636D+00  0.1000000000D+01
 Atom O11      Shell   106 P   4     bf  284 -   286          3.514506749146          0.046330063075          1.907337874478
      0.6327495480D+02  0.1201833222D-01
      0.1462704938D+02  0.8300542179D-01
      0.4450122346D+01  0.3199174393D+00
      0.1527579965D+01  0.7071554292D+00
 Atom O11      Shell   107 P   1     bf  287 -   289          3.514506749146          0.046330063075          1.907337874478
      0.5293511794D+00  0.1000000000D+01
 Atom O11      Shell   108 P   1     bf  290 -   292          3.514506749146          0.046330063075          1.907337874478
      0.1747842127D+00  0.1000000000D+01
 Atom O11      Shell   109 D   1     bf  293 -   297          3.514506749146          0.046330063075          1.907337874478
      0.2314000000D+01  0.1000000000D+01
 Atom O11      Shell   110 D   1     bf  298 -   302          3.514506749146          0.046330063075          1.907337874478
      0.6450000000D+00  0.1000000000D+01
 Atom O11      Shell   111 F   1     bf  303 -   309          3.514506749146          0.046330063075          1.907337874478
      0.1428000000D+01  0.1000000000D+01
 Atom N12      Shell   112 S   6     bf  310 -   310          4.782277468017          0.003987460495         -0.149470216852
      0.1973080065D+05  0.5862640263D-03
      0.2957895874D+04  0.4542882059D-02
      0.6732213360D+03  0.2355841345D-01
      0.1906824949D+03  0.9470919329D-01
      0.6229544190D+02  0.2971978491D+00
      0.2265416118D+02  0.6691624690D+00
 Atom N12      Shell   113 S   2     bf  311 -   311          4.782277468017          0.003987460495         -0.149470216852
      0.8979147743D+01  0.6459668363D+00
      0.3686300237D+01  0.3870057439D+00
 Atom N12      Shell   114 S   1     bf  312 -   312          4.782277468017          0.003987460495         -0.149470216852
      0.8466007680D+00  0.1000000000D+01
 Atom N12      Shell   115 S   1     bf  313 -   313          4.782277468017          0.003987460495         -0.149470216852
      0.3364713377D+00  0.1000000000D+01
 Atom N12      Shell   116 S   1     bf  314 -   314          4.782277468017          0.003987460495         -0.149470216852
      0.1364765367D+00  0.1000000000D+01
 Atom N12      Shell   117 P   4     bf  315 -   317          4.782277468017          0.003987460495         -0.149470216852
      0.4920038051D+02  0.1144882510D-01
      0.1134679054D+02  0.7842233797D-01
      0.3427397241D+01  0.3081809474D+00
      0.1178552513D+01  0.7202719637D+00
 Atom N12      Shell   118 P   1     bf  318 -   320          4.782277468017          0.003987460495         -0.149470216852
      0.4164220497D+00  0.1000000000D+01
 Atom N12      Shell   119 P   1     bf  321 -   323          4.782277468017          0.003987460495         -0.149470216852
      0.1426082601D+00  0.1000000000D+01
 Atom N12      Shell   120 D   1     bf  324 -   328          4.782277468017          0.003987460495         -0.149470216852
      0.1654000000D+01  0.1000000000D+01
 Atom N12      Shell   121 D   1     bf  329 -   333          4.782277468017          0.003987460495         -0.149470216852
      0.4690000000D+00  0.1000000000D+01
 Atom N12      Shell   122 F   1     bf  334 -   340          4.782277468017          0.003987460495         -0.149470216852
      0.1093000000D+01  0.1000000000D+01
 Atom O13      Shell   123 S   6     bf  341 -   341          7.065284765759         -0.012190324637         -0.182701445204
      0.2703238263D+05  0.5722733521D-03
      0.4052387139D+04  0.4435323349D-02
      0.9223272271D+03  0.2302010771D-01
      0.2612407099D+03  0.9282249067D-01
      0.8535464135D+02  0.2937850001D+00
      0.3103503524D+02  0.6740160450D+00
 Atom O13      Shell   124 S   2     bf  342 -   342          7.065284765759         -0.012190324637         -0.182701445204
      0.1226086073D+02  0.6383993703D+00
      0.4998707601D+01  0.3953458713D+00
 Atom O13      Shell   125 S   1     bf  343 -   343          7.065284765759         -0.012190324637         -0.182701445204
      0.1170310816D+01  0.1000000000D+01
 Atom O13      Shell   126 S   1     bf  344 -   344          7.065284765759         -0.012190324637         -0.182701445204
      0.4647474099D+00  0.1000000000D+01
 Atom O13      Shell   127 S   1     bf  345 -   345          7.065284765759         -0.012190324637         -0.182701445204
      0.1850453636D+00  0.1000000000D+01
 Atom O13      Shell   128 P   4     bf  346 -   348          7.065284765759         -0.012190324637         -0.182701445204
      0.6327495480D+02  0.1201833222D-01
      0.1462704938D+02  0.8300542179D-01
      0.4450122346D+01  0.3199174393D+00
      0.1527579965D+01  0.7071554292D+00
 Atom O13      Shell   129 P   1     bf  349 -   351          7.065284765759         -0.012190324637         -0.182701445204
      0.5293511794D+00  0.1000000000D+01
 Atom O13      Shell   130 P   1     bf  352 -   354          7.065284765759         -0.012190324637         -0.182701445204
      0.1747842127D+00  0.1000000000D+01
 Atom O13      Shell   131 D   1     bf  355 -   359          7.065284765759         -0.012190324637         -0.182701445204
      0.2314000000D+01  0.1000000000D+01
 Atom O13      Shell   132 D   1     bf  360 -   364          7.065284765759         -0.012190324637         -0.182701445204
      0.6450000000D+00  0.1000000000D+01
 Atom O13      Shell   133 F   1     bf  365 -   371          7.065284765759         -0.012190324637         -0.182701445204
      0.1428000000D+01  0.1000000000D+01
 Effective core potential in the form of general ECP input:
      1 0
 Pa1-ECP   5 60
 H component
  1
  2        1.0000000        0.00000000    0.00000000
 S-H projection
  1
  2       15.2691737      475.47573283    0.00000000
 P-H projection
  1
  2        9.9577370      207.66485962    0.00000000
 D-H projection
  1
  2        8.9431413      156.67411988    0.00000000
 F-H projection
  1
  2        7.0104666       67.98223685    0.00000000
 G-H projection
  1
  2       12.2010560      -57.63059989    0.00000000
 
 There are   434 symmetry adapted cartesian basis functions of A   symmetry.
 There are   371 symmetry adapted basis functions of A   symmetry.
   371 basis functions,   648 primitive gaussians,   434 cartesian basis functions
    49 alpha electrons       49 beta electrons
       nuclear repulsion energy       807.9004403766 Hartrees.
 IExCor=  404 DFT=T Ex=B Corr=P86 ExCW=0 ScaHFX=  0.000000
 ScaDFX=  1.000000  1.000000  1.000000  1.000000 ScalE2=  1.000000  1.000000
 IRadAn=      5 IRanWt=     -1 IRanGd=            0 ICorTp=0 IEmpDi=  4
 NAtoms=   13 NActive=   13 NUniq=   13 SFac= 1.00D+00 NAtFMM=   60 NAOKFM=F Big=F
 Integral buffers will be    131072 words long.
 Raffenetti 2 integral format.
 Two-electron integral symmetry is turned on.
 Warning! Using old PCM defaults because the COSMOthermo output has been requested.
 These settings can be overridden by following keywords.
 ------------------------------------------------------------------------------
 Polarizable Continuum Model (PCM)
 =================================
 Model                : C-PCM.
 Atomic radii         : Klamt.
 XCosmo               : -1.000 (infinite dielectric limit)
 Polarization charges : Electronic and nuclear charges.
 Charge compensation  : Type 3 (Electronic density weighted correction).
 Solution method      : On-the-fly selection.
 Cavity type          : VdW (van der Waals Surface) (Alpha=1.000).
 Cavity algorithm     : GePol (No added spheres)
                        Default sphere list used, NSphG=   13.
                        Tesserae with average area of 0.200 Ang**2.
                        Smoothing algorithm: None.
                        Polarization charges: point-like.
                        Self-potential: constant (ISelfS= 1).
                        Self-field    : global E.n sum rule (ISelfD= 3).
 Solvent              : Water, Eps=  78.355300 Eps(inf)=   1.777849
 ------------------------------------------------------------------------------
 Spheres list:
 ISph  on   Nord     Re0    Alpha      Xe            Ye            Ze
    1  Pa      1    2.0000  1.170     -0.440943      0.004170     -0.049136
    2   O      2    1.7200  1.000     -0.276977     -2.080461     -0.099716
    3   H      3    1.3000  1.000     -0.468899     -2.873287      0.417230
    4   O      4    1.7200  1.000     -2.296245     -0.018590     -1.052935
    5   H      5    1.3000  1.000     -2.935710     -0.671747     -1.360420
    6   O      6    1.7200  1.000     -1.049846     -0.019129      1.944715
    7   H      7    1.3000  1.000     -1.225086      0.441870      2.771762
    8   O      8    1.7200  1.000     -0.320898      2.086920     -0.132189
    9   H      9    1.3000  1.000     -0.827549      2.906862     -0.186039
   10   O     10    1.7200  1.000      1.828925     -0.011543     -1.149696
   11   O     11    1.7200  1.000      1.859797      0.024517      1.009320
   12   N     12    1.8300  1.000      2.530672      0.002110     -0.079096
   13   O     13    1.7200  1.000      3.738788     -0.006451     -0.096681
 ------------------------------------------------------------------------------
 GePol: Number of generator spheres                  =      13
 GePol: Total number of spheres                      =      13
 GePol: Number of exposed spheres                    =      13 (100.00%)
 GePol: Number of tesserae                           =    1184
 GePol: Average area of tesserae                     =       0.15 Ang**2
 GePol: Minimum area of tessera                      =   0.11D-02 Ang**2
 GePol: Maximum area of tessera                      =    0.35817 Ang**2
 GePol: Number of small tesserae                     =       9
 GePol: Fraction of small tesserae (<1% of avg)      =       0.76%
 GePol: Total count of vertices                      =    3949
 GePol: Maximum number of vertices in a tessera      =       5
 GePol: Cavity surface area                          =    180.563 Ang**2
 GePol: Cavity volume                                =    152.315 Ang**3
 DisRep: Neglecting contributions from atom    1 of solute.
 Leave Link  301 at Tue Jul  4 11:34:04 2023, MaxMem=  2147483648 cpu:               1.1 elap:               0.2
 (Enter /home/pcmt/gaussian/g16.C.01/g16/l302.exe)
 NPDir=0 NMtPBC=     1 NCelOv=     1 NCel=       1 NClECP=     1 NCelD=      1
         NCelK=      1 NCelE2=     1 NClLst=     1 CellRange=     0.0.
 One-electron integrals computed using PRISM.
 One-electron integral symmetry used in STVInt
   1 Symmetry operations used in ECPInt.
 ECPInt:  NShTT=    8911 NPrTT=   26794 LenC2=    8326 LenP2D=   18646.
 LDataN:  DoStor=T MaxTD1= 9 Len=  602
 NBasis=   371 RedAO= T EigKep=  6.21D-04  NBF=   371
 NBsUse=   371 1.00D-06 EigRej= -1.00D+00 NBFU=   371
 Precomputing XC quadrature grid using
 IXCGrd= 4 IRadAn=           5 IRanWt=          -1 IRanGd=           0 AccXCQ= 0.00D+00.
 Defaulting to unpruned grid for atomic number  91.
 Generated NRdTot=       0 NPtTot=           0 NUsed=           0 NTot=          32
 NSgBfM=   426   426   426   426   426 MxSgAt=    13 MxSgA2=    13.
 Leave Link  302 at Tue Jul  4 11:34:05 2023, MaxMem=  2147483648 cpu:               7.4 elap:               1.0
 (Enter /home/pcmt/gaussian/g16.C.01/g16/l303.exe)
 DipDrv:  MaxL=1.
 Leave Link  303 at Tue Jul  4 11:34:05 2023, MaxMem=  2147483648 cpu:               0.5 elap:               0.1
 (Enter /home/pcmt/gaussian/g16.C.01/g16/l401.exe)
 ExpMin= 2.32D-02 ExpMax= 2.70D+04 ExpMxC= 1.20D+04 IAcc=3 IRadAn=         5 AccDes= 0.00D+00
 Harris functional with IExCor=  404 and IRadAn=       5 diagonalized for initial guess.
 HarFok:  IExCor=  404 AccDes= 0.00D+00 IRadAn=         5 IDoV= 1 UseB2=F ITyADJ=14
 ICtDFT=  3500011 ScaDFX=  1.000000  1.000000  1.000000  1.000000
 Defaulting to unpruned grid for atomic number  91.
 FoFCou: FMM=F IPFlag=           0 FMFlag=      100000 FMFlg1=           0
         NFxFlg=           0 DoJE=T BraDBF=F KetDBF=T FulRan=T
         wScrn=  0.000000 ICntrl=       500 IOpCl=  0 I1Cent=   200000004 NGrid=           0
         NMat0=    1 NMatS0=      1 NMatT0=    0 NMatD0=    1 NMtDS0=    0 NMtDT0=    0
 Petite list used in FoFCou.
 Harris En= -1027.31644550493    
 JPrj=0 DoOrth=F DoCkMO=F.
 Leave Link  401 at Tue Jul  4 11:34:09 2023, MaxMem=  2147483648 cpu:              25.0 elap:               3.2
 (Enter /home/pcmt/gaussian/g16.C.01/g16/l502.exe)
 Integral symmetry usage will be decided dynamically.
 Closed shell SCF:
 Using DIIS extrapolation, IDIIS=  1040.
 NGot=  2147483648 LenX=  2147099488 LenY=  2146910691
 Requested convergence on RMS density matrix=1.00D-08 within 100 cycles.
 Requested convergence on MAX density matrix=1.00D-06.
 Requested convergence on             energy=1.00D-06.
 No special actions if energy rises.
 Fock matrices will be formed incrementally for  20 cycles.

 Cycle   1  Pass 1  IDiag  1:
 FoFJK:  IHMeth= 1 ICntrl=     500 DoSepK=F KAlg= 0 I1Cent=           0 FoldK=F
 IRaf= 890000000 NMat=       1 IRICut=       1 DoRegI=T DoRafI=F ISym2E= 0 IDoP0=0 IntGTp=1.
 FoFCou: FMM=F IPFlag=           0 FMFlag=      100000 FMFlg1=           0
         NFxFlg=           0 DoJE=T BraDBF=F KetDBF=F FulRan=T
         wScrn=  0.000000 ICntrl=       500 IOpCl=  0 I1Cent=           0 NGrid=           0
         NMat0=    1 NMatS0=      1 NMatT0=    0 NMatD0=    1 NMtDS0=    0 NMtDT0=    0
 Symmetry not used in FoFCou.
 Defaulting to unpruned grid for atomic number  91.
 Defaulting to unpruned grid for atomic number  91.
 Defaulting to unpruned grid for atomic number  91.
 Defaulting to unpruned grid for atomic number  91.
 Defaulting to unpruned grid for atomic number  91.
 Defaulting to unpruned grid for atomic number  91.
 Defaulting to unpruned grid for atomic number  91.
 Defaulting to unpruned grid for atomic number  91.
 Inv3:  Mode=1 IEnd=     4205568.
 Iteration    1 A*A^-1 deviation from unit magnitude is 4.00D-15 for   1167.
 Iteration    1 A*A^-1 deviation from orthogonality  is 3.41D-15 for   1168    876.
 Iteration    1 A^-1*A deviation from unit magnitude is 4.00D-15 for   1167.
 Iteration    1 A^-1*A deviation from orthogonality  is 2.23D-15 for    947    485.
 E= -1024.69634178740    
 DIIS: error= 5.03D-02 at cycle   1 NSaved=   1.
 NSaved= 1 IEnMin= 1 EnMin= -1024.69634178740     IErMin= 1 ErrMin= 5.03D-02
 ErrMax= 5.03D-02  0.00D+00 EMaxC= 1.00D-01 BMatC= 1.69D+00 BMatP= 1.69D+00
 IDIUse=3 WtCom= 4.97D-01 WtEn= 5.03D-01
 Coeff-Com:  0.100D+01
 Coeff-En:   0.100D+01
 Coeff:      0.100D+01
 Gap=    -0.008 Goal=   None    Shift=    0.000
 GapD=   -0.008 DampG=0.250 DampE=0.250 DampFc=0.1250 IDamp=-1.
 Damping current iteration by 1.25D-01
 RMSDP=1.09D-02 MaxDP=1.35D+00              OVMax= 9.91D-01

 Cycle   2  Pass 1  IDiag  1:
 RMSU=  1.33D-03    CP:  1.01D+00
 E= -1024.78813757760     Delta-E=       -0.091795790195 Rises=F Damp=T
 DIIS: error= 2.97D-02 at cycle   2 NSaved=   2.
 NSaved= 2 IEnMin= 2 EnMin= -1024.78813757760     IErMin= 2 ErrMin= 2.97D-02
 ErrMax= 2.97D-02  0.00D+00 EMaxC= 1.00D-01 BMatC= 2.64D-01 BMatP= 1.69D+00
 IDIUse=3 WtCom= 7.03D-01 WtEn= 2.97D-01
 Coeff-Com: -0.915D-01 0.109D+01
 Coeff-En:   0.460D+00 0.540D+00
 Coeff:      0.721D-01 0.928D+00
 Gap=     0.006 Goal=   None    Shift=    0.000
 RMSDP=3.17D-03 MaxDP=1.17D-01 DE=-9.18D-02 OVMax= 9.58D-01

 Cycle   3  Pass 1  IDiag  1:
 RMSU=  3.16D-03    CP:  1.02D+00  8.05D-01
 E= -1024.81868504195     Delta-E=       -0.030547464357 Rises=F Damp=F
 DIIS: error= 5.95D-02 at cycle   3 NSaved=   3.
 NSaved= 3 IEnMin= 3 EnMin= -1024.81868504195     IErMin= 2 ErrMin= 2.97D-02
 ErrMax= 5.95D-02  0.00D+00 EMaxC= 1.00D-01 BMatC= 1.33D+00 BMatP= 2.64D-01
 IDIUse=2 WtCom= 0.00D+00 WtEn= 1.00D+00
 EnCoef did     2 forward-backward iterations
 Coeff-En:   0.220D+00 0.355D+00 0.425D+00
 Coeff:      0.220D+00 0.355D+00 0.425D+00
 Gap=     0.170 Goal=   None    Shift=    0.000
 RMSDP=6.69D-03 MaxDP=5.48D-01 DE=-3.05D-02 OVMax= 7.93D-01

 Cycle   4  Pass 1  IDiag  1:
 RMSU=  3.69D-03    CP:  1.06D+00  3.00D+00 -5.30D-02
 E= -996.744984247020     Delta-E=       28.073700794933 Rises=F Damp=F
 DIIS: error= 3.99D-01 at cycle   4 NSaved=   4.
 NSaved= 4 IEnMin= 3 EnMin= -1024.81868504195     IErMin= 2 ErrMin= 2.97D-02
 ErrMax= 3.99D-01  0.00D+00 EMaxC= 1.00D-01 BMatC= 5.59D+01 BMatP= 2.64D-01
 IDIUse=2 WtCom= 0.00D+00 WtEn= 1.00D+00
 EnCoef did   100 forward-backward iterations
 Coeff-En:   0.463D+00 0.138D-01 0.442D+00 0.807D-01
 Coeff:      0.463D+00 0.138D-01 0.442D+00 0.807D-01
 Gap=    -0.047 Goal=   None    Shift=    0.000
 RMSDP=3.84D-03 MaxDP=2.52D-01 DE= 2.81D+01 OVMax= 6.73D-01

 Cycle   5  Pass 1  IDiag  1:
 RMSU=  2.19D-03    CP:  1.07D+00  2.64D+00  1.71D-01  2.63D-01
 E= -1024.05697696917     Delta-E=      -27.311992722149 Rises=F Damp=F
 DIIS: error= 1.01D-01 at cycle   5 NSaved=   5.
 NSaved= 5 IEnMin= 3 EnMin= -1024.81868504195     IErMin= 2 ErrMin= 2.97D-02
 ErrMax= 1.01D-01  0.00D+00 EMaxC= 1.00D-01 BMatC= 3.32D+00 BMatP= 2.64D-01
 IDIUse=2 WtCom= 0.00D+00 WtEn= 1.00D+00
 EnCoef did   100 forward-backward iterations
 Coeff-En:   0.372D+00 0.570D-02 0.279D+00 0.000D+00 0.343D+00
 Coeff:      0.372D+00 0.570D-02 0.279D+00 0.000D+00 0.343D+00
 Gap=     0.159 Goal=   None    Shift=    0.000
 RMSDP=1.96D-03 MaxDP=1.31D-01 DE=-2.73D+01 OVMax= 3.00D-01

 Cycle   6  Pass 1  IDiag  1:
 RMSU=  9.99D-04    CP:  1.06D+00  1.74D+00  2.84D-01  7.87D-02  5.89D-01
 E= -1025.78096791953     Delta-E=       -1.723990950359 Rises=F Damp=F
 DIIS: error= 1.33D-02 at cycle   6 NSaved=   6.
 NSaved= 6 IEnMin= 6 EnMin= -1025.78096791953     IErMin= 6 ErrMin= 1.33D-02
 ErrMax= 1.33D-02  0.00D+00 EMaxC= 1.00D-01 BMatC= 9.10D-02 BMatP= 2.64D-01
 IDIUse=3 WtCom= 8.67D-01 WtEn= 1.33D-01
 Coeff-Com: -0.541D-01 0.435D+00 0.154D+00-0.178D-01 0.105D+00 0.377D+00
 Coeff-En:   0.000D+00 0.000D+00 0.000D+00 0.000D+00 0.633D-01 0.937D+00
 Coeff:     -0.469D-01 0.377D+00 0.134D+00-0.155D-01 0.994D-01 0.452D+00
 Gap=     0.227 Goal=   None    Shift=    0.000
 RMSDP=9.22D-04 MaxDP=6.93D-02 DE=-1.72D+00 OVMax= 1.31D-01

 Cycle   7  Pass 1  IDiag  1:
 RMSU=  5.39D-04    CP:  1.05D+00  1.40D+00  3.69D-01  6.47D-02  4.62D-01
                    CP:  5.93D-01
 E= -1025.72414183203     Delta-E=        0.056826087503 Rises=F Damp=F
 DIIS: error= 1.44D-02 at cycle   7 NSaved=   7.
 NSaved= 7 IEnMin= 6 EnMin= -1025.78096791953     IErMin= 6 ErrMin= 1.33D-02
 ErrMax= 1.44D-02  0.00D+00 EMaxC= 1.00D-01 BMatC= 1.52D-01 BMatP= 9.10D-02
 IDIUse=2 WtCom= 0.00D+00 WtEn= 1.00D+00
 EnCoef did     3 forward-backward iterations
 Coeff-En:   0.000D+00 0.000D+00 0.000D+00 0.000D+00 0.811D-01 0.563D+00
 Coeff-En:   0.356D+00
 Coeff:      0.000D+00 0.000D+00 0.000D+00 0.000D+00 0.811D-01 0.563D+00
 Coeff:      0.356D+00
 Gap=     0.146 Goal=   None    Shift=    0.000
 RMSDP=1.45D-03 MaxDP=1.47D-01 DE= 5.68D-02 OVMax= 1.77D-01

 Cycle   8  Pass 1  IDiag  1:
 RMSU=  3.03D-04    CP:  1.06D+00  2.17D+00  2.66D-01  1.54D-01  8.20D-01
                    CP:  4.84D-01  6.58D-01
 E= -1025.65418920509     Delta-E=        0.069952626932 Rises=F Damp=F
 DIIS: error= 2.51D-02 at cycle   8 NSaved=   8.
 NSaved= 8 IEnMin= 6 EnMin= -1025.78096791953     IErMin= 6 ErrMin= 1.33D-02
 ErrMax= 2.51D-02  0.00D+00 EMaxC= 1.00D-01 BMatC= 2.88D-01 BMatP= 9.10D-02
 IDIUse=2 WtCom= 0.00D+00 WtEn= 1.00D+00
 EnCoef did     2 forward-backward iterations
 Coeff-En:   0.000D+00 0.000D+00 0.000D+00 0.000D+00 0.000D+00 0.471D+00
 Coeff-En:   0.229D+00 0.300D+00
 Coeff:      0.000D+00 0.000D+00 0.000D+00 0.000D+00 0.000D+00 0.471D+00
 Coeff:      0.229D+00 0.300D+00
 Gap=     0.138 Goal=   None    Shift=    0.000
 RMSDP=6.55D-04 MaxDP=5.63D-02 DE= 7.00D-02 OVMax= 9.38D-02

 Cycle   9  Pass 1  IDiag  1:
 RMSU=  1.42D-04    CP:  1.06D+00  1.85D+00  2.83D-01  1.03D-01  6.73D-01
                    CP:  7.21D-01  6.68D-01  5.21D-01
 E= -1025.84758943516     Delta-E=       -0.193400230068 Rises=F Damp=F
 DIIS: error= 6.06D-03 at cycle   9 NSaved=   9.
 NSaved= 9 IEnMin= 9 EnMin= -1025.84758943516     IErMin= 9 ErrMin= 6.06D-03
 ErrMax= 6.06D-03  0.00D+00 EMaxC= 1.00D-01 BMatC= 6.50D-03 BMatP= 9.10D-02
 IDIUse=3 WtCom= 9.39D-01 WtEn= 6.06D-02
 Coeff-Com:  0.126D-01-0.190D-01-0.206D-03 0.123D-02-0.442D-01 0.271D+00
 Coeff-Com:  0.326D-01 0.246D+00 0.500D+00
 Coeff-En:   0.000D+00 0.000D+00 0.000D+00 0.000D+00 0.000D+00 0.267D-01
 Coeff-En:   0.000D+00 0.000D+00 0.973D+00
 Coeff:      0.118D-01-0.179D-01-0.194D-03 0.116D-02-0.415D-01 0.256D+00
 Coeff:      0.306D-01 0.231D+00 0.529D+00
 Gap=     0.130 Goal=   None    Shift=    0.000
 RMSDP=1.58D-04 MaxDP=1.09D-02 DE=-1.93D-01 OVMax= 2.16D-02

 Cycle  10  Pass 1  IDiag  1:
 RMSU=  9.97D-05    CP:  1.06D+00  1.90D+00  2.89D-01  1.04D-01  6.83D-01
                    CP:  7.87D-01  5.72D-01  6.43D-01  7.84D-01
 E= -1025.85134912055     Delta-E=       -0.003759685389 Rises=F Damp=F
 DIIS: error= 1.59D-03 at cycle  10 NSaved=  10.
 NSaved=10 IEnMin=10 EnMin= -1025.85134912055     IErMin=10 ErrMin= 1.59D-03
 ErrMax= 1.59D-03  0.00D+00 EMaxC= 1.00D-01 BMatC= 1.98D-03 BMatP= 6.50D-03
 IDIUse=3 WtCom= 9.84D-01 WtEn= 1.59D-02
 Coeff-Com:  0.248D-01-0.311D-01 0.867D-02 0.842D-03-0.439D-02-0.561D-01
 Coeff-Com: -0.645D-01-0.719D-01 0.220D+00 0.973D+00
 Coeff-En:   0.000D+00 0.000D+00 0.000D+00 0.000D+00 0.000D+00 0.000D+00
 Coeff-En:   0.000D+00 0.000D+00 0.114D-01 0.989D+00
 Coeff:      0.244D-01-0.306D-01 0.853D-02 0.828D-03-0.432D-02-0.552D-01
 Coeff:     -0.635D-01-0.707D-01 0.217D+00 0.973D+00
 Gap=     0.126 Goal=   None    Shift=    0.000
 RMSDP=1.84D-04 MaxDP=1.58D-02 DE=-3.76D-03 OVMax= 2.05D-02

 Cycle  11  Pass 1  IDiag  1:
 RMSU=  7.23D-05    CP:  1.06D+00  1.92D+00  2.90D-01  1.05D-01  6.90D-01
                    CP:  8.07D-01  6.10D-01  7.65D-01  1.44D+00  2.30D+00
 E= -1025.85219743706     Delta-E=       -0.000848316505 Rises=F Damp=F
 DIIS: error= 2.09D-03 at cycle  11 NSaved=  11.
 NSaved=11 IEnMin=11 EnMin= -1025.85219743706     IErMin=10 ErrMin= 1.59D-03
 ErrMax= 2.09D-03  0.00D+00 EMaxC= 1.00D-01 BMatC= 3.36D-03 BMatP= 1.98D-03
 IDIUse=3 WtCom= 9.84D-01 WtEn= 1.59D-02
 Coeff-Com:  0.283D-01-0.283D-01 0.124D-01 0.650D-03-0.407D-03-0.108D+00
 Coeff-Com: -0.699D-01-0.110D+00 0.118D+00 0.864D+00 0.294D+00
 Coeff-En:   0.000D+00 0.000D+00 0.000D+00 0.000D+00 0.000D+00 0.000D+00
 Coeff-En:   0.000D+00 0.000D+00 0.000D+00 0.000D+00 0.100D+01
 Coeff:      0.278D-01-0.278D-01 0.122D-01 0.639D-03-0.401D-03-0.106D+00
 Coeff:     -0.688D-01-0.109D+00 0.116D+00 0.850D+00 0.306D+00
 Gap=     0.127 Goal=   None    Shift=    0.000
 RMSDP=8.19D-05 MaxDP=6.38D-03 DE=-8.48D-04 OVMax= 1.16D-02

 Cycle  12  Pass 1  IDiag  1:
 RMSU=  2.98D-05    CP:  1.06D+00  1.92D+00  2.93D-01  1.05D-01  6.88D-01
                    CP:  8.15D-01  6.26D-01  8.36D-01  1.67D+00  2.92D+00
                    CP:  1.23D+00
 E= -1025.85263141507     Delta-E=       -0.000433978009 Rises=F Damp=F
 DIIS: error= 2.06D-03 at cycle  12 NSaved=  12.
 NSaved=12 IEnMin=12 EnMin= -1025.85263141507     IErMin=10 ErrMin= 1.59D-03
 ErrMax= 2.06D-03  0.00D+00 EMaxC= 1.00D-01 BMatC= 3.42D-03 BMatP= 1.98D-03
 IDIUse=3 WtCom= 9.84D-01 WtEn= 1.59D-02
 Coeff-Com:  0.257D-01-0.199D-01 0.144D-01 0.474D-03-0.850D-04-0.995D-01
 Coeff-Com: -0.578D-01-0.105D+00 0.107D+00 0.738D+00 0.880D-01 0.308D+00
 Coeff-En:   0.000D+00 0.000D+00 0.000D+00 0.000D+00 0.000D+00 0.000D+00
 Coeff-En:   0.000D+00 0.000D+00 0.000D+00 0.000D+00 0.000D+00 0.100D+01
 Coeff:      0.253D-01-0.196D-01 0.142D-01 0.467D-03-0.836D-04-0.979D-01
 Coeff:     -0.569D-01-0.103D+00 0.105D+00 0.727D+00 0.866D-01 0.319D+00
 Gap=     0.126 Goal=   None    Shift=    0.000
 RMSDP=3.58D-05 MaxDP=5.26D-03 DE=-4.34D-04 OVMax= 3.05D-03

 Cycle  13  Pass 1  IDiag  1:
 RMSU=  1.64D-05    CP:  1.06D+00  1.90D+00  2.93D-01  1.03D-01  6.82D-01
                    CP:  8.13D-01  6.28D-01  8.29D-01  1.63D+00  2.77D+00
                    CP:  1.15D+00  7.25D-01
 E= -1025.85339007587     Delta-E=       -0.000758660809 Rises=F Damp=F
 DIIS: error= 1.53D-03 at cycle  13 NSaved=  13.
 NSaved=13 IEnMin=13 EnMin= -1025.85339007587     IErMin=13 ErrMin= 1.53D-03
 ErrMax= 1.53D-03  0.00D+00 EMaxC= 1.00D-01 BMatC= 1.80D-03 BMatP= 1.98D-03
 IDIUse=3 WtCom= 9.85D-01 WtEn= 1.53D-02
 Coeff-Com:  0.340D-02-0.945D-03 0.292D-02 0.127D-03 0.298D-03-0.168D-01
 Coeff-Com: -0.420D-02-0.245D-01 0.802D-01 0.307D+00-0.125D+01-0.601D+00
 Coeff-Com:  0.251D+01
 Coeff-En:   0.000D+00 0.000D+00 0.000D+00 0.000D+00 0.000D+00 0.000D+00
 Coeff-En:   0.000D+00 0.000D+00 0.000D+00 0.000D+00 0.000D+00 0.000D+00
 Coeff-En:   0.100D+01
 Coeff:      0.335D-02-0.931D-03 0.287D-02 0.125D-03 0.294D-03-0.166D-01
 Coeff:     -0.413D-02-0.241D-01 0.789D-01 0.302D+00-0.123D+01-0.592D+00
 Coeff:      0.248D+01
 Gap=     0.134 Goal=   None    Shift=    0.000
 RMSDP=9.43D-05 MaxDP=1.25D-02 DE=-7.59D-04 OVMax= 8.60D-03

 Cycle  14  Pass 1  IDiag  1:
 RMSU=  1.78D-05    CP:  1.06D+00  1.86D+00  2.97D-01  9.81D-02  6.62D-01
                    CP:  8.06D-01  6.52D-01  8.18D-01  1.58D+00  2.49D+00
                    CP:  7.98D-01  1.01D+00  2.09D+00
 E= -1025.85421000531     Delta-E=       -0.000819929433 Rises=F Damp=F
 DIIS: error= 5.40D-04 at cycle  14 NSaved=  14.
 NSaved=14 IEnMin=14 EnMin= -1025.85421000531     IErMin=14 ErrMin= 5.40D-04
 ErrMax= 5.40D-04  0.00D+00 EMaxC= 1.00D-01 BMatC= 2.07D-04 BMatP= 1.80D-03
 IDIUse=3 WtCom= 9.95D-01 WtEn= 5.40D-03
 Coeff-Com:  0.518D-06 0.619D-03 0.129D-03 0.148D-04 0.120D-02-0.947D-02
 Coeff-Com:  0.325D-02-0.110D-01 0.239D-01 0.872D-01-0.928D+00-0.354D+00
 Coeff-Com:  0.182D+01 0.368D+00
 Coeff-En:   0.000D+00 0.000D+00 0.000D+00 0.000D+00 0.000D+00 0.000D+00
 Coeff-En:   0.000D+00 0.000D+00 0.000D+00 0.000D+00 0.000D+00 0.000D+00
 Coeff-En:   0.199D+00 0.801D+00
 Coeff:      0.516D-06 0.615D-03 0.129D-03 0.147D-04 0.120D-02-0.942D-02
 Coeff:      0.323D-02-0.109D-01 0.238D-01 0.867D-01-0.923D+00-0.352D+00
 Coeff:      0.181D+01 0.370D+00
 Gap=     0.129 Goal=   None    Shift=    0.000
 RMSDP=5.19D-05 MaxDP=3.89D-03 DE=-8.20D-04 OVMax= 7.53D-03

 Cycle  15  Pass 1  IDiag  1:
 RMSU=  6.97D-06    CP:  1.06D+00  1.86D+00  2.98D-01  9.86D-02  6.63D-01
                    CP:  8.10D-01  6.61D-01  8.56D-01  1.72D+00  2.87D+00
                    CP:  1.05D+00  1.29D+00  2.38D+00  2.40D-01
 E= -1025.85443082019     Delta-E=       -0.000220814884 Rises=F Damp=F
 DIIS: error= 1.92D-04 at cycle  15 NSaved=  15.
 NSaved=15 IEnMin=15 EnMin= -1025.85443082019     IErMin=15 ErrMin= 1.92D-04
 ErrMax= 1.92D-04  0.00D+00 EMaxC= 1.00D-01 BMatC= 1.94D-05 BMatP= 2.07D-04
 IDIUse=3 WtCom= 9.98D-01 WtEn= 1.92D-03
 Coeff-Com: -0.118D-02 0.145D-02-0.399D-03-0.542D-04 0.166D-02-0.440D-02
 Coeff-Com:  0.283D-02-0.542D-02 0.461D-02 0.925D-02-0.509D+00-0.158D+00
 Coeff-Com:  0.968D+00 0.270D+00 0.421D+00
 Coeff-En:   0.000D+00 0.000D+00 0.000D+00 0.000D+00 0.000D+00 0.000D+00
 Coeff-En:   0.000D+00 0.000D+00 0.000D+00 0.000D+00 0.000D+00 0.000D+00
 Coeff-En:   0.000D+00 0.000D+00 0.100D+01
[...]
  58         V                -0.076147          5.211520
  59         V                -0.017893          7.840991
  60         V                 0.011035          1.469728
  61         V                 0.020241          1.211373
  62         V                 0.025791          1.697504
  63         V                 0.026726          0.808949
  64         V                 0.028476          1.161849
  65         V                 0.034748          1.822715
  66         V                 0.054495          2.393621
  67         V                 0.068248          1.416933
  68         V                 0.104007          3.124929
  69         V                 0.119767          5.901267
  70         V                 0.124967          1.078406
  71         V                 0.141960          2.567492
  72         V                 0.149356          2.391712
  73         V                 0.191736          1.540002
  74         V                 0.215132          2.394297
  75         V                 0.224435          2.290701
  76         V                 0.234491          1.189753
  77         V                 0.245510          1.759343
  78         V                 0.256353          1.820325
  79         V                 0.265212          1.570946
  80         V                 0.265893          1.544352
  81         V                 0.273783          1.410086
  82         V                 0.288767          1.221898
  83         V                 0.306600          1.686751
  84         V                 0.315227          1.936306
  85         V                 0.328715          1.356710
  86         V                 0.336737          1.725914
  87         V                 0.347102          1.554536
  88         V                 0.357211          1.839869
  89         V                 0.370216          1.757528
  90         V                 0.385886          2.575622
  91         V                 0.403785          2.352413
  92         V                 0.417531          2.237619
  93         V                 0.435303          1.531371
  94         V                 0.448156          1.505532
  95         V                 0.457675          1.656651
  96         V                 0.461380          1.859842
  97         V                 0.470839          1.487715
  98         V                 0.474178          1.984556
  99         V                 0.484295          1.948164
 100         V                 0.496085          1.577664
 101         V                 0.499160          1.584626
 102         V                 0.507818          2.643196
 103         V                 0.516029          1.610438
 104         V                 0.522503          1.687223
 105         V                 0.534675          1.383747
 106         V                 0.544697          1.455959
 107         V                 0.555837          1.615681
 108         V                 0.571536          1.697947
 109         V                 0.584766          1.517852
 110         V                 0.599491          1.419122
 111         V                 0.611794          1.799464
 112         V                 0.628871          1.600039
 113         V                 0.657751          1.706608
 114         V                 0.671540          1.979487
 115         V                 0.712998          1.595166
 116         V                 0.729392          1.736786
 117         V                 0.743948          1.768566
 118         V                 0.768749          1.655060
 119         V                 0.804849          1.835364
 120         V                 0.816216          1.885830
 121         V                 0.826512          1.998858
 122         V                 0.865107          1.899832
 123         V                 0.891423          2.195123
 124         V                 0.912406          2.530365
 125         V                 0.936677          2.086791
 126         V                 0.940841          2.133651
 127         V                 0.961109          2.113461
 128         V                 0.975386          2.929428
 129         V                 0.993587          2.292071
 130         V                 1.028446          2.872493
 131         V                 1.047158          2.912908
 132         V                 1.072267          2.866653
 133         V                 1.076216          2.822400
 134         V                 1.112112          2.801685
 135         V                 1.117956          2.531758
 136         V                 1.126219          2.561826
 137         V                 1.147517          2.741856
 138         V                 1.157651          2.719428
 139         V                 1.164302          2.729585
 140         V                 1.173309          2.642138
 141         V                 1.180133          2.916471
 142         V                 1.222630          2.697061
 143         V                 1.251131          2.402610
 144         V                 1.292543          2.856590
 145         V                 1.308296          3.022586
 146         V                 1.321984          2.836789
 147         V                 1.333725          3.132340
 148         V                 1.356373          2.782050
 149         V                 1.371798          2.801604
 150         V                 1.384858          2.929077
 151         V                 1.388491          2.823304
 152         V                 1.423431          2.520174
 153         V                 1.425247          2.627562
 154         V                 1.429140          2.870565
 155         V                 1.465854          3.037507
 156         V                 1.472892          2.652211
 157         V                 1.492184          3.209029
 158         V                 1.516429          2.928920
 159         V                 1.534270          3.116970
 160         V                 1.541856          3.259645
 161         V                 1.586250          3.111429
 162         V                 1.603864          3.224739
 163         V                 1.606128          3.319395
 164         V                 1.628102          3.309278
 165         V                 1.637272          2.994718
 166         V                 1.668501          3.592793
 167         V                 1.682684          3.329011
 168         V                 1.694728          3.087366
 169         V                 1.716641          3.280033
 170         V                 1.731866          3.143032
 171         V                 1.739415          3.357063
 172         V                 1.747451          3.305338
 173         V                 1.765169          3.304819
 174         V                 1.779760          3.482115
 175         V                 1.791548          3.479366
 176         V                 1.819126          3.437330
 177         V                 1.825299          3.290970
 178         V                 1.876732          3.418505
 179         V                 1.881554          3.777716
 180         V                 1.909369          3.617317
 181         V                 1.925056          3.639323
 182         V                 1.944489          3.747531
 183         V                 1.961926          3.867896
 184         V                 2.012850          3.464249
 185         V                 2.038506          3.818241
 186         V                 2.046264          4.204858
 187         V                 2.086415          3.899120
 188         V                 2.111317          4.480191
 189         V                 2.126970          3.914721
 190         V                 2.155684          4.080248
 191         V                 2.176157          3.655898
 192         V                 2.182149          3.842225
 193         V                 2.211717          3.856447
 194         V                 2.216030          3.861804
 195         V                 2.232153          4.668993
 196         V                 2.262002          4.146113
 197         V                 2.269523          3.914365
 198         V                 2.288785          3.878923
 199         V                 2.322705          5.161153
 200         V                 2.336317          5.378581
 201         V                 2.377917          4.654761
 202         V                 2.452684          4.729912
 203         V                 2.480741          4.899660
 204         V                 2.498716          5.652746
 205         V                 2.512775          5.634166
 206         V                 2.519041          5.027633
 207         V                 2.556171          5.634718
 208         V                 2.583441          6.520501
 209         V                 2.610576          6.758233
 210         V                 2.615144          5.973857
 211         V                 2.623932          6.488603
 212         V                 2.640149          6.714695
 213         V                 2.648524          6.631426
 214         V                 2.672159          6.629003
 215         V                 2.687629          6.454386
 216         V                 2.700132          6.177140
 217         V                 2.707717          6.230249
 218         V                 2.747687          6.853383
 219         V                 2.768583          6.562715
 220         V                 2.787113          6.422561
 221         V                 2.896139          7.030116
 222         V                 2.921522          6.847890
 223         V                 2.964386          7.156553
 224         V                 3.012598          6.627606
 225         V                 3.040573          6.483278
 226         V                 3.067066          6.993746
 227         V                 3.096370          6.914176
 228         V                 3.146131          7.458310
 229         V                 3.436409          7.250544
 230         V                 3.448934          8.312295
 231         V                 3.491412          8.381083
 232         V                 3.544425          7.666632
 233         V                 3.591943          8.061180
 234         V                 3.658711          7.117508
 235         V                 3.680331          8.538793
 236         V                 3.696039          6.970068
 237         V                 3.719510          7.619736
 238         V                 3.740963          5.554496
 239         V                 3.758291          6.015050
 240         V                 3.780501          7.167348
 241         V                 3.809912          8.599781
 242         V                 3.864129          8.798410
 243         V                 3.913253          8.817268
 244         V                 3.927539          8.643256
 245         V                 4.025860          5.566242
 246         V                 4.033413          8.906857
 247         V                 4.079020          6.461629
 248         V                 4.088739          9.310404
 249         V                 4.146460          9.331941
 250         V                 4.204581          9.088530
 251         V                 4.390318          6.663540
 252         V                 4.453145          6.623356
 253         V                 4.463382          6.948014
 254         V                 4.496627          6.561860
 255         V                 4.525162          6.716755
 256         V                 4.819984          6.882286
 257         V                 4.932230          6.793225
 258         V                 4.946375          6.475772
 259         V                 4.984999          6.451394
 260         V                 4.987823          6.480817
 261         V                 4.993560          6.883900
 262         V                 5.001024          6.457203
 263         V                 5.002356          6.565507
 264         V                 5.006843          6.471413
 265         V                 5.007268          6.462408
 266         V                 5.010726          6.477586
 267         V                 5.012950          6.493874
 268         V                 5.016009          6.492399
 269         V                 5.023029          6.473249
 270         V                 5.026752          6.564498
 271         V                 5.029510          6.547716
 272         V                 5.037247          6.591909
 273         V                 5.062978          6.684159
 274         V                 5.075489          6.685757
 275         V                 5.089027          6.794369
 276         V                 5.102385          6.706046
 277         V                 5.117206          6.862537
 278         V                 5.123435          6.899789
 279         V                 5.138148          6.845162
 280         V                 5.142989          6.818547
 281         V                 5.165830          6.871624
 282         V                 5.271729          7.201364
 283         V                 5.301338          7.058390
 284         V                 5.307531          7.066849
 285         V                 5.315864          6.964780
 286         V                 5.337356          6.985449
 287         V                 5.354600          7.750826
 288         V                 5.368685          7.147530
 289         V                 5.387779          7.157687
 290         V                 5.404815          7.185675
 291         V                 5.418719          7.206349
 292         V                 5.438792          7.218118
 293         V                 5.445961          7.229742
 294         V                 5.483840          7.545566
 295         V                 5.782622          8.215396
 296         V                 5.784212          8.170135
 297         V                 5.956117          8.435373
 298         V                 6.007870         10.386048
 299         V                 6.069028          9.215227
 300         V                 6.094085          9.175793
 301         V                 6.103651          9.203180
 302         V                 6.121640          9.267179
 303         V                 6.136485          9.108883
 304         V                 6.145650          9.323700
 305         V                 6.166414          9.299899
 306         V                 6.179070          9.220360
 307         V                 6.183915          9.208943
 308         V                 6.197341          9.138369
 309         V                 6.208003          9.189479
 310         V                 6.217247          9.268208
 311         V                 6.240384          9.309518
 312         V                 6.250689          9.239517
 313         V                 6.266180          9.272572
 314         V                 6.297344          9.300262
 315         V                 6.318714          9.415448
 316         V                 6.379455          9.490892
 317         V                 6.386375          9.457470
 318         V                 6.414907          9.715624
 319         V                 6.429024          9.647155
 320         V                 6.440693          9.674675
 321         V                 6.482250          9.694445
 322         V                 6.494111          9.727647
 323         V                 6.509927          9.692627
 324         V                 6.603099          9.980110
 325         V                 6.626560          9.996581
 326         V                 6.643353          9.079908
 327         V                 6.661669          9.333752
 328         V                 6.690529          9.990127
 329         V                 6.698009         10.029162
 330         V                 6.719039          8.909711
 331         V                 6.744682         10.005667
 332         V                 6.794183         10.361675
 333         V                 6.951733         10.175296
 334         V                 6.978702          9.989887
 335         V                 6.980373         10.048609
 336         V                 7.011628         10.079500
 337         V                 7.021455         10.198897
 338         V                 7.100601         10.767398
 339         V                 7.106311         10.467156
 340         V                 7.125563         10.463105
 341         V                 7.301586         10.185038
 342         V                 7.317889         11.586646
 343         V                 7.408084         10.934720
 344         V                 7.438903         10.985459
 345         V                 7.452961         13.712601
 346         V                 7.512217         13.331963
 347         V                 8.160179         15.793605
 348         V                 8.208521         15.802593
 349         V                 8.323789         15.806118
 350         V                 8.612802         16.088176
 351         V                 8.898941         16.305280
 352         V                29.346376         36.088305
 353         V                29.445265         36.187091
 354         V                29.456708         36.194731
 355         V                31.816012         80.259164
 356         V                43.251649        108.617106
 357         V                43.347314        108.675641
 358         V                43.381935        108.756020
 359         V                43.419187        108.778102
 360         V                43.482399        108.921560
 361         V                43.589808        109.003803
 362         V                43.638584        109.078165
 363         V                54.086754         40.000098
 364         V                70.225187         84.017542
 365         V                70.282620         84.124586
 366         V                70.289426         84.136462
 367         V               142.646893        242.520351
 368         V               142.757201        242.659217
 369         V               142.769562        242.674771
 370         V               202.577266        130.099697
 371         V               626.082992       1034.524994
 Total kinetic energy from orbitals= 7.452909841567D+02
 No NMR shielding tensors so no spin-rotation constants.
 Leave Link  601 at Tue Jul  4 11:38:17 2023, MaxMem=  2147483648 cpu:               3.9 elap:               0.5
 (Enter /home/pcmt/gaussian/g16.C.01/g16/l9999.exe)

 Test job not archived.
 1\1\GINC-U-0-13\SP\RBP86\Gen\H4N1O7Pa1\ROOT\04-Jul-2023\0\\#p BP86/GEN
  Pseudo=Read GFInput GFPrint IOP(6/7=3) Symm=(Loose) Int=(UltraFine) G
 uess=(Harris) SCRF=(COSMORS) Scf=(NoVarAcc,MaxCycle=100,conver=8)\\pa_
 oh4_no3-bp86-cosmors-deftzvp-klamt.com SGP in PCM calculation\\0,1\Pa,
 0,0.4167124446,-0.0690502318,0.0773460286\O,0,1.2349656509,1.548945936
 8,-0.9655724891\H,0,1.3468693198,1.9037911011,-1.8567529221\O,0,-1.404
 4436141,0.9412568768,0.4134184959\H,0,-1.8226503428,1.769461913,0.1502
 523864\O,0,0.0009996409,-1.0925440728,-1.6908153065\H,0,-0.2490650309,
 -1.9004383593,-2.1512608542\O,0,-0.1429170305,-1.6684360585,1.29715716
 34\H,0,-0.8879136457,-2.1656811482,1.6571943638\O,0,2.4814211704,0.099
 3756991,1.5169250423\O,0,2.66343962,-1.2061114366,-0.1936812042\N,0,3.
 2212520042,-0.6933426792,0.836434661\O,0,4.3635032074,-0.9379527434,1.
 1452283407\\Version=ES64L-G16RevC.01\State=1-A\HF=-1025.8544483\RMSD=6
 .233e-09\Dipole=-2.5505299,0.5231691,-0.9296489\Quadrupole=-8.7165657,
 6.2141908,2.502375,3.7568695,-3.3933996,-1.9314587\PG=C01 [X(H4N1O7Pa1
 )]\\@


 BREAD HAS TO MOLD IN ORDER TO GET PENICILLIN.
          -- JERRY BOATZ
 Job cpu time:       0 days  0 hours 33 minutes 10.6 seconds.
 Elapsed time:       0 days  0 hours  4 minutes 13.5 seconds.
 File lengths (MBytes):  RWF=     87 Int=      0 D2E=      0 Chk=     10 Scr=      1
 Normal termination of Gaussian 16 at Tue Jul  4 11:38:17 2023.
