

 Parallel Execution: Process Information
 ==============================================================================
 Rank   Node Name                              NodeID   MyNodeRank  NodeMaster
    0   u-0-10.local                              0          0          0
    1   u-0-10.local                              0          1         -1
    2   u-0-10.local                              0          2         -1
    3   u-0-10.local                              0          3         -1
    4   u-0-10.local                              1          0          1
    5   u-0-10.local                              1          1         -1
    6   u-0-10.local                              1          2         -1
    7   u-0-10.local                              1          3         -1
 ==============================================================================


May use up to 62450MB of RAM as shared memory on node 0
May use up to 124950MB of RAM as shared memory on node 1

 *******************************************************************************
 *                                                                             *
 *  --------------------------------                                           *
 *   Amsterdam Modeling Suite (AMS)              2023.101                      *
 *  --------------------------------                                           *
 *                                               r111868 2023-03-31            *
 *                                                                             *
 *                                                                             *
 *                              =================                              *
 *                              |               |                              *
 *                              |     A M S     |                              *
 *                              |               |                              *
 *                              =================                              *
 *                                                                             *
 *                                                                             *
 *   Online information and documentation:  https://www.scm.com/support/       *
 *   E-mail:  support@scm.com   info@scm.com                                   *
 *                                                                             *
 *   Scientific publications using AMS results must be properly referenced     *
 *   See the User Manuals (or the web site) for recommended citations          *
 *   The terms and conditions of the End User License Agreement apply to       *
 *   the use of AMS, https://www.scm.com/license-terms/                        *
 *                                                                             *
 **********************  x86_64_linux_intel / intelmpi  ************************
 
 Licensed to: Dr. Val?rie Vallet / Laboratoire PhLAM UMR 8523 / Villeneuve d'Ascq Cedex / FRANCE 2023-03-27 15:45:49
 SCM User ID: u10325
  
 AMS 2023.101  RunTime: Nov21-2023 18:18:36  ShM Nodes: 2  Procs: 8

 AMS jobname: pao_oh2_so4_h2o.SR.b3lyp.tz2p.opt-freq-A2-solvation
 AMS jobid  : 1375566643

 Start   directory: /home/shaaban/ams/PhD/sulfate/pao_oh2_so4_h2o/solvation-newgeo/
 Results directory: /home/shaaban/ams/PhD/sulfate/pao_oh2_so4_h2o/solvation-newgeo/pao_oh2_so4_h2o.SR.b3lyp.tz2p.opt-freq-A2-solvation.results/
 Scratch directory: /state/partition2/shaaban/986347.phlam-s-sakura/amstmp_pao_oh2_so4_h2o.SR.b3lyp.tz2p.opt-freq-A2-solvation_kid0.1375566643/


 Communication costs MPI_COMM_WORLD:      1.357 usec per message,   0.0115 usec per 8-byte item
 Communication costs for intra-node:      0.492 usec per message,   0.0057 usec per 8-byte item

 RNG seed: -406132668 -2052466892 520131519 -685943742 -1361027313 1602599373 -682483225 -203493147



                      ************************************************************************
                      *  ADF 2023.101  RunTime: Nov21-2023 18:18:37  ShM Nodes: 2  Procs: 8  *
                      ************************************************************************
  

       ***************************
       *  GEOMETRY OPTIMIZATION  *
       ***************************

Optimization Method                    Quasi Newton
Optimization Coordinates               Delocalized Coordinates
Optimize lattice                       F
 
 ------------------------------------------------------
 Convergence criteria (Hartree,Angstrom)
 ------------------------------------------------------
 Maximum gradient               0.000100000000
 Maximum rms gradient           0.000066666667
 Maximum step allowed           0.001000000000
 Maximum rms step allowed       0.000666666667
 Maximum energy change allowe   0.000014000000
 Maximum stress energy allowe   0.000500000000
 
Initial model Hessian                  Automatic Hessian
 
------------------------------------
Quasi-Newton Optimizer Parameters
------------------------------------
Hessian Update Method                  BFGS
Maximum number of steps                  250
First GDIIS cycle                          0
Maximum GDIIS vectors                      0
Trust radius (bohr)                        0.200000
Trust radius varies                        T
Constraints converged at all steps         T
Use projector                              T
 
 Rigid motions settings for: old optimizer
 Atomic rotations (x,y,z):     T T T
 Atomic translations (x,y,z):  T T T
 Tolerance:                   1.000000000000000E-006
 
--------
Geometry
--------
Formula: H4O8PaS
Atoms
  Index Symbol   x (angstrom)   y (angstrom)   z (angstrom)
      1     Pa     0.41989550    -0.14753771    -0.21981682       adf.R=2.200
      2      O     1.02536731     1.36274637    -1.56785609       adf.R=1.517
      3      O     3.77325233    -1.61723952     1.53679997       adf.R=1.517
      4      O    -1.08674480     1.12529908     0.60755909       adf.R=1.517
      5      H    -1.35855389     2.02056962     0.37275461       adf.R=1.350
      6      O    -0.41964308    -1.22577966    -1.85819641       adf.R=1.517
      7      H    -0.85480627    -2.08287560    -1.93523578       adf.R=1.350
      8      O    -0.16527977    -1.65341401     1.14298842       adf.R=1.517
      9      H     0.02802061    -2.58375787     1.31217252       adf.R=1.350
     10      O     2.32502220     0.32946753     1.13787530       adf.R=1.517
     11      O     2.51256532    -1.29779027    -0.54999149       adf.R=1.517
     12      S     3.36155246    -0.63643846     0.54202459       adf.R=1.792
     13      O     4.46789021     0.10531679    -0.04683769       adf.R=1.517
     14      H    -0.93872265    -0.91337146    -1.11351023       adf.R=1.350
 
Total System Charge            -1.00000
Bonding info available!
 
 
----------------
ADF Engine Input
----------------
 
 Basis
 Type TZ2P
 Core None
 End
 XC
 Hybrid B3LYP
 End
 Solvation
 Surf Delley
 Solv name=Water cav0=0.0 cav1=0.0067639
 Charged method=CONJ
 C-Mat POT
 SCF VAR ALL
 CSMRSP
 End
 NumericalQuality Good
 

 Title: *** (NO TITLE) ***

 Using automatic Hessian for delocalized coordinates.
 *** GO1_GOStep1 ***

 SOLVATION
-------------------------------------------

  The Delley construction of COSMO surface surface is calculated

       Division Level for Surface Triangles (NDIV)                  3
       Final Division Level for Triangles (NFDIV)                   1
       Radius of the Solvent (RSOL)                           1.93000 angstr
  Dielectric Constant (EPSL)                                 78.39000

       COSMO equation is solved iteratively-               conjugate-gradient

       Maximun of Iterations for Charges (NCIX)                  1000
       Criterion for Charge convergence (CCNV)                1.0E-08

  COSMO charges included variationally in SCF

       COSMO included at every SCF cycle

  Geometry-dependent empirical factor                         0.00000

  C-Matrix calculated in cspmtx

  In cspmtx, C-Matrix calculated using fitted potential

-------------------------------------------



 -------------------------------------------
  COSMO surface
  Area             =          601.300
  Volume           =         1034.829
  Number of Points =         1622
 -------------------------------------------



 ======================
 RI Hartree-Fock Scheme
 ======================
  
 Fit Set Quality     : GOOD
 Threshold Quality   : GOOD
 Integration Quality : GOOD
 Fit Generation Method : AUTO
 Response Quality    : DEFAULT
 Is Range Separated  :  F
 
 RIHartreeFock Dependency: number of modified vectors:           6
 cosmo_calcen: 0.5 (esolb+esolc) (Hartrees) =   -0.181872

 Solvation energy (screening term,uncorrected) =   -114.126153 kcal/mol

 Solvation energy (dispersion and cavitation terms) =      1.124384 kcal/mol
 Solvation Energy Contributions (Hartrees)
          esola   esolb+esolc
     0.18187158   -0.36374316
 esol last cycle   -0.18187158
  
 Hartree-Fock exchange energy:   -559.063578899356     
 cosmo_calcen: 0.5 (esolb+esolc) (Hartrees) =   -0.181872

 Solvation energy (screening term,uncorrected) =   -114.126205 kcal/mol

 Solvation energy (dispersion and cavitation terms) =      1.124384 kcal/mol
 Solvation Energy Contributions (Hartrees)
          esola   esolb+esolc
     0.18187167   -0.36374333
 esol last cycle   -0.18187167

 Energy gradients wrt nuclear displacements
 ==========================================

     Atom      Cartesian (a.u./angstrom)
                 X         Y         Z
 ----------------------------------------
     1 Pa   -0.283097 -0.291015 -0.112924
     2 O     0.047411  0.114796 -0.097074
     3 O    -0.001254  0.001719 -0.000249
     4 O     0.008174  0.007921 -0.000640
     5 H    -0.001696  0.000796  0.001831
     6 O     0.064315  0.071719  0.081194
     7 H    -0.004284  0.032855  0.032510
     8 O     0.006215 -0.003838  0.012055
     9 H    -0.001181  0.001421 -0.000819
    10 O    -0.004815  0.004735 -0.002047
    11 O     0.001429  0.003791  0.000521
    12 S     0.007282 -0.006275 -0.001602
    13 O    -0.001354  0.000574  0.000611
    14 H     0.162855  0.060803  0.086633
 ----------------------------------------
 Mulliken charges used for AMS results%charges...
 
----------------------------------------------------------------------
Geometry Convergence after Step   1       (Hartree/Angstrom,Angstrom)
----------------------------------------------------------------------
current energy                               -4.04076179 Hartree
energy change                      -4.04076179     0.00001400    F
constrained gradient max            0.29101390     0.00010000    F
constrained gradient rms            0.07848174     0.00006667    F
gradient max                        0.29101390
gradient rms                        0.07848174
cart. step max                      0.04985678     0.00100000    F
cart. step rms                      0.01714938     0.00066667    F
 
 
--------
Geometry
--------
Formula: H4O8PaS
Atoms
  Index Symbol   x (angstrom)   y (angstrom)   z (angstrom)
      1     Pa     0.43326463    -0.13665367    -0.20905277       adf.R=2.200
      2      O     1.01868906     1.33063104    -1.53020280       adf.R=1.517
      3      O     3.78719994    -1.60981310     1.54345765       adf.R=1.517
      4      O    -1.07813983     1.13292240     0.61366363       adf.R=1.517
      5      H    -1.34832203     2.02718467     0.37424328       adf.R=1.350
      6      O    -0.44496195    -1.24187624    -1.88029638       adf.R=1.517
      7      H    -0.88887302    -2.10322927    -1.98509256       adf.R=1.350
      8      O    -0.16169222    -1.64291297     1.14508335       adf.R=1.517
      9      H     0.02742396    -2.57520103     1.31166819       adf.R=1.350
     10      O     2.34142037     0.33891730     1.14643877       adf.R=1.517
     11      O     2.52359108    -1.29002119    -0.54239129       adf.R=1.517
     12      S     3.37439964    -0.62840183     0.54895717       adf.R=1.792
     13      O     4.48161925     0.11109086    -0.04191477       adf.R=1.517
     14      H    -0.97580341    -0.92744215    -1.13383149       adf.R=1.350
 
Total System Charge            -1.00000
Bonding info available!
 
 *** GO1_GOStep2 ***

 SOLVATION
-------------------------------------------

  The Delley construction of COSMO surface surface is calculated

       Division Level for Surface Triangles (NDIV)                  3
       Final Division Level for Triangles (NFDIV)                   1
       Radius of the Solvent (RSOL)                           1.93000 angstr
  Dielectric Constant (EPSL)                                 78.39000

       COSMO equation is solved iteratively-               conjugate-gradient

       Maximun of Iterations for Charges (NCIX)                  1000
       Criterion for Charge convergence (CCNV)                1.0E-08

  COSMO charges included variationally in SCF

       COSMO included at every SCF cycle

  Geometry-dependent empirical factor                         0.00000

  C-Matrix calculated in cspmtx

  In cspmtx, C-Matrix calculated using fitted potential

-------------------------------------------



 -------------------------------------------
  COSMO surface
  Area             =          602.430
  Volume           =         1035.977
  Number of Points =         1630
 -------------------------------------------



 ======================
 RI Hartree-Fock Scheme
 ======================
  
 Fit Set Quality     : GOOD
 Threshold Quality   : GOOD
 Integration Quality : GOOD
 Fit Generation Method : AUTO
 Response Quality    : DEFAULT
 Is Range Separated  :  F
 
 RIHartreeFock Dependency: number of modified vectors:           6
 cosmo_calcen: 0.5 (esolb+esolc) (Hartrees) =   -0.175843

 Solvation energy (screening term,uncorrected) =   -110.342948 kcal/mol

 Solvation energy (dispersion and cavitation terms) =      1.126498 kcal/mol
 Solvation Energy Contributions (Hartrees)
          esola   esolb+esolc
     0.17584266   -0.35168532
 esol last cycle   -0.17584266
  
 Hartree-Fock exchange energy:   -559.068974501501     
 cosmo_calcen: 0.5 (esolb+esolc) (Hartrees) =   -0.175843

 Solvation energy (screening term,uncorrected) =   -110.342989 kcal/mol

 Solvation energy (dispersion and cavitation terms) =      1.126498 kcal/mol
 Solvation Energy Contributions (Hartrees)
          esola   esolb+esolc
     0.17584273   -0.35168545
 esol last cycle   -0.17584273

 Energy gradients wrt nuclear displacements
 ==========================================

     Atom      Cartesian (a.u./angstrom)
                 X         Y         Z
 ----------------------------------------
     1 Pa   -0.237077 -0.241397 -0.074554
     2 O     0.041399  0.100220 -0.085019
     3 O    -0.001161  0.001379 -0.000119
     4 O     0.010277  0.005649 -0.002293
     5 H    -0.001610  0.000434  0.001701
     6 O     0.064511  0.063717  0.049279
     7 H    -0.012927  0.011769  0.024759
     8 O     0.006475 -0.000618  0.008552
     9 H    -0.001027  0.000419 -0.000590
    10 O    -0.005128  0.004562 -0.002583
    11 O    -0.001427  0.003422 -0.001213
    12 S     0.007595 -0.004463 -0.000231
    13 O    -0.001432  0.000325  0.000585
    14 H     0.131533  0.054582  0.081728
 ----------------------------------------
 Mulliken charges used for AMS results%charges...

 dE(predicted):    -0.20889E-01, dE(actual):    -0.28520E-01, Trust radius:    0.400000, all in a.u.
 
----------------------------------------------------------------------
Geometry Convergence after Step   2       (Hartree/Angstrom,Angstrom)
----------------------------------------------------------------------
current energy                               -4.06928193 Hartree
energy change                      -0.02852015     0.00001400    F
constrained gradient max            0.24139526     0.00010000    F
constrained gradient rms            0.06509487     0.00006667    F
gradient max                        0.24139526
gradient rms                        0.06509487
cart. step max                      0.08302857     0.00100000    F
cart. step rms                      0.03337822     0.00066667    F
 
 
--------
Geometry
--------
Formula: H4O8PaS
Atoms
  Index Symbol   x (angstrom)   y (angstrom)   z (angstrom)
      1     Pa     0.46003680    -0.11853541    -0.19225506       adf.R=2.200
      2      O     1.00306996     1.25697213    -1.44870080       adf.R=1.517
      3      O     3.81542469    -1.59452683     1.55664315       adf.R=1.517
      4      O    -1.06409131     1.14704119     0.62151452       adf.R=1.517
      5      H    -1.33041961     2.03940464     0.37212194       adf.R=1.350
      6      O    -0.49755668    -1.27032543    -1.92229247       adf.R=1.517
      7      H    -0.95300396    -2.12171397    -2.06812113       adf.R=1.350
      8      O    -0.15376895    -1.62488086     1.14938196       adf.R=1.517
      9      H     0.02780552    -2.55978799     1.31196316       adf.R=1.350
     10      O     2.37337523     0.35629174     1.16133332       adf.R=1.517
     11      O     2.54966066    -1.27596730    -0.52806181       adf.R=1.517
     12      S     3.40028966    -0.61299260     0.56169581       adf.R=1.792
     13      O     4.50931507     0.12372216    -0.03188599       adf.R=1.517
     14      H    -1.05032160    -0.95950665    -1.18260661       adf.R=1.350
 
Total System Charge            -1.00000
Bonding info available!
 
 *** GO1_GOStep3 ***

 SOLVATION
-------------------------------------------

  The Delley construction of COSMO surface surface is calculated

       Division Level for Surface Triangles (NDIV)                  3
       Final Division Level for Triangles (NFDIV)                   1
       Radius of the Solvent (RSOL)                           1.93000 angstr
  Dielectric Constant (EPSL)                                 78.39000

       COSMO equation is solved iteratively-               conjugate-gradient

       Maximun of Iterations for Charges (NCIX)                  1000
       Criterion for Charge convergence (CCNV)                1.0E-08

  COSMO charges included variationally in SCF

       COSMO included at every SCF cycle

  Geometry-dependent empirical factor                         0.00000

  C-Matrix calculated in cspmtx

  In cspmtx, C-Matrix calculated using fitted potential

-------------------------------------------



 -------------------------------------------
  COSMO surface
  Area             =          602.598
  Volume           =         1034.559
  Number of Points =         1632
 -------------------------------------------



 ======================
 RI Hartree-Fock Scheme
 ======================
  
 Fit Set Quality     : GOOD
 Threshold Quality   : GOOD
 Integration Quality : GOOD
 Fit Generation Method : AUTO
 Response Quality    : DEFAULT
 Is Range Separated  :  F
 
 RIHartreeFock Dependency: number of modified vectors:           5
 cosmo_calcen: 0.5 (esolb+esolc) (Hartrees) =   -0.164652

 Solvation energy (screening term,uncorrected) =   -103.320533 kcal/mol

 Solvation energy (dispersion and cavitation terms) =      1.126811 kcal/mol
 Solvation Energy Contributions (Hartrees)
          esola   esolb+esolc
     0.16465173   -0.32930347
 esol last cycle   -0.16465173
  
 Hartree-Fock exchange energy:   -559.116528893031     
 cosmo_calcen: 0.5 (esolb+esolc) (Hartrees) =   -0.164652

 Solvation energy (screening term,uncorrected) =   -103.320553 kcal/mol

 Solvation energy (dispersion and cavitation terms) =      1.126811 kcal/mol
 Solvation Energy Contributions (Hartrees)
          esola   esolb+esolc
     0.16465176   -0.32930353
 esol last cycle   -0.16465176

 Energy gradients wrt nuclear displacements
 ==========================================

     Atom      Cartesian (a.u./angstrom)
                 X         Y         Z
 ----------------------------------------
     1 Pa   -0.155066 -0.138675 -0.049237
     2 O     0.020016  0.047201 -0.038030
     3 O    -0.001385  0.001065 -0.000260
     4 O     0.015016  0.000087 -0.005529
     5 H    -0.001514  0.000260  0.001270
     6 O     0.052845  0.038784  0.013632
     7 H    -0.016669  0.004262  0.017636
     8 O     0.007602  0.004400  0.002098
     9 H    -0.001087 -0.000379 -0.000196
    10 O    -0.006650  0.003808 -0.004219
    11 O    -0.006850  0.003947 -0.002880
    12 S     0.007719 -0.002228  0.001688
    13 O    -0.001694 -0.000036  0.000379
    14 H     0.087716  0.037504  0.063648
 ----------------------------------------
 Mulliken charges used for AMS results%charges...

 dE(predicted):    -0.40052E-01, dE(actual):    -0.41088E-01, Trust radius:    0.800000, all in a.u.
 
----------------------------------------------------------------------
Geometry Convergence after Step   3       (Hartree/Angstrom,Angstrom)
----------------------------------------------------------------------
current energy                               -4.11036960 Hartree
energy change                      -0.04108767     0.00001400    F
constrained gradient max            0.15506623     0.00010000    F
constrained gradient rms            0.04040874     0.00006667    F
gradient max                        0.15506623
gradient rms                        0.04040874
cart. step max                      0.12579237     0.00100000    F
cart. step rms                      0.04737928     0.00066667    F
 
 
--------
Geometry
--------
Formula: H4O8PaS
Atoms
  Index Symbol   x (angstrom)   y (angstrom)   z (angstrom)
      1     Pa     0.50528981    -0.08448768    -0.16990219       adf.R=2.200
      2      O     0.98704494     1.16114082    -1.35530221       adf.R=1.517
      3      O     3.86646728    -1.57569776     1.57423119       adf.R=1.517
      4      O    -1.05776711     1.16477477     0.63879023       adf.R=1.517
      5      H    -1.31629473     2.05613443     0.37986334       adf.R=1.350
      6      O    -0.58526834    -1.31511586    -1.96842818       adf.R=1.517
      7      H    -1.02396293    -2.15873182    -2.17129209       adf.R=1.350
      8      O    -0.15572317    -1.59731152     1.14702014       adf.R=1.517
      9      H     0.01501502    -2.53551494     1.30155291       adf.R=1.350
     10      O     2.43027311     0.37869956     1.18768278       adf.R=1.517
     11      O     2.59751010    -1.25679876    -0.50410569       adf.R=1.517
     12      S     3.44448125    -0.59234133     0.58085489       adf.R=1.792
     13      O     4.55886423     0.13892511    -0.01556349       adf.R=1.517
     14      H    -1.17611398    -0.99848020    -1.26467166       adf.R=1.350
 
Total System Charge            -1.00000
Bonding info available!
 
 *** GO1_GOStep4 ***

 SOLVATION
-------------------------------------------

  The Delley construction of COSMO surface surface is calculated

       Division Level for Surface Triangles (NDIV)                  3
       Final Division Level for Triangles (NFDIV)                   1
       Radius of the Solvent (RSOL)                           1.93000 angstr
  Dielectric Constant (EPSL)                                 78.39000

       COSMO equation is solved iteratively-               conjugate-gradient

       Maximun of Iterations for Charges (NCIX)                  1000
       Criterion for Charge convergence (CCNV)                1.0E-08

  COSMO charges included variationally in SCF

       COSMO included at every SCF cycle

  Geometry-dependent empirical factor                         0.00000

  C-Matrix calculated in cspmtx

  In cspmtx, C-Matrix calculated using fitted potential

-------------------------------------------



 -------------------------------------------
  COSMO surface
  Area             =          606.237
  Volume           =         1037.513
  Number of Points =         1637
 -------------------------------------------



 ======================
 RI Hartree-Fock Scheme
 ======================
  
 Fit Set Quality     : GOOD
 Threshold Quality   : GOOD
 Integration Quality : GOOD
 Fit Generation Method : AUTO
 Response Quality    : DEFAULT
 Is Range Separated  :  F
 
 RIHartreeFock Dependency: number of modified vectors:           5
 cosmo_calcen: 0.5 (esolb+esolc) (Hartrees) =   -0.152907

 Solvation energy (screening term,uncorrected) =    -95.950562 kcal/mol

 Solvation energy (dispersion and cavitation terms) =      1.133615 kcal/mol
 Solvation Energy Contributions (Hartrees)
          esola   esolb+esolc
     0.15290694   -0.30581387
 esol last cycle   -0.15290694
  
 Hartree-Fock exchange energy:   -559.214851358387     
 cosmo_calcen: 0.5 (esolb+esolc) (Hartrees) =   -0.152907

 Solvation energy (screening term,uncorrected) =    -95.950568 kcal/mol

 Solvation energy (dispersion and cavitation terms) =      1.133615 kcal/mol
 Solvation Energy Contributions (Hartrees)
          esola   esolb+esolc
     0.15290695   -0.30581389
 esol last cycle   -0.15290695

 Energy gradients wrt nuclear displacements
 ==========================================

     Atom      Cartesian (a.u./angstrom)
                 X         Y         Z
 ----------------------------------------
     1 Pa   -0.038477  0.044703 -0.109437
     2 O    -0.031739 -0.085865  0.084285
     3 O    -0.000855  0.000473 -0.000818
     4 O     0.017007 -0.005416 -0.006577
     5 H    -0.000888 -0.000366  0.000945
     6 O     0.027782  0.010313 -0.005967
     7 H    -0.013990  0.004226  0.009160
     8 O     0.007206  0.006295 -0.003371
     9 H    -0.001505 -0.000576  0.000560
    10 O    -0.006685  0.000940 -0.005618
    11 O    -0.010386  0.005038 -0.001467
    12 S     0.000702  0.001802  0.001641
    13 O    -0.000480 -0.000879  0.000125
    14 H     0.052308  0.019311  0.036542
 ----------------------------------------
 Mulliken charges used for AMS results%charges...

 dE(predicted):    -0.23652E-01, dE(actual):    -0.24895E-01, Trust radius:    1.000000, all in a.u.
 
----------------------------------------------------------------------
Geometry Convergence after Step   4       (Hartree/Angstrom,Angstrom)
----------------------------------------------------------------------
current energy                               -4.13526468 Hartree
energy change                      -0.02489508     0.00001400    F
constrained gradient max            0.10943285     0.00010000    F
constrained gradient rms            0.02979528     0.00006667    F
gradient max                        0.10943285
gradient rms                        0.02979528
cart. step max                      0.04969624     0.00100000    F
cart. step rms                      0.01509724     0.00066667    F
 
 
--------
Geometry
--------
Formula: H4O8PaS
Atoms
  Index Symbol   x (angstrom)   y (angstrom)   z (angstrom)
      1     Pa     0.51948448    -0.07251648    -0.16097412       adf.R=2.200
      2      O     0.99943559     1.18617723    -1.38138507       adf.R=1.517
      3      O     3.88533547    -1.57761295     1.57999458       adf.R=1.517
      4      O    -1.06738686     1.16564125     0.64977053       adf.R=1.517
      5      H    -1.32362110     2.05743834     0.38967898       adf.R=1.350
      6      O    -0.61667305    -1.33010235    -1.96662475       adf.R=1.517
      7      H    -1.02317719    -2.18471361    -2.18084822       adf.R=1.350
      8      O    -0.16480502    -1.59337143     1.14182540       adf.R=1.517
      9      H     0.00609429    -2.53233838     1.28982903       adf.R=1.350
     10      O     2.45147549     0.37865279     1.20106914       adf.R=1.517
     11      O     2.61420677    -1.25547697    -0.49504183       adf.R=1.517
     12      S     3.45997778    -0.59255447     0.58842114       adf.R=1.792
     13      O     4.57527903     0.13897849    -0.00812650       adf.R=1.517
     14      H    -1.22581022    -1.00300664    -1.28685833       adf.R=1.350
 
Total System Charge            -1.00000
Bonding info available!
 
 *** GO1_GOStep5 ***

 SOLVATION
-------------------------------------------

  The Delley construction of COSMO surface surface is calculated

       Division Level for Surface Triangles (NDIV)                  3
       Final Division Level for Triangles (NFDIV)                   1
       Radius of the Solvent (RSOL)                           1.93000 angstr
  Dielectric Constant (EPSL)                                 78.39000

       COSMO equation is solved iteratively-               conjugate-gradient

       Maximun of Iterations for Charges (NCIX)                  1000
       Criterion for Charge convergence (CCNV)                1.0E-08

  COSMO charges included variationally in SCF

       COSMO included at every SCF cycle

  Geometry-dependent empirical factor                         0.00000

  C-Matrix calculated in cspmtx

  In cspmtx, C-Matrix calculated using fitted potential

-------------------------------------------



 -------------------------------------------
  COSMO surface
  Area             =          608.114
  Volume           =         1041.347
  Number of Points =         1640
 -------------------------------------------



 ======================
 RI Hartree-Fock Scheme
 ======================
  
 Fit Set Quality     : GOOD
 Threshold Quality   : GOOD
 Integration Quality : GOOD
 Fit Generation Method : AUTO
 Response Quality    : DEFAULT
 Is Range Separated  :  F
 
 RIHartreeFock Dependency: number of modified vectors:           5
 cosmo_calcen: 0.5 (esolb+esolc) (Hartrees) =   -0.152858

 Solvation energy (screening term,uncorrected) =    -95.920139 kcal/mol

 Solvation energy (dispersion and cavitation terms) =      1.137127 kcal/mol
 Solvation Energy Contributions (Hartrees)
          esola   esolb+esolc
     0.15285846   -0.30571691
 esol last cycle   -0.15285846
  
 Hartree-Fock exchange energy:   -559.175523498927     
 cosmo_calcen: 0.5 (esolb+esolc) (Hartrees) =   -0.152858

 Solvation energy (screening term,uncorrected) =    -95.920156 kcal/mol

 Solvation energy (dispersion and cavitation terms) =      1.137127 kcal/mol
 Solvation Energy Contributions (Hartrees)
          esola   esolb+esolc
     0.15285848   -0.30571697
 esol last cycle   -0.15285848

 Energy gradients wrt nuclear displacements
 ==========================================

     Atom      Cartesian (a.u./angstrom)
                 X         Y         Z
 ----------------------------------------
     1 Pa   -0.036236  0.016850 -0.070245
     2 O    -0.016702 -0.047305  0.047668
     3 O     0.000398 -0.000557  0.000345
     4 O     0.008534  0.000600 -0.002249
     5 H    -0.001040 -0.000402  0.001261
     6 O     0.015466  0.000828 -0.008259
     7 H    -0.011020  0.004555  0.005071
     8 O     0.004189  0.001462 -0.000101
     9 H    -0.001582  0.000069  0.000480
    10 O    -0.000422  0.000272 -0.003119
    11 O    -0.003915  0.003780 -0.000078
    12 S    -0.007789  0.002676 -0.000969
    13 O     0.001301 -0.000214 -0.000202
    14 H     0.048817  0.017386  0.030397
 ----------------------------------------
 Mulliken charges used for AMS results%charges...

 dE(predicted):    -0.55744E-02, dE(actual):    -0.94875E-02, Trust radius:    1.000000, all in a.u.
 
----------------------------------------------------------------------
Geometry Convergence after Step   5       (Hartree/Angstrom,Angstrom)
----------------------------------------------------------------------
current energy                               -4.14475217 Hartree
energy change                      -0.00948749     0.00001400    F
constrained gradient max            0.07024181     0.00010000    F
constrained gradient rms            0.01928470     0.00006667    F
gradient max                        0.07024181
gradient rms                        0.01928470
cart. step max                      0.18025001     0.00100000    F
cart. step rms                      0.04591231     0.00066667    F
 
 
--------
Geometry
--------
Formula: H4O8PaS
Atoms
  Index Symbol   x (angstrom)   y (angstrom)   z (angstrom)
      1     Pa     0.56571544    -0.03626635    -0.13148790       adf.R=2.200
      2      O     1.02243466     1.22863460    -1.41835500       adf.R=1.517
      3      O     3.94461053    -1.58122893     1.59986032       adf.R=1.517
      4      O    -1.09018733     1.16355385     0.66795236       adf.R=1.517
      5      H    -1.33119483     2.05607640     0.39412557       adf.R=1.350
      6      O    -0.72368354    -1.36245155    -1.96032614       adf.R=1.517
      7      H    -1.02167593    -2.25199476    -2.19148565       adf.R=1.350
      8      O    -0.18300552    -1.58069744     1.11884433       adf.R=1.517
      9      H    -0.00579471    -2.52229810     1.24157497       adf.R=1.350
     10      O     2.51399173     0.37910954     1.24240936       adf.R=1.517
     11      O     2.66628468    -1.24803798    -0.46682396       adf.R=1.517
     12      S     3.51311533    -0.59154558     0.61465475       adf.R=1.792
     13      O     4.62526520     0.14491584     0.01695916       adf.R=1.517
     14      H    -1.40606023    -1.01257472    -1.36717218       adf.R=1.350
 
Total System Charge            -1.00000
Bonding info available!
 
 *** GO1_GOStep6 ***

 SOLVATION
-------------------------------------------

  The Delley construction of COSMO surface surface is calculated

       Division Level for Surface Triangles (NDIV)                  3
       Final Division Level for Triangles (NFDIV)                   1
       Radius of the Solvent (RSOL)                           1.93000 angstr
  Dielectric Constant (EPSL)                                 78.39000

       COSMO equation is solved iteratively-               conjugate-gradient

       Maximun of Iterations for Charges (NCIX)                  1000
       Criterion for Charge convergence (CCNV)                1.0E-08

  COSMO charges included variationally in SCF

       COSMO included at every SCF cycle

  Geometry-dependent empirical factor                         0.00000

  C-Matrix calculated in cspmtx

  In cspmtx, C-Matrix calculated using fitted potential

-------------------------------------------



 -------------------------------------------
  COSMO surface
  Area             =          615.715
  Volume           =         1056.484
  Number of Points =         1655
 -------------------------------------------



 ======================
 RI Hartree-Fock Scheme
 ======================
  
 Fit Set Quality     : GOOD
 Threshold Quality   : GOOD
 Integration Quality : GOOD
 Fit Generation Method : AUTO
 Response Quality    : DEFAULT
 Is Range Separated  :  F
 
 RIHartreeFock Dependency: number of modified vectors:           5
 cosmo_calcen: 0.5 (esolb+esolc) (Hartrees) =   -0.150971

 Solvation energy (screening term,uncorrected) =    -94.735808 kcal/mol

 Solvation energy (dispersion and cavitation terms) =      1.151339 kcal/mol
 Solvation Energy Contributions (Hartrees)
          esola   esolb+esolc
     0.15097110   -0.30194221
 esol last cycle   -0.15097110
  
 Hartree-Fock exchange energy:   -559.112131177478     
 cosmo_calcen: 0.5 (esolb+esolc) (Hartrees) =   -0.150971

 Solvation energy (screening term,uncorrected) =    -94.735857 kcal/mol

 Solvation energy (dispersion and cavitation terms) =      1.151339 kcal/mol
 Solvation Energy Contributions (Hartrees)
          esola   esolb+esolc
     0.15097118   -0.30194236
 esol last cycle   -0.15097118

 Energy gradients wrt nuclear displacements
 ==========================================

     Atom      Cartesian (a.u./angstrom)
                 X         Y         Z
 ----------------------------------------
     1 Pa   -0.013939 -0.002949 -0.016692
     2 O    -0.000231 -0.002289  0.002250
     3 O     0.001357 -0.001344  0.001576
     4 O    -0.006818  0.008708  0.005509
     5 H    -0.001031 -0.000135  0.001364
     6 O    -0.003932 -0.022545 -0.015855
     7 H    -0.003677  0.004602 -0.003597
     8 O    -0.002714 -0.005515  0.003416
     9 H    -0.001472  0.000224  0.000460
    10 O     0.009099 -0.000122  0.001820
    11 O     0.006548  0.001219  0.002055
    12 S    -0.015982  0.002100 -0.004531
    13 O     0.001971  0.000665 -0.000448
    14 H     0.030821  0.017381  0.022672
 ----------------------------------------
 Mulliken charges used for AMS results%charges...
 Rebuilding optimization coordinates

 dE(predicted):    -0.11581E-01, dE(actual):    -0.14754E-01, Trust radius:    1.000000, all in a.u.
 
----------------------------------------------------------------------
Geometry Convergence after Step   6       (Hartree/Angstrom,Angstrom)
----------------------------------------------------------------------
current energy                               -4.15950575 Hartree
energy change                      -0.01475358     0.00001400    F
constrained gradient max            0.03083742     0.00010000    F
constrained gradient rms            0.00940358     0.00006667    F
gradient max                        0.03083742
gradient rms                        0.00940358
cart. step max                      0.14803924     0.00100000    F
cart. step rms                      0.03391369     0.00066667    F
 
 
--------
Geometry
--------
Formula: H4O8PaS
Atoms
  Index Symbol   x (angstrom)   y (angstrom)   z (angstrom)
      1     Pa     0.59262546    -0.01482405    -0.11018554       adf.R=2.200
      2      O     1.03053556     1.24967302    -1.42579337       adf.R=1.517
      3      O     3.98155582    -1.58824236     1.61060607       adf.R=1.517
      4      O    -1.10418187     1.15633961     0.66587733       adf.R=1.517
      5      H    -1.32785982     2.04824612     0.37434932       adf.R=1.350
      6      O    -0.80965464    -1.36234660    -1.94670151       adf.R=1.517
      7      H    -0.98724886    -2.28406156    -2.17144588       adf.R=1.350
      8      O    -0.18415204    -1.57410298     1.10282679       adf.R=1.517
      9      H     0.00867542    -2.51513721     1.20699527       adf.R=1.350
     10      O     2.54736571     0.37375000     1.27004721       adf.R=1.517
     11      O     2.69429342    -1.24416020    -0.44927045       adf.R=1.517
     12      S     3.54719268    -0.59397842     0.63248779       adf.R=1.792
     13      O     4.65476812     0.14759025     0.03390484       adf.R=1.517
     14      H    -1.55409947    -1.01355079    -1.43296787       adf.R=1.350
 
Total System Charge            -1.00000
Bonding info available!
 
 *** GO1_GOStep7 ***

 SOLVATION
-------------------------------------------

  The Delley construction of COSMO surface surface is calculated

       Division Level for Surface Triangles (NDIV)                  3
       Final Division Level for Triangles (NFDIV)                   1
       Radius of the Solvent (RSOL)                           1.93000 angstr
  Dielectric Constant (EPSL)                                 78.39000

       COSMO equation is solved iteratively-               conjugate-gradient

       Maximun of Iterations for Charges (NCIX)                  1000
       Criterion for Charge convergence (CCNV)                1.0E-08

  COSMO charges included variationally in SCF

       COSMO included at every SCF cycle

  Geometry-dependent empirical factor                         0.00000

  C-Matrix calculated in cspmtx

  In cspmtx, C-Matrix calculated using fitted potential

-------------------------------------------



 -------------------------------------------
  COSMO surface
  Area             =          619.930
  Volume           =         1064.158
  Number of Points =         1652
 -------------------------------------------



 ======================
 RI Hartree-Fock Scheme
 ======================
  
 Fit Set Quality     : GOOD
 Threshold Quality   : GOOD
 Integration Quality : GOOD
 Fit Generation Method : AUTO
 Response Quality    : DEFAULT
 Is Range Separated  :  F
 
 RIHartreeFock Dependency: number of modified vectors:           5
 cosmo_calcen: 0.5 (esolb+esolc) (Hartrees) =   -0.149783

 Solvation energy (screening term,uncorrected) =    -93.990119 kcal/mol

 Solvation energy (dispersion and cavitation terms) =      1.159222 kcal/mol
 Solvation Energy Contributions (Hartrees)
          esola   esolb+esolc
     0.14978277   -0.29956555
 esol last cycle   -0.14978277
  
 Hartree-Fock exchange energy:   -559.088706885887     
 cosmo_calcen: 0.5 (esolb+esolc) (Hartrees) =   -0.149783

 Solvation energy (screening term,uncorrected) =    -93.990195 kcal/mol

 Solvation energy (dispersion and cavitation terms) =      1.159222 kcal/mol
 Solvation Energy Contributions (Hartrees)
          esola   esolb+esolc
     0.14978289   -0.29956579
 esol last cycle   -0.14978289

 Energy gradients wrt nuclear displacements
 ==========================================

     Atom      Cartesian (a.u./angstrom)
                 X         Y         Z
 ----------------------------------------
     1 Pa   -0.002445 -0.005431  0.003064
     2 O     0.003366  0.010267 -0.011612
     3 O     0.000782 -0.000908  0.001061
     4 O    -0.011331  0.009151  0.007369
     5 H    -0.000585  0.000117  0.000912
     6 O    -0.014416 -0.032494 -0.015119
     7 H     0.003747  0.001536 -0.008630
     8 O    -0.005352 -0.005778  0.002388
     9 H    -0.001158  0.000051  0.000175
    10 O     0.008677  0.000613  0.003690
    11 O     0.007810 -0.000478  0.001548
    12 S    -0.010601  0.000499 -0.003723
    13 O     0.001291  0.000618 -0.000535
    14 H     0.020214  0.022238  0.019413
 ----------------------------------------
 Mulliken charges used for AMS results%charges...

 dE(predicted):    -0.35322E-02, dE(actual):    -0.52948E-02, Trust radius:    1.000000, all in a.u.
 
----------------------------------------------------------------------
Geometry Convergence after Step   7       (Hartree/Angstrom,Angstrom)
----------------------------------------------------------------------
current energy                               -4.16480057 Hartree
energy change                      -0.00529482     0.00001400    F
constrained gradient max            0.03244929     0.00010000    F
constrained gradient rms            0.00948751     0.00006667    F
gradient max                        0.03244929
gradient rms                        0.00948751
cart. step max                      0.05721471     0.00100000    F
cart. step rms                      0.01317853     0.00066667    F
 
 
--------
Geometry
--------
Formula: H4O8PaS
Atoms
  Index Symbol   x (angstrom)   y (angstrom)   z (angstrom)
      1     Pa     0.59863569    -0.01089580    -0.10300709       adf.R=2.200
      2      O     1.03194461     1.25231547    -1.41963686       adf.R=1.517
      3      O     3.99135628    -1.59165816     1.61456988       adf.R=1.517
      4      O    -1.10815856     1.15069737     0.65705465       adf.R=1.517
      5      H    -1.32473348     2.04095607     0.35491187       adf.R=1.350
      6      O    -0.84078411    -1.34957804    -1.94232860       adf.R=1.517
      7      H    -0.97574471    -2.27896146    -2.16346352       adf.R=1.350
      8      O    -0.17351768    -1.57368761     1.10406923       adf.R=1.517
      9      H     0.03218118    -2.51246129     1.20478458       adf.R=1.350
     10      O     2.55332044     0.36948478     1.27807426       adf.R=1.517
     11      O     2.69947935    -1.24459256    -0.44324462       adf.R=1.517
     12      S     3.55581311    -0.59629820     0.63874884       adf.R=1.792
     13      O     4.66133752     0.14753358     0.04016387       adf.R=1.517
     14      H    -1.61131418    -1.01765931    -1.45996649       adf.R=1.350
 
Total System Charge            -1.00000
Bonding info available!
 
 *** GO1_GOStep8 ***

 SOLVATION
-------------------------------------------

  The Delley construction of COSMO surface surface is calculated

       Division Level for Surface Triangles (NDIV)                  3
       Final Division Level for Triangles (NFDIV)                   1
       Radius of the Solvent (RSOL)                           1.93000 angstr
  Dielectric Constant (EPSL)                                 78.39000

       COSMO equation is solved iteratively-               conjugate-gradient

       Maximun of Iterations for Charges (NCIX)                  1000
       Criterion for Charge convergence (CCNV)                1.0E-08

  COSMO charges included variationally in SCF

       COSMO included at every SCF cycle

  Geometry-dependent empirical factor                         0.00000

  C-Matrix calculated in cspmtx

  In cspmtx, C-Matrix calculated using fitted potential

-------------------------------------------



 -------------------------------------------
  COSMO surface
  Area             =          619.432
  Volume           =         1064.099
  Number of Points =         1649
 -------------------------------------------



 ======================
 RI Hartree-Fock Scheme
 ======================
  
 Fit Set Quality     : GOOD
 Threshold Quality   : GOOD
 Integration Quality : GOOD
 Fit Generation Method : AUTO
 Response Quality    : DEFAULT
 Is Range Separated  :  F
 
 RIHartreeFock Dependency: number of modified vectors:           5
 cosmo_calcen: 0.5 (esolb+esolc) (Hartrees) =   -0.149540

 Solvation energy (screening term,uncorrected) =    -93.837478 kcal/mol

 Solvation energy (dispersion and cavitation terms) =      1.158290 kcal/mol
 Solvation Energy Contributions (Hartrees)
          esola   esolb+esolc
     0.14953952   -0.29907905
 esol last cycle   -0.14953952
  
 Hartree-Fock exchange energy:   -559.090588180980     
 cosmo_calcen: 0.5 (esolb+esolc) (Hartrees) =   -0.149540

 Solvation energy (screening term,uncorrected) =    -93.837491 kcal/mol

 Solvation energy (dispersion and cavitation terms) =      1.158290 kcal/mol
 Solvation Energy Contributions (Hartrees)
          esola   esolb+esolc
     0.14953954   -0.29907909
 esol last cycle   -0.14953954

 Energy gradients wrt nuclear displacements
 ==========================================

     Atom      Cartesian (a.u./angstrom)
                 X         Y         Z
 ----------------------------------------
     1 Pa    0.000238 -0.002045  0.005567
     2 O     0.002416  0.008606 -0.010084
     3 O     0.000453 -0.000562  0.000688
     4 O    -0.010276  0.007611  0.006601
     5 H    -0.000208  0.000188  0.000584
     6 O    -0.017276 -0.032157 -0.013662
     7 H     0.005074  0.001664 -0.008495
     8 O    -0.004910 -0.004252  0.001173
     9 H    -0.000996  0.000001 -0.000039
    10 O     0.006620  0.000748  0.003442
    11 O     0.005939 -0.000793  0.000883
    12 S    -0.005963 -0.000018 -0.002518
    13 O     0.000772  0.000448 -0.000366
    14 H     0.018117  0.020561  0.016224
 ----------------------------------------
 Mulliken charges used for AMS results%charges...

 dE(predicted):    -0.10028E-02, dE(actual):    -0.18847E-02, Trust radius:    1.000000, all in a.u.
 
----------------------------------------------------------------------
Geometry Convergence after Step   8       (Hartree/Angstrom,Angstrom)
----------------------------------------------------------------------
current energy                               -4.16668525 Hartree
energy change                      -0.00188468     0.00001400    F
constrained gradient max            0.03211371     0.00010000    F
constrained gradient rms            0.00878255     0.00006667    F
gradient max                        0.03211371
gradient rms                        0.00878255
cart. step max                      0.21189748     0.00100000    F
cart. step rms                      0.05465411     0.00066667    F
 
 
--------
Geometry
--------
Formula: H4O8PaS
Atoms
  Index Symbol   x (angstrom)   y (angstrom)   z (angstrom)
      1     Pa     0.61149057    -0.00886724    -0.08209783       adf.R=2.200
      2      O     1.03952056     1.25504451    -1.38813138       adf.R=1.517
      3      O     4.01484604    -1.60616037     1.63031697       adf.R=1.517
      4      O    -1.12138855     1.11986220     0.60566577       adf.R=1.517
      5      H    -1.31470256     1.99949840     0.25888534       adf.R=1.350
      6      O    -0.95275287    -1.27214630    -1.92111463       adf.R=1.517
      7      H    -0.93658509    -2.21404803    -2.12984638       adf.R=1.350
      8      O    -0.10829633    -1.58074453     1.12623781       adf.R=1.517
      9      H     0.16194583    -2.50344715     1.22663866       adf.R=1.350
     10      O     2.55979760     0.34995656     1.30077591       adf.R=1.517
     11      O     2.70946070    -1.25182782    -0.42396264       adf.R=1.517
     12      S     3.57539721    -0.60866766     0.66065818       adf.R=1.792
     13      O     4.67429402     0.14339603     0.06365577       adf.R=1.517
     14      H    -1.82321166    -1.03665377    -1.56695156       adf.R=1.350
 
Total System Charge            -1.00000
Bonding info available!
 
 *** GO1_GOStep9 ***

 SOLVATION
-------------------------------------------

  The Delley construction of COSMO surface surface is calculated

       Division Level for Surface Triangles (NDIV)                  3
       Final Division Level for Triangles (NFDIV)                   1
       Radius of the Solvent (RSOL)                           1.93000 angstr
  Dielectric Constant (EPSL)                                 78.39000

       COSMO equation is solved iteratively-               conjugate-gradient

       Maximun of Iterations for Charges (NCIX)                  1000
       Criterion for Charge convergence (CCNV)                1.0E-08

  COSMO charges included variationally in SCF

       COSMO included at every SCF cycle

  Geometry-dependent empirical factor                         0.00000

  C-Matrix calculated in cspmtx

  In cspmtx, C-Matrix calculated using fitted potential

-------------------------------------------



 -------------------------------------------
  COSMO surface
  Area             =          619.101
  Volume           =         1068.208
  Number of Points =         1645
 -------------------------------------------



 ======================
 RI Hartree-Fock Scheme
 ======================
  
 Fit Set Quality     : GOOD
 Threshold Quality   : GOOD
 Integration Quality : GOOD
 Fit Generation Method : AUTO
 Response Quality    : DEFAULT
 Is Range Separated  :  F
 
 RIHartreeFock Dependency: number of modified vectors:           5
 cosmo_calcen: 0.5 (esolb+esolc) (Hartrees) =   -0.149689

 Solvation energy (screening term,uncorrected) =    -93.931485 kcal/mol

 Solvation energy (dispersion and cavitation terms) =      1.157671 kcal/mol
 Solvation Energy Contributions (Hartrees)
          esola   esolb+esolc
     0.14968933   -0.29937867
 esol last cycle   -0.14968933
  
 Hartree-Fock exchange energy:   -559.104185233906     
 cosmo_calcen: 0.5 (esolb+esolc) (Hartrees) =   -0.149689

 Solvation energy (screening term,uncorrected) =    -93.931567 kcal/mol

 Solvation energy (dispersion and cavitation terms) =      1.157671 kcal/mol
 Solvation Energy Contributions (Hartrees)
          esola   esolb+esolc
     0.14968946   -0.29937893
 esol last cycle   -0.14968946

 Energy gradients wrt nuclear displacements
 ==========================================

     Atom      Cartesian (a.u./angstrom)
                 X         Y         Z
 ----------------------------------------
     1 Pa    0.003431  0.010171  0.011317
     2 O    -0.002267 -0.001436  0.000087
     3 O    -0.000289  0.000512 -0.000630
     4 O    -0.001860 -0.000114  0.001430
     5 H     0.001471  0.000056 -0.000763
     6 O    -0.014192 -0.026573 -0.013822
     7 H     0.007066  0.001222 -0.005241
     8 O    -0.000882  0.003285 -0.003574
     9 H    -0.000316 -0.000326 -0.000943
    10 O    -0.002654  0.001099  0.000987
    11 O    -0.002627 -0.001012 -0.001738
    12 S     0.011238 -0.001920  0.002683
    13 O    -0.001266 -0.000371  0.000244
    14 H     0.003147  0.015407  0.009961
 ----------------------------------------
 Mulliken charges used for AMS results%charges...

 dE(predicted):    -0.44053E-02, dE(actual):    -0.53081E-02, Trust radius:    1.000000, all in a.u.
 
----------------------------------------------------------------------
Geometry Convergence after Step   9       (Hartree/Angstrom,Angstrom)
----------------------------------------------------------------------
current energy                               -4.17199336 Hartree
energy change                      -0.00530810     0.00001400    F
constrained gradient max            0.02654554     0.00010000    F
constrained gradient rms            0.00684528     0.00006667    F
gradient max                        0.02654554
gradient rms                        0.00684528
cart. step max                      0.09553992     0.00100000    F
cart. step rms                      0.03232659     0.00066667    F
 
 
--------
Geometry
--------
Formula: H4O8PaS
Atoms
  Index Symbol   x (angstrom)   y (angstrom)   z (angstrom)
      1     Pa     0.61265630    -0.01731199    -0.07876978       adf.R=2.200
      2      O     1.05209300     1.25542529    -1.36897006       adf.R=1.517
      3      O     4.01375487    -1.61433715     1.63893617       adf.R=1.517
      4      O    -1.12810696     1.09551743     0.56907129       adf.R=1.517
      5      H    -1.31839892     1.96765339     0.20174630       adf.R=1.350
      6      O    -0.99966279    -1.21161068    -1.90938537       adf.R=1.517
      7      H    -0.94147072    -2.15394728    -2.11309594       adf.R=1.350
      8      O    -0.05708106    -1.58974092     1.15076015       adf.R=1.517
      9      H     0.25748575    -2.49668419     1.26556093       adf.R=1.350
     10      O     2.55301299     0.33874225     1.30612385       adf.R=1.517
     11      O     2.71052847    -1.25940318    -0.41859428       adf.R=1.517
     12      S     3.57519690    -0.61678248     0.66958092       adf.R=1.792
     13      O     4.67398965     0.13838492     0.07678381       adf.R=1.517
     14      H    -1.91418203    -1.05071058    -1.62901801       adf.R=1.350
 
Total System Charge            -1.00000
Bonding info available!
 
 *** GO1_GOStep10 ***

 SOLVATION
-------------------------------------------

  The Delley construction of COSMO surface surface is calculated

       Division Level for Surface Triangles (NDIV)                  3
       Final Division Level for Triangles (NFDIV)                   1
       Radius of the Solvent (RSOL)                           1.93000 angstr
  Dielectric Constant (EPSL)                                 78.39000

       COSMO equation is solved iteratively-               conjugate-gradient

       Maximun of Iterations for Charges (NCIX)                  1000
       Criterion for Charge convergence (CCNV)                1.0E-08

  COSMO charges included variationally in SCF

       COSMO included at every SCF cycle

  Geometry-dependent empirical factor                         0.00000

  C-Matrix calculated in cspmtx

  In cspmtx, C-Matrix calculated using fitted potential

-------------------------------------------



 -------------------------------------------
  COSMO surface
  Area             =          620.680
  Volume           =         1071.466
  Number of Points =         1644
 -------------------------------------------



 ======================
 RI Hartree-Fock Scheme
 ======================
  
 Fit Set Quality     : GOOD
 Threshold Quality   : GOOD
 Integration Quality : GOOD
 Fit Generation Method : AUTO
 Response Quality    : DEFAULT
 Is Range Separated  :  F
 
 RIHartreeFock Dependency: number of modified vectors:           5
 cosmo_calcen: 0.5 (esolb+esolc) (Hartrees) =   -0.150823

 Solvation energy (screening term,uncorrected) =    -94.642806 kcal/mol

 Solvation energy (dispersion and cavitation terms) =      1.160623 kcal/mol
 Solvation Energy Contributions (Hartrees)
          esola   esolb+esolc
     0.15082290   -0.30164579
 esol last cycle   -0.15082290
  
 Hartree-Fock exchange energy:   -559.113309524772     
 cosmo_calcen: 0.5 (esolb+esolc) (Hartrees) =   -0.150823

 Solvation energy (screening term,uncorrected) =    -94.642816 kcal/mol

 Solvation energy (dispersion and cavitation terms) =      1.160623 kcal/mol
 Solvation Energy Contributions (Hartrees)
          esola   esolb+esolc
     0.15082291   -0.30164582
 esol last cycle   -0.15082291

 Energy gradients wrt nuclear displacements
 ==========================================

     Atom      Cartesian (a.u./angstrom)
                 X         Y         Z
 ----------------------------------------
     1 Pa    0.000899  0.013805  0.013501
     2 O    -0.003767 -0.005275  0.004274
     3 O    -0.000459  0.000938 -0.001136
     4 O     0.004206 -0.004726 -0.001954
     5 H     0.002177  0.000098 -0.001459
     6 O    -0.004817 -0.013797 -0.013035
     7 H     0.000947  0.001107 -0.001354
     8 O     0.002093  0.006409 -0.004946
     9 H    -0.000104 -0.000417 -0.001237
    10 O    -0.006440  0.000716 -0.000570
    11 O    -0.006146 -0.000912 -0.002599
    12 S     0.015849 -0.002368  0.004688
    13 O    -0.001568 -0.000497  0.000344
    14 H    -0.002871  0.004920  0.005485
 ----------------------------------------
 Mulliken charges used for AMS results%charges...
 Rebuilding optimization coordinates

 dE(predicted):    -0.12442E-02, dE(actual):    -0.17397E-02, Trust radius:    1.000000, all in a.u.
 
----------------------------------------------------------------------
Geometry Convergence after Step  10       (Hartree/Angstrom,Angstrom)
----------------------------------------------------------------------
current energy                               -4.17373308 Hartree
energy change                      -0.00173972     0.00001400    F
constrained gradient max            0.01585075     0.00010000    F
constrained gradient rms            0.00572769     0.00006667    F
gradient max                        0.01585075
gradient rms                        0.00572769
cart. step max                      0.05601506     0.00100000    F
cart. step rms                      0.02049890     0.00066667    F
 
 
--------
Geometry
--------
Formula: H4O8PaS
Atoms
  Index Symbol   x (angstrom)   y (angstrom)   z (angstrom)
      1     Pa     0.60875734    -0.02618393    -0.08492901       adf.R=2.200
      2      O     1.06648874     1.25957531    -1.36398443       adf.R=1.517
      3      O     4.00006382    -1.62322624     1.63815882       adf.R=1.517
      4      O    -1.13575748     1.07961237     0.55027599       adf.R=1.517
      5      H    -1.33634160     1.94855959     0.18085645       adf.R=1.350
      6      O    -1.01762793    -1.17031346    -1.89823025       adf.R=1.517
      7      H    -0.91267660    -2.11325763    -2.08853925       adf.R=1.350
      8      O    -0.02897600    -1.59502416     1.17007485       adf.R=1.517
      9      H     0.31350082    -2.48874909     1.30615896       adf.R=1.350
     10      O     2.54499944     0.33174289     1.30114504       adf.R=1.517
     11      O     2.70687540    -1.26713979    -0.42425227       adf.R=1.517
     12      S     3.56560117    -0.62501599     0.66701198       adf.R=1.792
     13      O     4.66859677     0.12844211     0.07867318       adf.R=1.517
     14      H    -1.95368840    -1.05382715    -1.67169007       adf.R=1.350
 
Total System Charge            -1.00000
Bonding info available!
 
 *** GO1_GOStep11 ***

 SOLVATION
-------------------------------------------

  The Delley construction of COSMO surface surface is calculated

       Division Level for Surface Triangles (NDIV)                  3
       Final Division Level for Triangles (NFDIV)                   1
       Radius of the Solvent (RSOL)                           1.93000 angstr
  Dielectric Constant (EPSL)                                 78.39000

       COSMO equation is solved iteratively-               conjugate-gradient

       Maximun of Iterations for Charges (NCIX)                  1000
       Criterion for Charge convergence (CCNV)                1.0E-08

  COSMO charges included variationally in SCF

       COSMO included at every SCF cycle

  Geometry-dependent empirical factor                         0.00000

  C-Matrix calculated in cspmtx

  In cspmtx, C-Matrix calculated using fitted potential

-------------------------------------------



 -------------------------------------------
  COSMO surface
  Area             =          620.779
  Volume           =         1071.536
  Number of Points =         1647
 -------------------------------------------



 ======================
 RI Hartree-Fock Scheme
 ======================
  
 Fit Set Quality     : GOOD
 Threshold Quality   : GOOD
 Integration Quality : GOOD
 Fit Generation Method : AUTO
 Response Quality    : DEFAULT
 Is Range Separated  :  F
 
 RIHartreeFock Dependency: number of modified vectors:           5
 cosmo_calcen: 0.5 (esolb+esolc) (Hartrees) =   -0.152371

 Solvation energy (screening term,uncorrected) =    -95.614179 kcal/mol

 Solvation energy (dispersion and cavitation terms) =      1.160809 kcal/mol
 Solvation Energy Contributions (Hartrees)
          esola   esolb+esolc
     0.15237088   -0.30474176
 esol last cycle   -0.15237088
  
 Hartree-Fock exchange energy:   -559.112342998790     
 cosmo_calcen: 0.5 (esolb+esolc) (Hartrees) =   -0.152371

 Solvation energy (screening term,uncorrected) =    -95.614184 kcal/mol

 Solvation energy (dispersion and cavitation terms) =      1.160809 kcal/mol
 Solvation Energy Contributions (Hartrees)
          esola   esolb+esolc
     0.15237088   -0.30474177
 esol last cycle   -0.15237088

 Energy gradients wrt nuclear displacements
 ==========================================

     Atom      Cartesian (a.u./angstrom)
                 X         Y         Z
 ----------------------------------------
     1 Pa   -0.000691  0.008632  0.016851
     2 O    -0.001856 -0.001082  0.000422
     3 O    -0.000207  0.000778 -0.000871
     4 O     0.005406 -0.005664 -0.003076
     5 H     0.002035  0.000203 -0.001546
     6 O    -0.003875 -0.005368 -0.010999
     7 H     0.000870 -0.001433  0.000089
     8 O     0.003042  0.005726 -0.003645
     9 H    -0.000140 -0.000411 -0.001168
    10 O    -0.005868  0.000218 -0.000743
    11 O    -0.004879 -0.000799 -0.002068
    12 S     0.011662 -0.001967  0.003625
    13 O    -0.001056 -0.000294  0.000217
    14 H    -0.004442  0.001460  0.002914
 ----------------------------------------
 Mulliken charges used for AMS results%charges...

 dE(predicted):    -0.53669E-03, dE(actual):    -0.77633E-03, Trust radius:    1.000000, all in a.u.
 
----------------------------------------------------------------------
Geometry Convergence after Step  11       (Hartree/Angstrom,Angstrom)
----------------------------------------------------------------------
current energy                               -4.17450941 Hartree
energy change                      -0.00077633     0.00001400    F
constrained gradient max            0.01687057     0.00010000    F
constrained gradient rms            0.00466831     0.00006667    F
gradient max                        0.01687057
gradient rms                        0.00466831
cart. step max                      0.01840300     0.00100000    F
cart. step rms                      0.00650098     0.00066667    F
 
 
--------
Geometry
--------
Formula: H4O8PaS
Atoms
  Index Symbol   x (angstrom)   y (angstrom)   z (angstrom)
      1     Pa     0.60542247    -0.02933920    -0.09248846       adf.R=2.200
      2      O     1.07215142     1.26021547    -1.36534685       adf.R=1.517
      3      O     3.98877220    -1.62502211     1.63449990       adf.R=1.517
      4      O    -1.13694362     1.07884964     0.55262889       adf.R=1.517
      5      H    -1.34876059     1.94879790     0.19236924       adf.R=1.350
      6      O    -1.00134838    -1.16596785    -1.90026785       adf.R=1.517
      7      H    -0.90666781    -2.11121704    -2.08406459       adf.R=1.350
      8      O    -0.02979154    -1.59446080     1.17368236       adf.R=1.517
      9      H     0.31453762    -2.48546421     1.32171465       adf.R=1.350
     10      O     2.54103135     0.33259835     1.29381425       adf.R=1.517
     11      O     2.70340297    -1.26882854    -0.43102692       adf.R=1.517
     12      S     3.55830307    -0.62647498     0.66129536       adf.R=1.792
     13      O     4.66499171     0.12383633     0.07503183       adf.R=1.517
     14      H    -1.93528540    -1.05232814    -1.67111182       adf.R=1.350
 
Total System Charge            -1.00000
Bonding info available!
 
 *** GO1_GOStep12 ***

 SOLVATION
-------------------------------------------

  The Delley construction of COSMO surface surface is calculated

       Division Level for Surface Triangles (NDIV)                  3
       Final Division Level for Triangles (NFDIV)                   1
       Radius of the Solvent (RSOL)                           1.93000 angstr
  Dielectric Constant (EPSL)                                 78.39000

       COSMO equation is solved iteratively-               conjugate-gradient

       Maximun of Iterations for Charges (NCIX)                  1000
       Criterion for Charge convergence (CCNV)                1.0E-08

  COSMO charges included variationally in SCF

       COSMO included at every SCF cycle

  Geometry-dependent empirical factor                         0.00000

  C-Matrix calculated in cspmtx

  In cspmtx, C-Matrix calculated using fitted potential

-------------------------------------------



 -------------------------------------------
  COSMO surface
  Area             =          619.928
  Volume           =         1070.271
  Number of Points =         1646
 -------------------------------------------



 ======================
 RI Hartree-Fock Scheme
 ======================
  
 Fit Set Quality     : GOOD
 Threshold Quality   : GOOD
 Integration Quality : GOOD
 Fit Generation Method : AUTO
 Response Quality    : DEFAULT
 Is Range Separated  :  F
 
 RIHartreeFock Dependency: number of modified vectors:           5
 cosmo_calcen: 0.5 (esolb+esolc) (Hartrees) =   -0.152991

 Solvation energy (screening term,uncorrected) =    -96.003439 kcal/mol

 Solvation energy (dispersion and cavitation terms) =      1.159217 kcal/mol
 Solvation Energy Contributions (Hartrees)
          esola   esolb+esolc
     0.15299120   -0.30598240
 esol last cycle   -0.15299120
  
 Hartree-Fock exchange energy:   -559.113659482891     
 cosmo_calcen: 0.5 (esolb+esolc) (Hartrees) =   -0.152991

 Solvation energy (screening term,uncorrected) =    -96.003457 kcal/mol

 Solvation energy (dispersion and cavitation terms) =      1.159217 kcal/mol
 Solvation Energy Contributions (Hartrees)
          esola   esolb+esolc
     0.15299123   -0.30598246
 esol last cycle   -0.15299123

 Energy gradients wrt nuclear displacements
 ==========================================

     Atom      Cartesian (a.u./angstrom)
                 X         Y         Z
 ----------------------------------------
     1 Pa   -0.000103  0.007151  0.014801
     2 O    -0.001096 -0.000358 -0.000125
     3 O    -0.000179  0.000590 -0.000581
     4 O     0.004334 -0.004581 -0.002602
     5 H     0.001622  0.000182 -0.001294
     6 O    -0.004176 -0.002759 -0.009984
     7 H    -0.001495 -0.000739  0.000772
     8 O     0.002661  0.004314 -0.002442
     9 H    -0.000264 -0.000415 -0.000951
    10 O    -0.004335 -0.000146 -0.000614
    11 O    -0.003263 -0.000683 -0.001424
    12 S     0.007557 -0.001255  0.002257
    13 O    -0.000669 -0.000143  0.000160
    14 H    -0.000594 -0.001159  0.002028
 ----------------------------------------
 Mulliken charges used for AMS results%charges...

 dE(predicted):    -0.21045E-03, dE(actual):    -0.32663E-03, Trust radius:    1.000000, all in a.u.
 
----------------------------------------------------------------------
Geometry Convergence after Step  12       (Hartree/Angstrom,Angstrom)
----------------------------------------------------------------------
current energy                               -4.17483604 Hartree
energy change                      -0.00032663     0.00001400    F
constrained gradient max            0.01481893     0.00010000    F
constrained gradient rms            0.00373658     0.00006667    F
gradient max                        0.01481893
gradient rms                        0.00373658
cart. step max                      0.09911721     0.00100000    F
cart. step rms                      0.03274880     0.00066667    F
 
 
--------
Geometry
--------
Formula: H4O8PaS
Atoms
  Index Symbol   x (angstrom)   y (angstrom)   z (angstrom)
      1     Pa     0.58858620    -0.04526083    -0.12855378       adf.R=2.200
      2      O     1.09604953     1.26289230    -1.37526343       adf.R=1.517
      3      O     3.93569604    -1.63961891     1.61625398       adf.R=1.517
      4      O    -1.14745122     1.06964538     0.55776780       adf.R=1.517
      5      H    -1.40893043     1.94166688     0.23947517       adf.R=1.350
      6      O    -0.95156248    -1.13296995    -1.89201548       adf.R=1.517
      7      H    -0.80755060    -2.08010847    -2.03313720       adf.R=1.350
      8      O    -0.03087049    -1.59226774     1.19033202       adf.R=1.517
      9      H     0.33369365    -2.46247590     1.39830430       adf.R=1.350
     10      O     2.52218399     0.33282273     1.25811940       adf.R=1.517
     11      O     2.68499549    -1.28125607    -0.46350829       adf.R=1.517
     12      S     3.52404504    -0.63927464     0.63401906       adf.R=1.792
     13      O     4.64771692     0.09499092     0.05638319       adf.R=1.517
     14      H    -1.89678615    -1.04359090    -1.69744678       adf.R=1.350
 
Total System Charge            -1.00000
Bonding info available!
 
 *** GO1_GOStep13 ***

 SOLVATION
-------------------------------------------

  The Delley construction of COSMO surface surface is calculated

       Division Level for Surface Triangles (NDIV)                  3
       Final Division Level for Triangles (NFDIV)                   1
       Radius of the Solvent (RSOL)                           1.93000 angstr
  Dielectric Constant (EPSL)                                 78.39000

       COSMO equation is solved iteratively-               conjugate-gradient

       Maximun of Iterations for Charges (NCIX)                  1000
       Criterion for Charge convergence (CCNV)                1.0E-08

  COSMO charges included variationally in SCF

       COSMO included at every SCF cycle

  Geometry-dependent empirical factor                         0.00000

  C-Matrix calculated in cspmtx

  In cspmtx, C-Matrix calculated using fitted potential

-------------------------------------------



 -------------------------------------------
  COSMO surface
  Area             =          617.198
  Volume           =         1066.548
  Number of Points =         1640
 -------------------------------------------



 ======================
 RI Hartree-Fock Scheme
 ======================
  
 Fit Set Quality     : GOOD
 Threshold Quality   : GOOD
 Integration Quality : GOOD
 Fit Generation Method : AUTO
 Response Quality    : DEFAULT
 Is Range Separated  :  F
 
 RIHartreeFock Dependency: number of modified vectors:           5
 cosmo_calcen: 0.5 (esolb+esolc) (Hartrees) =   -0.156107

 Solvation energy (screening term,uncorrected) =    -97.958811 kcal/mol

 Solvation energy (dispersion and cavitation terms) =      1.154112 kcal/mol
 Solvation Energy Contributions (Hartrees)
          esola   esolb+esolc
     0.15610729   -0.31221457
 esol last cycle   -0.15610729
  
 Hartree-Fock exchange energy:   -559.112598355356     
 cosmo_calcen: 0.5 (esolb+esolc) (Hartrees) =   -0.156107

 Solvation energy (screening term,uncorrected) =    -97.958820 kcal/mol

 Solvation energy (dispersion and cavitation terms) =      1.154112 kcal/mol
 Solvation Energy Contributions (Hartrees)
          esola   esolb+esolc
     0.15610730   -0.31221460
 esol last cycle   -0.15610730

 Energy gradients wrt nuclear displacements
 ==========================================

     Atom      Cartesian (a.u./angstrom)
                 X         Y         Z
 ----------------------------------------
     1 Pa    0.001192 -0.005055  0.005419
     2 O     0.003084  0.004985 -0.004457
     3 O     0.000322 -0.000497  0.000727
     4 O    -0.000772  0.000121 -0.000687
     5 H    -0.000057 -0.000130 -0.000157
     6 O    -0.001516  0.002136 -0.006405
     7 H     0.002256 -0.000712  0.002814
     8 O     0.001193 -0.001098  0.003101
     9 H    -0.000836 -0.000311 -0.000208
    10 O     0.001239 -0.000981 -0.000121
    11 O     0.003954 -0.000126  0.001204
    12 S    -0.009353  0.001259 -0.003623
    13 O     0.000684  0.000341 -0.000143
    14 H    -0.001389  0.000068  0.002537
 ----------------------------------------
 Mulliken charges used for AMS results%charges...

 dE(predicted):    -0.81745E-03, dE(actual):    -0.40821E-03, Trust radius:    1.000000, all in a.u.
 
----------------------------------------------------------------------
Geometry Convergence after Step  13       (Hartree/Angstrom,Angstrom)
----------------------------------------------------------------------
current energy                               -4.17524426 Hartree
energy change                      -0.00040821     0.00001400    F
constrained gradient max            0.00935154     0.00010000    F
constrained gradient rms            0.00275069     0.00006667    F
gradient max                        0.00935154
gradient rms                        0.00275069
cart. step max                      0.02326392     0.00100000    F
cart. step rms                      0.00689364     0.00066667    F
 
 
--------
Geometry
--------
Formula: H4O8PaS
Atoms
  Index Symbol   x (angstrom)   y (angstrom)   z (angstrom)
      1     Pa     0.59148772    -0.04209627    -0.12516510       adf.R=2.200
      2      O     1.08915559     1.26001779    -1.37580415       adf.R=1.517
      3      O     3.94356299    -1.63539034     1.62053155       adf.R=1.517
      4      O    -1.14396494     1.07344896     0.56185511       adf.R=1.517
      5      H    -1.40007970     1.94667478     0.24223530       adf.R=1.350
      6      O    -0.95107826    -1.14364906    -1.89511924       adf.R=1.517
      7      H    -0.83081452    -2.09217638    -2.04615598       adf.R=1.350
      8      O    -0.03719049    -1.59214555     1.18216123       adf.R=1.517
      9      H     0.32448864    -2.46493730     1.38446404       adf.R=1.350
     10      O     2.52607426     0.33599630     1.26143431       adf.R=1.517
     11      O     2.68766333    -1.27853152    -0.45799928       adf.R=1.517
     12      S     3.53060041    -0.63601265     0.63854758       adf.R=1.792
     13      O     4.65233838     0.09872235     0.05870315       adf.R=1.517
     14      H    -1.89242793    -1.04472628    -1.68895853       adf.R=1.350
 
Total System Charge            -1.00000
Bonding info available!
 
 *** GO1_GOStep14 ***

 SOLVATION
-------------------------------------------

  The Delley construction of COSMO surface surface is calculated

       Division Level for Surface Triangles (NDIV)                  3
       Final Division Level for Triangles (NFDIV)                   1
       Radius of the Solvent (RSOL)                           1.93000 angstr
  Dielectric Constant (EPSL)                                 78.39000

       COSMO equation is solved iteratively-               conjugate-gradient

       Maximun of Iterations for Charges (NCIX)                  1000
       Criterion for Charge convergence (CCNV)                1.0E-08

  COSMO charges included variationally in SCF

       COSMO included at every SCF cycle

  Geometry-dependent empirical factor                         0.00000

  C-Matrix calculated in cspmtx

  In cspmtx, C-Matrix calculated using fitted potential

-------------------------------------------



 -------------------------------------------
  COSMO surface
  Area             =          618.028
  Volume           =         1067.280
  Number of Points =         1644
 -------------------------------------------



 ======================
 RI Hartree-Fock Scheme
 ======================
  
 Fit Set Quality     : GOOD
 Threshold Quality   : GOOD
 Integration Quality : GOOD
 Fit Generation Method : AUTO
 Response Quality    : DEFAULT
 Is Range Separated  :  F
 
 RIHartreeFock Dependency: number of modified vectors:           5
 cosmo_calcen: 0.5 (esolb+esolc) (Hartrees) =   -0.155267

 Solvation energy (screening term,uncorrected) =    -97.431656 kcal/mol

 Solvation energy (dispersion and cavitation terms) =      1.155665 kcal/mol
 Solvation Energy Contributions (Hartrees)
          esola   esolb+esolc
     0.15526721   -0.31053442
 esol last cycle   -0.15526721
  
 Hartree-Fock exchange energy:   -559.114377541047     
 cosmo_calcen: 0.5 (esolb+esolc) (Hartrees) =   -0.155267

 Solvation energy (screening term,uncorrected) =    -97.431676 kcal/mol

 Solvation energy (dispersion and cavitation terms) =      1.155665 kcal/mol
 Solvation Energy Contributions (Hartrees)
          esola   esolb+esolc
     0.15526724   -0.31053449
 esol last cycle   -0.15526724

 Energy gradients wrt nuclear displacements
 ==========================================

     Atom      Cartesian (a.u./angstrom)
                 X         Y         Z
 ----------------------------------------
     1 Pa    0.002294 -0.000544  0.004300
     2 O     0.001360  0.001514 -0.001363
     3 O     0.000190 -0.000282  0.000360
     4 O    -0.000289 -0.000347 -0.000719
     5 H     0.000047 -0.000011 -0.000220
     6 O    -0.000591  0.001737 -0.006911
     7 H    -0.000336 -0.000190  0.002365
     8 O     0.001109 -0.000286  0.001905
     9 H    -0.000765 -0.000259 -0.000243
    10 O    -0.000101 -0.000506 -0.000305
    11 O     0.001940 -0.000325  0.000229
    12 S    -0.004944  0.000772 -0.001834
    13 O     0.000318  0.000186 -0.000067
    14 H    -0.000232 -0.001458  0.002503
 ----------------------------------------
 Mulliken charges used for AMS results%charges...

 dE(predicted):    -0.85378E-04, dE(actual):    -0.13328E-03, Trust radius:    1.000000, all in a.u.
 
----------------------------------------------------------------------
Geometry Convergence after Step  14       (Hartree/Angstrom,Angstrom)
----------------------------------------------------------------------
current energy                               -4.17537754 Hartree
energy change                      -0.00013328     0.00001400    F
constrained gradient max            0.00692977     0.00010000    F
constrained gradient rms            0.00179158     0.00006667    F
gradient max                        0.00692977
gradient rms                        0.00179158
cart. step max                      0.00718589     0.00100000    F
cart. step rms                      0.00278479     0.00066667    F
 
 
--------
Geometry
--------
Formula: H4O8PaS
Atoms
  Index Symbol   x (angstrom)   y (angstrom)   z (angstrom)
      1     Pa     0.59239534    -0.04112317    -0.12589045       adf.R=2.200
      2      O     1.08413851     1.25769861    -1.37884625       adf.R=1.517
      3      O     3.94523324    -1.63344890     1.62428773       adf.R=1.517
      4      O    -1.14238998     1.07465390     0.56509700       adf.R=1.517
      5      H    -1.39796521     1.94906465     0.24827039       adf.R=1.350
      6      O    -0.95198564    -1.14709184    -1.89294251       adf.R=1.517
      7      H    -0.83424742    -2.09514224    -2.04844322       adf.R=1.350
      8      O    -0.04170296    -1.59306088     1.17497534       adf.R=1.517
      9      H     0.32519305    -2.46293483     1.38061093       adf.R=1.350
     10      O     2.52808857     0.33869307     1.26073180       adf.R=1.517
     11      O     2.68790627    -1.27851025    -0.45489842       adf.R=1.517
     12      S     3.53369083    -0.63541647     0.64088668       adf.R=1.792
     13      O     4.65559881     0.09725305     0.05943389       adf.R=1.517
     14      H    -1.89413794    -1.04543987    -1.69254292       adf.R=1.350
 
[...]
     4     O       0.000030  -0.000437   0.000211
     5     H      -0.001788   0.008493  -0.002140
     6     O      -0.030868  -0.021299  -0.031689
     7     H       0.389450   0.573131  -0.149063
     8     O      -0.000445   0.001010  -0.000088
     9     H       0.006959  -0.017663   0.003474
    10     O       0.000078   0.000016   0.000044
    11     O       0.000078  -0.000024   0.000008
    12     S      -0.000035  -0.000008  -0.000017
    13     O       0.000018   0.000011  -0.000005
    14     H       0.104228  -0.233077   0.655421
 
 Mode:    40      Frequency (cm-1):     3787.4068     Intensity (km/mol):      254.3803
 Index  Atom      ---- Displacements (x/y/z) ----
     1    Pa      -0.000000   0.000056  -0.000015
     2     O      -0.000087  -0.000186   0.000192
     3     O      -0.000039   0.000026  -0.000042
     4     O       0.000086   0.000360  -0.000289
     5     H       0.001662  -0.009223   0.002534
     6     O       0.000539   0.000125   0.001009
     7     H      -0.004993  -0.007749   0.002208
     8     O      -0.022779   0.057044  -0.011390
     9     H       0.363141  -0.911379   0.181938
    10     O      -0.000176  -0.000029  -0.000053
    11     O      -0.000232  -0.000025  -0.000006
    12     S       0.000132   0.000012   0.000047
    13     O      -0.000072  -0.000029   0.000006
    14     H      -0.002731   0.005916  -0.016881
 
 Mode:    41      Frequency (cm-1):     3813.7048     Intensity (km/mol):      149.5816
 Index  Atom      ---- Displacements (x/y/z) ----
     1    Pa       0.000010  -0.000034   0.000002
     2     O      -0.000166  -0.000100   0.000342
     3     O      -0.000034   0.000036  -0.000026
     4     O       0.011765  -0.059600   0.014859
     5     H      -0.185547   0.951000  -0.238935
     6     O       0.000356   0.000287   0.000271
     7     H      -0.004059  -0.005951   0.001642
     8     O      -0.000142   0.000736  -0.000287
     9     H       0.003402  -0.008298   0.001806
    10     O      -0.000133   0.000006  -0.000055
    11     O      -0.000105   0.000035   0.000008
    12     S       0.000071  -0.000018   0.000012
    13     O      -0.000045  -0.000016   0.000010
    14     H      -0.000670   0.001825  -0.005246
 
 Mode:    42      Frequency (cm-1):     3839.3681     Intensity (km/mol):      268.9688
 Index  Atom      ---- Displacements (x/y/z) ----
     1    Pa       0.000002   0.000008  -0.000006
     2     O       0.000008   0.000014   0.000045
     3     O       0.000002  -0.000002  -0.000002
     4     O      -0.000011   0.000082  -0.000021
     5     H       0.000349  -0.001207   0.000430
     6     O       0.017082   0.048810  -0.049180
     7     H      -0.398426  -0.566669   0.117322
     8     O      -0.000157   0.000359  -0.000091
     9     H       0.002238  -0.005812   0.001012
    10     O       0.000005  -0.000001   0.000004
    11     O       0.000002   0.000003  -0.000001
    12     S      -0.000001  -0.000002   0.000003
    13     O       0.000006  -0.000002   0.000002
    14     H       0.126614  -0.209962   0.664175

 Vibrational polarizability tensor (a.u.):
                  X                   Y                   Z
 X            7964.81746         -3015.61768         -1216.17622
 Y           -3015.61768          3549.18443          1555.44388
 Z           -1216.17622          1555.44388          2531.48729

 Isotropic =      4681.8    atomic units

PES point character: Geometry corresponds to a local minimum on the PES.




 ============================
 Statistical Thermal Analysis  ***  ideal gas assumed  ***
 ============================
  
 Pressure:                  1.000000 atm.
 Temperature:             298.150000 K



 Moments of Inertia [amu*bohr^2] and principal axis
 ==================================================

        1224.1310       3755.8923       3847.5746
 ------------------------------------------------
           0.9546         -0.2321          0.1867
          -0.0476         -0.7376         -0.6735
           0.2940          0.6341         -0.7152


 The rotational contribution to the molecular entropy includes
 a term, dependent on the symmetry number sigma. The results 
 reported below were computed using sigma = 1, determined from
 the point group symmetry of the input geometry (NOSYM). 
 If this is not the correct symmetry, try symmetrizing the molecule before
 running the calculation (note: linear molecules should be aligned along one
 of the Cartesian axes).
 Contributions from frequencies below 20 1/cm are not included in vibrational sums.
 Their contributions, if any, are reported separately.


     Temp                                                        Transl      Rotat     Vibrat     Total
     ----                                                        ------      -----     ------     -----

     298.15   Entropy (cal/mol-K):                               43.813     31.248     54.750    129.811
              Nuclear Internal Energy (kcal/mol):                 0.889      0.889     49.748     51.525
              Constant Volume Heat Capacity (cal/mol-K):          2.981      2.981     44.828     50.790
          (c) Constant Volume Heat Capacity (cal/mol-K):          2.981      2.981     39.572     45.534

       Summary of energy terms
                                                   hartree              eV         kcal/mol           kJ/mol
                                      --------------------     -----------       ----------      -----------
      Energy from Engine:               -4.180804504673734       -113.7655         -2623.49        -10976.70
      Nuclear Internal Energy:           0.082110673936183          2.2343            51.53           215.58
  (c) Nuclear Internal Energy:           0.079427943269397          2.1613            49.84           208.54
      Internal Energy U:                -4.098693830737552       -111.5311         -2571.97        -10761.12
      pV/n = RT:                         0.000944186013486          0.0257             0.59             2.48
      Enthalpy H:                       -4.097749644724066       -111.5054         -2571.38        -10758.64
      -T*S:                             -0.061677537232387         -1.6783           -38.70          -161.93
  (c) -T*S:                             -0.059281457405311         -1.6131           -37.20          -155.64
      Gibbs free energy:                -4.159427181956453       -113.1838         -2610.08        -10920.57
 
 
 
  (c) The properties marked with this symbol have been corrected using 'low vibrational frequency free rotor
      interpolation corrections'. For those terms all positive frequencies are used (also ones below 20 1/cm),
      but the contribution to the partition function of small vibrational frequencies is modified as described
      in the following paper:
      S. Grimme, 'Supramolecular Binding Thermodynamics by Dispersion-Corrected Density Functional Theory'
      (Chem. Eur. J. 2012, 18, 9955-9964)
      Configuration: Dampener Frequency          :   100.000 1/cm
                     Dampener Alpha              :     4.000
                     Averaging Moment of Inertia : 1.000E-44 kg m2

--------------
Atomic charges
--------------
  Index   Atom    Charge
      1     Pa    2.4931
      2      O   -0.8465
      3      O   -0.7619
      4      O   -0.7644
      5      H    0.1491
      6      O   -0.4000
      7      H    0.2374
      8      O   -0.6865
      9      H    0.1353
     10      O   -0.8202
     11      O   -0.8204
     12      S    1.6054
     13      O   -0.7631
     14      H    0.2426


Dipole moment vector    (Debye):   -22.66559188   -4.28967243   -7.97524508
              magnitude (Debye):    24.40768073


-----------------------
Molecular orbitals info
-----------------------
n orbitals:              421
n spin:                    1

Note: only printing virtual orbitals with
      energy smaller than HOMO + 100. eV

HOMO (eV):              -7.4662
LUMO (eV):              -1.6467
HOMO-LUMO gap (eV):      5.8195

   Index   Energy (eV)    Occupation
     265       92.5263         0.000       
     264       91.7103         0.000       
     263       90.9879         0.000       
     262       87.3334         0.000       
     261       86.6363         0.000       
     260       84.5357         0.000       
     259       83.7301         0.000       
     258       83.1234         0.000       
     257       82.0986         0.000       
     256       81.5239         0.000       
     255       79.5927         0.000       
     254       78.6244         0.000       
     253       77.9719         0.000       
     252       77.6451         0.000       
     251       76.8572         0.000       
     250       75.6375         0.000       
     249       74.9444         0.000       
     248       74.0636         0.000       
     247       73.8182         0.000       
     246       73.5250         0.000       
     245       72.4502         0.000       
     244       70.5283         0.000       
     243       70.0908         0.000       
     242       69.4971         0.000       
     241       69.0727         0.000       
     240       67.8830         0.000       
     239       67.4732         0.000       
     238       66.8762         0.000       
     237       66.4483         0.000       
     236       65.7645         0.000       
     235       65.2206         0.000       
     234       64.8509         0.000       
     233       64.1417         0.000       
     232       63.5476         0.000       
     231       62.4796         0.000       
     230       61.4940         0.000       
     229       61.0439         0.000       
     228       60.7666         0.000       
     227       60.1277         0.000       
     226       58.2711         0.000       
     225       58.1494         0.000       
     224       57.3961         0.000       
     223       56.4697         0.000       
     222       56.2677         0.000       
     221       54.2429         0.000       
     220       53.6172         0.000       
     219       53.1416         0.000       
     218       52.4530         0.000       
     217       51.7239         0.000       
     216       51.0273         0.000       
     215       49.7465         0.000       
     214       49.0324         0.000       
     213       48.4697         0.000       
     212       47.8194         0.000       
     211       47.2307         0.000       
     210       46.7359         0.000       
     209       46.1932         0.000       
     208       45.3343         0.000       
     207       45.2413         0.000       
     206       44.6117         0.000       
     205       44.3615         0.000       
     204       43.6546         0.000       
     203       43.0483         0.000       
     202       42.8429         0.000       
     201       41.9787         0.000       
     200       41.7592         0.000       
     199       41.4067         0.000       
     198       40.9419         0.000       
     197       40.4940         0.000       
     196       40.0215         0.000       
     195       39.6200         0.000       
     194       39.1100         0.000       
     193       38.9344         0.000       
     192       38.3801         0.000       
     191       37.7789         0.000       
     190       37.3592         0.000       
     189       37.0930         0.000       
     188       36.5258         0.000       
     187       36.0076         0.000       
     186       35.7490         0.000       
     185       35.0298         0.000       
     184       34.5436         0.000       
     183       33.8940         0.000       
     182       33.4763         0.000       
     181       32.9513         0.000       
     180       32.7784         0.000       
     179       32.1128         0.000       
     178       31.9160         0.000       
     177       31.1453         0.000       
     176       30.5352         0.000       
     175       30.3380         0.000       
     174       29.4331         0.000       
     173       27.9451         0.000       
     172       27.0109         0.000       
     171       26.4295         0.000       
     170       26.3539         0.000       
     169       25.6452         0.000       
     168       25.0863         0.000       
     167       24.1844         0.000       
     166       23.7115         0.000       
     165       23.2894         0.000       
     164       22.8765         0.000       
     163       22.3866         0.000       
     162       21.6873         0.000       
     161       21.4057         0.000       
     160       20.7630         0.000       
     159       20.5709         0.000       
     158       19.8826         0.000       
     157       19.7016         0.000       
     156       19.2260         0.000       
     155       18.9796         0.000       
     154       18.7361         0.000       
     153       17.9989         0.000       
     152       17.5289         0.000       
     151       17.4570         0.000       
     150       17.1551         0.000       
     149       17.0768         0.000       
     148       16.5413         0.000       
     147       16.3204         0.000       
     146       15.9887         0.000       
     145       15.9535         0.000       
     144       15.8760         0.000       
     143       15.6179         0.000       
     142       15.3202         0.000       
     141       15.1732         0.000       
     140       14.9568         0.000       
     139       14.3989         0.000       
     138       14.2812         0.000       
     137       13.9535         0.000       
     136       13.3927         0.000       
     135       13.3494         0.000       
     134       13.0493         0.000       
     133       12.8070         0.000       
     132       12.6526         0.000       
     131       12.3857         0.000       
     130       12.3518         0.000       
     129       12.0024         0.000       
     128       11.5847         0.000       
     127       10.5338         0.000       
     126       10.1562         0.000       
     125        9.6941         0.000       
     124        9.0195         0.000       
     123        8.3839         0.000       
     122        7.9766         0.000       
     121        7.5411         0.000       
     120        6.9974         0.000       
     119        6.3595         0.000       
     118        6.0050         0.000       
     117        5.6712         0.000       
     116        5.2301         0.000       
     115        4.9983         0.000       
     114        4.8915         0.000       
     113        4.6480         0.000       
     112        4.6169         0.000       
     111        3.9470         0.000       
     110        3.5208         0.000       
     109        3.4901         0.000       
     108        3.1930         0.000       
     107        2.6309         0.000       
     106        2.4984         0.000       
     105        2.4091         0.000       
     104        2.3067         0.000       
     103        2.1213         0.000       
     102        1.9793         0.000       
     101        1.8334         0.000       
     100        1.5807         0.000       
      99        1.0027         0.000       
      98        0.9140         0.000       
      97        0.6068         0.000       
      96        0.0350         0.000       
      95       -0.3341         0.000       
      94       -0.8799         0.000       
      93       -0.9182         0.000       
      92       -1.3349         0.000       
      91       -1.5372         0.000       
      90       -1.5793         0.000       
      89       -1.6467         0.000 < LUMO
      88       -7.4662         2.000 < HOMO
      87       -7.6855         2.000       
      86       -7.8159         2.000       
      85       -8.1597         2.000       
      84       -8.5322         2.000       
      83       -8.7463         2.000       
      82       -8.8550         2.000       
      81       -8.9546         2.000       
      80       -9.1536         2.000       
      79       -9.4331         2.000       
      78       -9.4776         2.000       
      77       -9.6085         2.000       
      76      -10.0070         2.000       
      75      -10.0676         2.000       
      74      -10.2166         2.000       
      73      -10.5492         2.000       
      72      -12.3403         2.000       
      71      -12.6676         2.000       
      70      -12.8983         2.000       
      69      -13.0072         2.000       
      68      -13.1587         2.000       
      67      -13.6766         2.000       
      66      -15.8626         2.000       
      65      -15.9221         2.000       
      64      -20.4731         2.000       
      63      -23.4052         2.000       
      62      -24.1822         2.000       
      61      -26.0229         2.000       
      60      -26.6040         2.000       
      59      -26.9088         2.000       
      58      -27.0643         2.000       
      57      -27.4433         2.000       
      56      -28.7536         2.000       
      55      -29.0661         2.000       
      54      -31.3087         2.000       
      53      -49.1035         2.000       
      52      -98.6433         2.000       
      51      -98.6915         2.000       
      50      -98.7182         2.000       
      49      -98.8178         2.000       
      48      -98.8219         2.000       
      47     -164.8831         2.000       
      46     -164.9063         2.000       
      45     -164.9277         2.000       
      44     -205.1047         2.000       
      43     -205.3816         2.000       
      42     -205.4027         2.000       
      41     -221.7184         2.000       
      40     -303.5419         2.000       
      39     -358.6378         2.000       
      38     -358.6723         2.000       
      37     -358.6889         2.000       
      36     -358.8289         2.000       
      35     -358.8380         2.000       
      34     -358.9835         2.000       
      33     -358.9862         2.000       
      32     -519.9106         2.000       
      31     -520.1521         2.000       
      30     -520.2130         2.000       
      29     -520.2175         2.000       
      28     -520.6428         2.000       
      27     -520.6699         2.000       
      26     -520.6765         2.000       
      25     -522.3599         2.000       
      24     -709.2844         2.000       
      23     -709.4422         2.000       
      22     -709.4572         2.000       
      21     -709.6509         2.000       
      20     -709.6691         2.000       
      19    -1036.5467         2.000       
      18    -1036.8840         2.000       
      17    -1036.9163         2.000       
      16    -1354.1656         2.000       
      15    -2430.9641         2.000       
      14    -3478.9493         2.000       
      13    -3479.0113         2.000       
      12    -3479.0174         2.000       
      11    -3479.1093         2.000       
      10    -3479.1162         2.000       
       9    -4339.6624         2.000       
       8    -4339.8525         2.000       
       7    -4339.8688         2.000       
       6    -5309.0945         2.000       
       5   -17548.3383         2.000       
       4   -17548.3651         2.000       
       3   -17548.3664         2.000       
       2   -21020.1674         2.000       
       1  -112660.9201         2.000       

Final PES point is a local minimum. Geometry optimization successful!


AMS application finished. Exiting.
NORMAL TERMINATION
     Total cpu time:  126250.59
  Total system time:    6395.48
 Total elapsed time:  133580.17
