

 Parallel Execution: Process Information
 ==============================================================================
 Rank   Node Name                              NodeID   MyNodeRank  NodeMaster
    0   u-0-9.local                               0          0          0
    1   u-0-9.local                               0          1         -1
    2   u-0-9.local                               0          2         -1
    3   u-0-9.local                               0          3         -1
    4   u-0-9.local                               1          0          1
    5   u-0-9.local                               1          1         -1
    6   u-0-9.local                               1          2         -1
    7   u-0-9.local                               1          3         -1
 ==============================================================================


May use up to 62455MB of RAM as shared memory on node 0
May use up to 124955MB of RAM as shared memory on node 1

 *******************************************************************************
 *                                                                             *
 *  --------------------------------                                           *
 *   Amsterdam Modeling Suite (AMS)              2023.101                      *
 *  --------------------------------                                           *
 *                                               r111868 2023-03-31            *
 *                                                                             *
 *                                                                             *
 *                              =================                              *
 *                              |               |                              *
 *                              |     A M S     |                              *
 *                              |               |                              *
 *                              =================                              *
 *                                                                             *
 *                                                                             *
 *   Online information and documentation:  https://www.scm.com/support/       *
 *   E-mail:  support@scm.com   info@scm.com                                   *
 *                                                                             *
 *   Scientific publications using AMS results must be properly referenced     *
 *   See the User Manuals (or the web site) for recommended citations          *
 *   The terms and conditions of the End User License Agreement apply to       *
 *   the use of AMS, https://www.scm.com/license-terms/                        *
 *                                                                             *
 **********************  x86_64_linux_intel / intelmpi  ************************
 
 Licensed to: Dr. Val?rie Vallet / Laboratoire PhLAM UMR 8523 / Villeneuve d'Ascq Cedex / FRANCE 2023-12-11 15:27:25
 SCM User ID: u10325
  
 AMS 2023.101  RunTime: Jan15-2024 09:04:13  ShM Nodes: 2  Procs: 8

 AMS jobname: pa_oh4_br.SO.b3lyp.tz2p.sp-B22
 AMS jobid  : 3525914

 Start   directory: /home/shaaban/ams/PhD/bromide/pa_oh4_br/gp/B22/SP-SR-SO/
 Results directory: /home/shaaban/ams/PhD/bromide/pa_oh4_br/gp/B22/SP-SR-SO/pa_oh4_br.SO.b3lyp.tz2p.sp-B22.results/
 Scratch directory: /state/partition2/shaaban/999612.phlam-s-sakura/amstmp_pa_oh4_br.SO.b3lyp.tz2p.sp-B22_kid0.3525914/


 Communication costs MPI_COMM_WORLD:      2.280 usec per message,   0.0153 usec per 8-byte item
 Communication costs for intra-node:      0.396 usec per message,   0.0042 usec per 8-byte item

 RNG seed: -1102783134 1270382330 437621270 -4508444 -84033505 1821793526 1089165488 1498829566



                      ************************************************************************
                      *  ADF 2023.101  RunTime: Jan15-2024 09:04:14  ShM Nodes: 2  Procs: 8  *
                      ************************************************************************
  

       ****************************
       * SINGLE POINT CALCULATION *
       ****************************
 
--------
Geometry
--------
Formula: H4BrO4Pa
Atoms
  Index Symbol   x (angstrom)   y (angstrom)   z (angstrom)
      1     Pa     0.29955064    -0.12395620     0.07041937
      2     Br     1.44320356     1.83399086    -1.53965888
      3      H    -1.95146477     1.86472494     0.49782508
      4      O    -1.29220924     1.17202560     0.42813676
      5      H     2.80958023     0.06259921     1.77185219
      6      O     0.20269601    -1.37185873    -1.59564398
      7      H     0.20403494    -1.83716580    -2.43392912
      8      O    -0.55977716    -1.58260418     1.27356714
      9      H    -1.03549496    -2.23615432     1.78898378
     10      O     1.99379702    -0.05091999     1.28127320
 
Total System Charge             0.00000
Bonding info available!
 
 
----------------
ADF Engine Input
----------------
 
 Basis
 Type TZ2P
 Core None
 End
 XC
 Hybrid B3LYP
 End
 Relativity
 Level Spin-Orbit
 End
 NumericalQuality Good
 

 Title: *** (NO TITLE) ***

 *** adf ***



 ===========================
 A T T A C H E D   F I L E S
 ===========================
  



 ===============================
 M O D E L   P A R A M E T E R S
 ===============================
  
 DENSITY FUNCTIONAL POTENTIAL (scf)
    Hybrid:                            B3LYP                                   == Not Default ==

 SPIN  (restricted / unrestr.)
    Molecule:                          Restricted                               
    Fragments:                         Restricted                               

 OTHER ASPECTS
    Relativistic Corrections:          Spin-Orbit (ZORA,MAPA)                  == Not Default ==

    Nuclear Charge Density Model:      Point Charge Nuclei                      
    Core Treatment:                    Frozen Orbital(s)                        

    Hyperfine or Zeeman Interaction:   ---                                      


 Fragment File(s)
 ----------------
 Pa:
         file : /home/shaaban/ams/PhD/bromide/pa_oh4_br/gp/B22/SP-SR-SO/pa_oh4_br.SO.b3lyp.tz2p.sp-B22.results/t21.376DF1AB.Pa
         jobid: 0
         title: Protactinium (TZ2P, all electron)
 Br:
         file : /home/shaaban/ams/PhD/bromide/pa_oh4_br/gp/B22/SP-SR-SO/pa_oh4_br.SO.b3lyp.tz2p.sp-B22.results/t21.3E678DE8.Br
         jobid: 0
         title: Bromine (TZ2P)
 H:
         file : /home/shaaban/ams/PhD/bromide/pa_oh4_br/gp/B22/SP-SR-SO/pa_oh4_br.SO.b3lyp.tz2p.sp-B22.results/t21.1FC863BF.H
         jobid: 0
         title: Hydrogen (TZ2P)
 O:
         file : /home/shaaban/ams/PhD/bromide/pa_oh4_br/gp/B22/SP-SR-SO/pa_oh4_br.SO.b3lyp.tz2p.sp-B22.results/t21.6BA271D4.O
         jobid: 0
         title: Oxygen (TZ2P)



 ===============
 G E O M E T R Y  ***  3D  Molecule  ***
 ===============
  

 ATOMS
 =====                            X Y Z                    CHARGE
                                (Angstrom)             Nucl     +Core       At.Mass
                       --------------------------    ----------------       -------
    1  Pa              0.2996   -0.1240    0.0704     91.00     91.00      231.0359
    2  Br              1.4432    1.8340   -1.5397     35.00     35.00       78.9183
    3  H              -1.9515    1.8647    0.4978      1.00      1.00        1.0078
    4  O              -1.2922    1.1720    0.4281      8.00      8.00       15.9949
    5  H               2.8096    0.0626    1.7719      1.00      1.00        1.0078
    6  O               0.2027   -1.3719   -1.5956      8.00      8.00       15.9949
    7  H               0.2040   -1.8372   -2.4339      1.00      1.00        1.0078
    8  O              -0.5598   -1.5826    1.2736      8.00      8.00       15.9949
    9  H              -1.0355   -2.2362    1.7890      1.00      1.00        1.0078
   10  O               1.9938   -0.0509    1.2813      8.00      8.00       15.9949


 FRAGMENTS
 =========                                     Atoms in this Fragment     Cart. coord.s (Angstrom)
                                               -------------------------------------------------------
    1  Pa                                                1  Pa           0.2996   -0.1240    0.0704
    2  Br                                                2  Br           1.4432    1.8340   -1.5397
    3  H                                                 3  H           -1.9515    1.8647    0.4978
    4  H                                                 5  H            2.8096    0.0626    1.7719
    5  H                                                 7  H            0.2040   -1.8372   -2.4339
    6  H                                                 9  H           -1.0355   -2.2362    1.7890
    7  O                                                 4  O           -1.2922    1.1720    0.4281
    8  O                                                 6  O            0.2027   -1.3719   -1.5956
    9  O                                                 8  O           -0.5598   -1.5826    1.2736
   10  O                                                10  O            1.9938   -0.0509    1.2813


 Interatomic Distance Matrix (Angstrom)
 --------------------------------------

   1)     0.000
   2)     2.781   0.000
   3)     3.034   3.959   0.000
   4)     2.084   3.434   0.959   0.000
   5)     3.038   3.996   5.248   4.457   0.000
   6)     2.084   3.438   4.416   3.578   4.494   0.000
   7)     3.036   3.977   5.191   4.414   5.300   0.959   0.000
   8)     2.077   4.858   3.798   2.973   3.783   2.976   3.794   0.000
   9)     3.033   5.813   4.396   3.679   4.480   3.706   4.419   0.959   0.000
  10)     2.084   3.437   4.455   3.609   0.959   3.637   4.494   2.978   3.770   0.000

 Min. Distance =    0.9587
 Max. Distance =    5.8129



 =====================================
 S Y M M E T R Y ,   E L E C T R O N S
 =====================================
  
 Symmetry: NOSYM

 Double Group Irreducible Representations (spinor symmetry)
 -----------------------------------------------------------
 A1/2

 Symmetry is NOT used when fitting density


 Configuration of Valence Electrons
 ==================================
 ( determined in the SCF procedure )

 Total:   162

 Net Charge: 0 (Nuclei minus Electrons)

 Aufbau principle for MO occupations will be applied through SCF cycle no.     150
 Thereafter, the program will assign electrons to MOs that are spatially
 similar to the occupied MOs in a "reference" cycle ("KeepOrbitals").
 The reference cycle is always the PREVIOUS cycle: it will evolve with
 the SCF procedure.
1
 ***************************************************************************************************



                                      ****************************************
                                      *  B U I L D : (Fragments, Functions)  *
                                      ****************************************
  



 =======
 S F O s  ***  (Symmetrized Fragment Orbitals)  ***
 =======
  
 SFOs are linear combinations of (valence) Fragment Orbitals (FOs), such that the SFOs transform as the
 irreducible representations of the (molecular) symmetry group. Each SFO is therefore characterized by
 an irrep of the molecule and by a few (or only one) generating FOs.
 The SFOs constitute a symmetry-adapted basis for the Fock matrix. The MO eigenvector coefficients in
 this basis provide a direct interpretation of the MOs in terms of Frontier Orbital Theory.

 The SFOs are combined with auxiliary Core Functions (CFs) to ensure orthogonalization on the (frozen)
 Core Orbitals (COs). The Core-orthogonalized SFOs (CSFOs) constitute the true Fock basis.

 The FOs, and hence also the (C)SFOs are combinations of the elementary basis functions (BAS). The basis
 functions that participate in the description of the SFOs depend on the irrep. The indices of the
 involved functions are printed below for each irrep.
 (The complete list of primitive basis functions is printed in another section)

 Total nr. of (C)SFOs (summation over all irreps) :   339

 NOTE: a (C)SFO that is defined as a combination of more than one FO is usually NOT normalized.

 NOTE: the (C)SFOs are single group symmetry adapted orbitals.



                                       === A ===
 Nr. of SFOs :  339
 Cartesian basis functions that participate in this irrep (total number =   390) :
      1     2     3     4     5     6     7     8     9    10
     11    12    13    14    15    16    17    20    23    26
     29    32    35    38    41    44    47    50   157    18
     21    24    27    30    33    36    39    42    45    48
     51   158    19    22    25    28    31    34    37    40
     43    46    49    52   159    53    59    65    71    77
     83    89    95   101    54    60    66    72    78    84
     90    96   102    55    61    67    73    79    85    91
     97   103    56    62    68    74    80    86    92    98
    104    57    63    69    75    81    87    93    99   105
     58    64    70    76    82    88    94   100   106   107
    117   127   137   147   108   118   128   138   148   109
    119   129   139   149   110   120   130   140   150   111
    121   131   141   151   112   122   132   142   152   113
    123   133   143   153   114   124   134   144   154   115
    125   135   145   155   116   126   136   146   156   160
    161   162   169   170   195   196   197   163   166   171
    174   198   201   204   164   167   172   175   199   202
    205   165   168   173   176   200   203   206   177   183
    189   207   178   184   190   208   179   185   191   209
    180   186   192   210   181   187   193   211   182   188
    194   212   213   214   215   216   217   218   219   220
    221   222   223   224   225   226   227   228   229   230
    231   232   233   234   235   236   237   238   239   240
    241   242   243   244   245   246   247   248   249   250
    251   252   253   254   255   256   257   258   259   260
    261   262   263   264   265   266   267   268   269   270
    271   272   273   274   275   276   279   282   277   280
    283   278   281   284   285   286   287   288   289   290
    291   292   293   294   295   296   297   298   299   300
    301   302   303   304   305   306   309   312   307   310
    313   308   311   314   315   316   317   318   319   320
    321   322   323   324   325   326   327   328   329   330
    331   332   333   334   335   336   339   342   337   340
    343   338   341   344   345   346   347   348   349   350
    351   352   353   354   355   356   357   358   359   360
    361   362   363   364   365   366   369   372   367   370
    373   368   371   374   375   376   377   378   379   380
    381   382   383   384   385   386   387   388   389   390

    SFO  (index         Fragment          Generating    Expansion in Fragment Orbitals
  indx  incl.CFs)   Occup   Orb.Energy   FragmentType  Coeff.   Orbital     on Fragment
 --------------------------------------------------------------------------------------
     1       1      2.000   -4140.144 au  Pa            1.00      1 S               1
                        ( -112659.040 eV)
     2       2      2.000    -772.390 au  Pa            1.00      2 S               1
                        (  -21017.794 eV)
     3       3      2.000    -195.003 au  Pa            1.00      3 S               1
                        (   -5306.298 eV)
     4       4      2.000     -49.664 au  Pa            1.00      4 S               1
                        (   -1351.436 eV)
     5       5      2.000     -11.057 au  Pa            1.00      5 S               1
                        (    -300.888 eV)
     6       6      2.000      -1.766 au  Pa            1.00      6 S               1
                        (     -48.049 eV)
     7       7      2.000      -0.167 au  Pa            1.00      7 S               1
                        (      -4.550 eV)
     8       8       --         0.031 au  Pa            1.00      8 S               1
                        (       0.841 eV)
     9       9       --         0.336 au  Pa            1.00      9 S               1
                        (       9.133 eV)
    10      10       --         1.674 au  Pa            1.00     10 S               1
                        (      45.549 eV)
    11      11       --         8.680 au  Pa            1.00     11 S               1
                        (     236.196 eV)
    12      12       --        46.308 au  Pa            1.00     12 S               1
                        (    1260.118 eV)
    13      13       --      1052.293 au  Pa            1.00     13 S               1
                        (   28634.347 eV)
    14      14       --      5423.866 au  Pa            1.00     14 S               1
                        (  147590.909 eV)
    15      15       --     16326.809 au  Pa            1.00     15 S               1
                        (  444275.077 eV)
    16      16       --     46434.730 au  Pa            1.00     16 S               1
                        ( 1263553.301 eV)
    17      17      2.000    -644.804 au  Pa            1.00      1 P:x             1
                        (  -17546.004 eV)
    18      18      2.000    -159.382 au  Pa            1.00      2 P:x             1
                        (   -4336.995 eV)
    19      19      2.000     -38.001 au  Pa            1.00      3 P:x             1
                        (   -1034.059 eV)
    20      20      2.000      -7.452 au  Pa            1.00      4 P:x             1
                        (    -202.774 eV)
    21      21      2.000      -0.880 au  Pa            1.00      5 P:x             1
                        (     -23.949 eV)
    22      22       --        -0.008 au  Pa            1.00      6 P:x             1
                        (      -0.215 eV)
    23      23       --         0.404 au  Pa            1.00      7 P:x             1
                        (      10.994 eV)
    24      24       --         1.850 au  Pa            1.00      8 P:x             1
                        (      50.342 eV)
    25      25       --         7.570 au  Pa            1.00      9 P:x             1
                        (     205.994 eV)
    26      26       --        35.931 au  Pa            1.00     10 P:x             1
                        (     977.731 eV)
    27      27       --       178.469 au  Pa            1.00     11 P:x             1
                        (    4856.387 eV)
    28      28       --      1509.400 au  Pa            1.00     12 P:x             1
                        (   41072.871 eV)
    29      29       --     10783.504 au  Pa            1.00     13 P:x             1
                        (  293434.081 eV)
    30      30      2.000    -644.804 au  Pa            1.00      1 P:y             1
                        (  -17546.004 eV)
    31      31      2.000    -159.382 au  Pa            1.00      2 P:y             1
                        (   -4336.995 eV)
    32      32      2.000     -38.001 au  Pa            1.00      3 P:y             1
                        (   -1034.059 eV)
    33      33      2.000      -7.452 au  Pa            1.00      4 P:y             1
                        (    -202.774 eV)
    34      34      2.000      -0.880 au  Pa            1.00      5 P:y             1
                        (     -23.949 eV)
    35      35       --        -0.008 au  Pa            1.00      6 P:y             1
                        (      -0.215 eV)
    36      36       --         0.404 au  Pa            1.00      7 P:y             1
                        (      10.994 eV)
    37      37       --         1.850 au  Pa            1.00      8 P:y             1
                        (      50.342 eV)
    38      38       --         7.570 au  Pa            1.00      9 P:y             1
                        (     205.994 eV)
    39      39       --        35.931 au  Pa            1.00     10 P:y             1
                        (     977.731 eV)
    40      40       --       178.469 au  Pa            1.00     11 P:y             1
                        (    4856.387 eV)
    41      41       --      1509.400 au  Pa            1.00     12 P:y             1
                        (   41072.871 eV)
    42      42       --     10783.504 au  Pa            1.00     13 P:y             1
                        (  293434.081 eV)
    43      43      2.000    -644.804 au  Pa            1.00      1 P:z             1
                        (  -17546.004 eV)
    44      44      2.000    -159.382 au  Pa            1.00      2 P:z             1
                        (   -4336.995 eV)
    45      45      2.000     -38.001 au  Pa            1.00      3 P:z             1
                        (   -1034.059 eV)
    46      46      2.000      -7.452 au  Pa            1.00      4 P:z             1
                        (    -202.774 eV)
    47      47      2.000      -0.880 au  Pa            1.00      5 P:z             1
                        (     -23.949 eV)
    48      48       --        -0.008 au  Pa            1.00      6 P:z             1
                        (      -0.215 eV)
    49      49       --         0.404 au  Pa            1.00      7 P:z             1
                        (      10.994 eV)
    50      50       --         1.850 au  Pa            1.00      8 P:z             1
                        (      50.342 eV)
    51      51       --         7.570 au  Pa            1.00      9 P:z             1
                        (     205.994 eV)
    52      52       --        35.931 au  Pa            1.00     10 P:z             1
                        (     977.731 eV)
    53      53       --       178.469 au  Pa            1.00     11 P:z             1
                        (    4856.387 eV)
    54      54       --      1509.400 au  Pa            1.00     12 P:z             1
                        (   41072.871 eV)
    55      55       --     10783.504 au  Pa            1.00     13 P:z             1
                        (  293434.081 eV)
    56      56      2.000    -127.750 au  Pa            1.00      1 D:z2            1
                        (   -3476.261 eV)
    57      57      2.000     -25.974 au  Pa            1.00      2 D:z2            1
                        (    -706.779 eV)
    58      58      2.000      -3.548 au  Pa            1.00      3 D:z2            1
                        (     -96.540 eV)
    59      59      0.200      -0.066 au  Pa            1.00      4 D:z2            1
                        (      -1.808 eV)
    60      60       --         0.084 au  Pa            1.00      5 D:z2            1
                        (       2.281 eV)
    61      61       --         0.569 au  Pa            1.00      6 D:z2            1
                        (      15.477 eV)
    62      62       --         3.594 au  Pa            1.00      7 D:z2            1
                        (      97.805 eV)
    63      63       --        24.986 au  Pa            1.00      8 D:z2            1
                        (     679.903 eV)
    64      64       --       204.782 au  Pa            1.00      9 D:z2            1
                        (    5572.393 eV)
    65      65      2.000    -127.750 au  Pa            1.00      1 D:x2-y2         1
                        (   -3476.261 eV)
    66      66      2.000     -25.974 au  Pa            1.00      2 D:x2-y2         1
                        (    -706.779 eV)
    67      67      2.000      -3.548 au  Pa            1.00      3 D:x2-y2         1
                        (     -96.540 eV)
    68      68      0.200      -0.066 au  Pa            1.00      4 D:x2-y2         1
                        (      -1.808 eV)
    69      69       --         0.084 au  Pa            1.00      5 D:x2-y2         1
                        (       2.281 eV)
    70      70       --         0.569 au  Pa            1.00      6 D:x2-y2         1
                        (      15.477 eV)
    71      71       --         3.594 au  Pa            1.00      7 D:x2-y2         1
                        (      97.805 eV)
    72      72       --        24.986 au  Pa            1.00      8 D:x2-y2         1
                        (     679.903 eV)
    73      73       --       204.782 au  Pa            1.00      9 D:x2-y2         1
                        (    5572.393 eV)
    74      74      2.000    -127.750 au  Pa            1.00      1 D:xy            1
                        (   -3476.261 eV)
    75      75      2.000     -25.974 au  Pa            1.00      2 D:xy            1
                        (    -706.779 eV)
    76      76      2.000      -3.548 au  Pa            1.00      3 D:xy            1
                        (     -96.540 eV)
    77      77      0.200      -0.066 au  Pa            1.00      4 D:xy            1
                        (      -1.808 eV)
    78      78       --         0.084 au  Pa            1.00      5 D:xy            1
                        (       2.281 eV)
    79      79       --         0.569 au  Pa            1.00      6 D:xy            1
                        (      15.477 eV)
    80      80       --         3.594 au  Pa            1.00      7 D:xy            1
                        (      97.805 eV)
    81      81       --        24.986 au  Pa            1.00      8 D:xy            1
                        (     679.903 eV)
    82      82       --       204.782 au  Pa            1.00      9 D:xy            1
                        (    5572.393 eV)
    83      83      2.000    -127.750 au  Pa            1.00      1 D:xz            1
                        (   -3476.261 eV)
    84      84      2.000     -25.974 au  Pa            1.00      2 D:xz            1
                        (    -706.779 eV)
    85      85      2.000      -3.548 au  Pa            1.00      3 D:xz            1
                        (     -96.540 eV)
    86      86      0.200      -0.066 au  Pa            1.00      4 D:xz            1
                        (      -1.808 eV)
    87      87       --         0.084 au  Pa            1.00      5 D:xz            1
                        (       2.281 eV)
    88      88       --         0.569 au  Pa            1.00      6 D:xz            1
                        (      15.477 eV)
    89      89       --         3.594 au  Pa            1.00      7 D:xz            1
                        (      97.805 eV)
    90      90       --        24.986 au  Pa            1.00      8 D:xz            1
                        (     679.903 eV)
    91      91       --       204.782 au  Pa            1.00      9 D:xz            1
                        (    5572.393 eV)
    92      92      2.000    -127.750 au  Pa            1.00      1 D:yz            1
                        (   -3476.261 eV)
    93      93      2.000     -25.974 au  Pa            1.00      2 D:yz            1
                        (    -706.779 eV)
    94      94      2.000      -3.548 au  Pa            1.00      3 D:yz            1
                        (     -96.540 eV)
    95      95      0.200      -0.066 au  Pa            1.00      4 D:yz            1
                        (      -1.808 eV)
    96      96       --         0.084 au  Pa            1.00      5 D:yz            1
                        (       2.281 eV)
    97      97       --         0.569 au  Pa            1.00      6 D:yz            1
                        (      15.477 eV)
    98      98       --         3.594 au  Pa            1.00      7 D:yz            1
                        (      97.805 eV)
    99      99       --        24.986 au  Pa            1.00      8 D:yz            1
                        (     679.903 eV)
   100     100       --       204.782 au  Pa            1.00      9 D:yz            1
                        (    5572.393 eV)
   101     101      2.000     -13.085 au  Pa            1.00      1 F:z3            1
                        (    -356.050 eV)
   102     102      0.286      -0.042 au  Pa            1.00      2 F:z3            1
                        (      -1.139 eV)
   103     103       --         0.419 au  Pa            1.00      3 F:z3            1
                        (      11.400 eV)
   104     104       --         2.553 au  Pa            1.00      4 F:z3            1
                        (      69.470 eV)
   105     105       --        21.603 au  Pa            1.00      5 F:z3            1
                        (     587.835 eV)
   106     106      2.000     -13.085 au  Pa            1.00      1 F:z             1
                        (    -356.050 eV)
   107     107      0.286      -0.042 au  Pa            1.00      2 F:z             1
                        (      -1.139 eV)
   108     108       --         0.419 au  Pa            1.00      3 F:z             1
                        (      11.400 eV)
   109     109       --         2.553 au  Pa            1.00      4 F:z             1
                        (      69.470 eV)
   110     110       --        21.603 au  Pa            1.00      5 F:z             1
                        (     587.835 eV)
   111     111      2.000     -13.085 au  Pa            1.00      1 F:xyz           1
                        (    -356.050 eV)
   112     112      0.286      -0.042 au  Pa            1.00      2 F:xyz           1
                        (      -1.139 eV)
   113     113       --         0.419 au  Pa            1.00      3 F:xyz           1
                        (      11.400 eV)
   114     114       --         2.553 au  Pa            1.00      4 F:xyz           1
                        (      69.470 eV)
   115     115       --        21.603 au  Pa            1.00      5 F:xyz           1
                        (     587.835 eV)
   116     116      2.000     -13.085 au  Pa            1.00      1 F:z2x           1
                        (    -356.050 eV)
   117     117      0.286      -0.042 au  Pa            1.00      2 F:z2x           1
                        (      -1.139 eV)
   118     118       --         0.419 au  Pa            1.00      3 F:z2x           1
                        (      11.400 eV)
   119     119       --         2.553 au  Pa            1.00      4 F:z2x           1
                        (      69.470 eV)
   120     120       --        21.603 au  Pa            1.00      5 F:z2x           1
                        (     587.835 eV)
   121     121      2.000     -13.085 au  Pa            1.00      1 F:z2y           1
                        (    -356.050 eV)
   122     122      0.286      -0.042 au  Pa            1.00      2 F:z2y           1
                        (      -1.139 eV)
   123     123       --         0.419 au  Pa            1.00      3 F:z2y           1
                        (      11.400 eV)
   124     124       --         2.553 au  Pa            1.00      4 F:z2y           1
                        (      69.470 eV)
   125     125       --        21.603 au  Pa            1.00      5 F:z2y           1
                        (     587.835 eV)
   126     126      2.000     -13.085 au  Pa            1.00      1 F:x             1
                        (    -356.050 eV)
   127     127      0.286      -0.042 au  Pa            1.00      2 F:x             1
                        (      -1.139 eV)
   128     128       --         0.419 au  Pa            1.00      3 F:x             1
                        (      11.400 eV)
   129     129       --         2.553 au  Pa            1.00      4 F:x             1
                        (      69.470 eV)
   130     130       --        21.603 au  Pa            1.00      5 F:x             1
                        (     587.835 eV)
   131     131      2.000     -13.085 au  Pa            1.00      1 F:y             1
                        (    -356.050 eV)
   132     132      0.286      -0.042 au  Pa            1.00      2 F:y             1
                        (      -1.139 eV)
   133     133       --         0.419 au  Pa            1.00      3 F:y             1
                        (      11.400 eV)
   134     134       --         2.553 au  Pa            1.00      4 F:y             1
                        (      69.470 eV)
   135     135       --        21.603 au  Pa            1.00      5 F:y             1
                        (     587.835 eV)
   136     136      2.000    -490.425 au  Br            1.00      1 S               2
                        (  -13345.153 eV)
   137     137      2.000     -64.284 au  Br            1.00      2 S               2
                        (   -1749.254 eV)
   138     138      2.000      -9.014 au  Br            1.00      3 S               2
                        (    -245.287 eV)
   139     139      2.000      -0.803 au  Br            1.00      4 S               2
                        (     -21.839 eV)
   140     140       --         0.253 au  Br            1.00      5 S               2
                        (       6.896 eV)
   141     141       --         2.489 au  Br            1.00      6 S               2
                        (      67.729 eV)
   142     142       --        13.742 au  Br            1.00      7 S               2
                        (     373.941 eV)
   143     143       --       616.782 au  Br            1.00      8 S               2
                        (   16783.495 eV)
   144     144      2.000     -56.699 au  Br            1.00      1 P:x             2
                        (   -1542.860 eV)
   145     145      2.000      -6.616 au  Br            1.00      2 P:x             2
                        (    -180.024 eV)
   146     146      1.667      -0.315 au  Br            1.00      3 P:x             2
                        (      -8.570 eV)
   147     147       --         0.156 au  Br            1.00      4 P:x             2
                        (       4.239 eV)
   148     148       --         1.263 au  Br            1.00      5 P:x             2
                        (      34.364 eV)
   149     149       --         8.906 au  Br            1.00      6 P:x             2
                        (     242.347 eV)
   150     150       --        96.229 au  Br            1.00      7 P:x             2
                        (    2618.513 eV)
   151     151      2.000     -56.699 au  Br            1.00      1 P:y             2
                        (   -1542.860 eV)
   152     152      2.000      -6.616 au  Br            1.00      2 P:y             2
                        (    -180.024 eV)
   153     153      1.667      -0.315 au  Br            1.00      3 P:y             2
                        (      -8.570 eV)
   154     154       --         0.156 au  Br            1.00      4 P:y             2
                        (       4.239 eV)
   155     155       --         1.263 au  Br            1.00      5 P:y             2
                        (      34.364 eV)
   156     156       --         8.906 au  Br            1.00      6 P:y             2
                        (     242.347 eV)
   157     157       --        96.229 au  Br            1.00      7 P:y             2
                        (    2618.513 eV)
   158     158      2.000     -56.699 au  Br            1.00      1 P:z             2
                        (   -1542.860 eV)
   159     159      2.000      -6.616 au  Br            1.00      2 P:z             2
                        (    -180.024 eV)
   160     160      1.667      -0.315 au  Br            1.00      3 P:z             2
                        (      -8.570 eV)
   161     161       --         0.156 au  Br            1.00      4 P:z             2
                        (       4.239 eV)
   162     162       --         1.263 au  Br            1.00      5 P:z             2
                        (      34.364 eV)
   163     163       --         8.906 au  Br            1.00      6 P:z             2
                        (     242.347 eV)
   164     164       --        96.229 au  Br            1.00      7 P:z             2
                        (    2618.513 eV)
   165     165      2.000      -2.608 au  Br            1.00      1 D:z2            2
                        (     -70.973 eV)
   166     166       --         0.301 au  Br            1.00      2 D:z2            2
                        (       8.189 eV)
   167     167       --         2.805 au  Br            1.00      3 D:z2            2
                        (      76.341 eV)
   168     168       --        20.795 au  Br            1.00      4 D:z2            2
                        (     565.860 eV)
   169     169      2.000      -2.608 au  Br            1.00      1 D:x2-y2         2
                        (     -70.973 eV)
   170     170       --         0.301 au  Br            1.00      2 D:x2-y2         2
                        (       8.189 eV)
   171     171       --         2.805 au  Br            1.00      3 D:x2-y2         2
                        (      76.341 eV)
   172     172       --        20.795 au  Br            1.00      4 D:x2-y2         2
                        (     565.860 eV)
   173     173      2.000      -2.608 au  Br            1.00      1 D:xy            2
                        (     -70.973 eV)
   174     174       --         0.301 au  Br            1.00      2 D:xy            2
                        (       8.189 eV)
   175     175       --         2.805 au  Br            1.00      3 D:xy            2
                        (      76.341 eV)
   176     176       --        20.795 au  Br            1.00      4 D:xy            2
                        (     565.860 eV)
   177     177      2.000      -2.608 au  Br            1.00      1 D:xz            2
                        (     -70.973 eV)
   178     178       --         0.301 au  Br            1.00      2 D:xz            2
                        (       8.189 eV)
   179     179       --         2.805 au  Br            1.00      3 D:xz            2
                        (      76.341 eV)
   180     180       --        20.795 au  Br            1.00      4 D:xz            2
                        (     565.860 eV)
   181     181      2.000      -2.608 au  Br            1.00      1 D:yz            2
                        (     -70.973 eV)
   182     182       --         0.301 au  Br            1.00      2 D:yz            2
                        (       8.189 eV)
   183     183       --         2.805 au  Br            1.00      3 D:yz            2
                        (      76.341 eV)
   184     184       --        20.795 au  Br            1.00      4 D:yz            2
                        (     565.860 eV)
   185     185       --         0.902 au  Br            1.00      1 F:z3            2
                        (      24.536 eV)
   186     186       --         0.902 au  Br            1.00      1 F:z             2
                        (      24.536 eV)
   187     187       --         0.902 au  Br            1.00      1 F:xyz           2
                        (      24.536 eV)
   188     188       --         0.902 au  Br            1.00      1 F:z2x           2
                        (      24.536 eV)
   189     189       --         0.902 au  Br            1.00      1 F:z2y           2
                        (      24.536 eV)
   190     190       --         0.902 au  Br            1.00      1 F:x             2
                        (      24.536 eV)
   191     191       --         0.902 au  Br            1.00      1 F:y             2
                        (      24.536 eV)
   192     192      1.000      -0.244 au  H             1.00      1 S               3
                        (      -6.641 eV)
   193     193       --         0.104 au  H             1.00      2 S               3
                        (       2.836 eV)
   194     194       --         1.564 au  H             1.00      3 S               3
                        (      42.560 eV)
   195     195       --         0.436 au  H             1.00      1 P:x             3
                        (      11.864 eV)
   196     196       --         0.436 au  H             1.00      1 P:y             3
                        (      11.864 eV)
   197     197       --         0.436 au  H             1.00      1 P:z             3
                        (      11.864 eV)
   198     198       --         2.617 au  H             1.00      1 D:z2            3
                        (      71.221 eV)
   199     199       --         2.617 au  H             1.00      1 D:x2-y2         3
                        (      71.221 eV)
   200     200       --         2.617 au  H             1.00      1 D:xy            3
                        (      71.221 eV)
   201     201       --         2.617 au  H             1.00      1 D:xz            3
                        (      71.221 eV)
   202     202       --         2.617 au  H             1.00      1 D:yz            3
                        (      71.221 eV)
   203     203      1.000      -0.244 au  H             1.00      1 S               4
                        (      -6.641 eV)
   204     204       --         0.104 au  H             1.00      2 S               4
                        (       2.836 eV)
   205     205       --         1.564 au  H             1.00      3 S               4
                        (      42.560 eV)
   206     206       --         0.436 au  H             1.00      1 P:x             4
                        (      11.864 eV)
   207     207       --         0.436 au  H             1.00      1 P:y             4
                        (      11.864 eV)
   208     208       --         0.436 au  H             1.00      1 P:z             4
                        (      11.864 eV)
   209     209       --         2.617 au  H             1.00      1 D:z2            4
                        (      71.221 eV)
   210     210       --         2.617 au  H             1.00      1 D:x2-y2         4
                        (      71.221 eV)
   211     211       --         2.617 au  H             1.00      1 D:xy            4
                        (      71.221 eV)
   212     212       --         2.617 au  H             1.00      1 D:xz            4
                        (      71.221 eV)
   213     213       --         2.617 au  H             1.00      1 D:yz            4
                        (      71.221 eV)
   214     214      1.000      -0.244 au  H             1.00      1 S               5
                        (      -6.641 eV)
   215     215       --         0.104 au  H             1.00      2 S               5
                        (       2.836 eV)
   216     216       --         1.564 au  H             1.00      3 S               5
                        (      42.560 eV)
   217     217       --         0.436 au  H             1.00      1 P:x             5
                        (      11.864 eV)
   218     218       --         0.436 au  H             1.00      1 P:y             5
                        (      11.864 eV)
   219     219       --         0.436 au  H             1.00      1 P:z             5
                        (      11.864 eV)
   220     220       --         2.617 au  H             1.00      1 D:z2            5
                        (      71.221 eV)
   221     221       --         2.617 au  H             1.00      1 D:x2-y2         5
                        (      71.221 eV)
   222     222       --         2.617 au  H             1.00      1 D:xy            5
                        (      71.221 eV)
   223     223       --         2.617 au  H             1.00      1 D:xz            5
                        (      71.221 eV)
   224     224       --         2.617 au  H             1.00      1 D:yz            5
                        (      71.221 eV)
   225     225      1.000      -0.244 au  H             1.00      1 S               6
                        (      -6.641 eV)
   226     226       --         0.104 au  H             1.00      2 S               6
                        (       2.836 eV)
   227     227       --         1.564 au  H             1.00      3 S               6
                        (      42.560 eV)
   228     228       --         0.436 au  H             1.00      1 P:x             6
                        (      11.864 eV)
   229     229       --         0.436 au  H             1.00      1 P:y             6
                        (      11.864 eV)
   230     230       --         0.436 au  H             1.00      1 P:z             6
                        (      11.864 eV)
   231     231       --         2.617 au  H             1.00      1 D:z2            6
                        (      71.221 eV)
   232     232       --         2.617 au  H             1.00      1 D:x2-y2         6
                        (      71.221 eV)
   233     233       --         2.617 au  H             1.00      1 D:xy            6
                        (      71.221 eV)
   234     234       --         2.617 au  H             1.00      1 D:xz            6
                        (      71.221 eV)
   235     235       --         2.617 au  H             1.00      1 D:yz            6
                        (      71.221 eV)
   236     236      2.000     -19.315 au  O             1.00      1 S               7
                        (    -525.599 eV)
   237     237      2.000      -0.972 au  O             1.00      2 S               7
                        (     -26.457 eV)
   238     238       --         0.838 au  O             1.00      3 S               7
                        (      22.795 eV)
   239     239       --        13.598 au  O             1.00      4 S               7
                        (     370.019 eV)
   240     240       --       122.184 au  O             1.00      5 S               7
                        (    3324.790 eV)
   241     241      1.333      -0.361 au  O             1.00      1 P:x             7
                        (      -9.818 eV)
   242     242       --         0.380 au  O             1.00      2 P:x             7
                        (      10.337 eV)
   243     243       --         3.931 au  O             1.00      3 P:x             7
                        (     106.958 eV)
   244     244      1.333      -0.361 au  O             1.00      1 P:y             7
                        (      -9.818 eV)
   245     245       --         0.380 au  O             1.00      2 P:y             7
                        (      10.337 eV)
   246     246       --         3.931 au  O             1.00      3 P:y             7
                        (     106.958 eV)
   247     247      1.333      -0.361 au  O             1.00      1 P:z             7
                        (      -9.818 eV)
   248     248       --         0.380 au  O             1.00      2 P:z             7
                        (      10.337 eV)
   249     249       --         3.931 au  O             1.00      3 P:z             7
                        (     106.958 eV)
   250     250       --         1.117 au  O             1.00      1 D:z2            7
                        (      30.399 eV)
   251     251       --         1.117 au  O             1.00      1 D:x2-y2         7
                        (      30.399 eV)
   252     252       --         1.117 au  O             1.00      1 D:xy            7
                        (      30.399 eV)
   253     253       --         1.117 au  O             1.00      1 D:xz            7
                        (      30.399 eV)
   254     254       --         1.117 au  O             1.00      1 D:yz            7
                        (      30.399 eV)
   255     255       --         3.432 au  O             1.00      1 F:z3            7
                        (      93.382 eV)
   256     256       --         3.432 au  O             1.00      1 F:z             7
                        (      93.382 eV)
   257     257       --         3.432 au  O             1.00      1 F:xyz           7
                        (      93.382 eV)
   258     258       --         3.432 au  O             1.00      1 F:z2x           7
                        (      93.382 eV)
   259     259       --         3.432 au  O             1.00      1 F:z2y           7
                        (      93.382 eV)
   260     260       --         3.432 au  O             1.00      1 F:x             7
                        (      93.382 eV)
   261     261       --         3.432 au  O             1.00      1 F:y             7
                        (      93.382 eV)
   262     262      2.000     -19.315 au  O             1.00      1 S               8
                        (    -525.599 eV)
   263     263      2.000      -0.972 au  O             1.00      2 S               8
                        (     -26.457 eV)
   264     264       --         0.838 au  O             1.00      3 S               8
                        (      22.795 eV)
   265     265       --        13.598 au  O             1.00      4 S               8
                        (     370.019 eV)
   266     266       --       122.184 au  O             1.00      5 S               8
                        (    3324.790 eV)
   267     267      1.333      -0.361 au  O             1.00      1 P:x             8
                        (      -9.818 eV)
   268     268       --         0.380 au  O             1.00      2 P:x             8
                        (      10.337 eV)
   269     269       --         3.931 au  O             1.00      3 P:x             8
                        (     106.958 eV)
   270     270      1.333      -0.361 au  O             1.00      1 P:y             8
                        (      -9.818 eV)
   271     271       --         0.380 au  O             1.00      2 P:y             8
                        (      10.337 eV)
   272     272       --         3.931 au  O             1.00      3 P:y             8
                        (     106.958 eV)
   273     273      1.333      -0.361 au  O             1.00      1 P:z             8
                        (      -9.818 eV)
   274     274       --         0.380 au  O             1.00      2 P:z             8
                        (      10.337 eV)
   275     275       --         3.931 au  O             1.00      3 P:z             8
                        (     106.958 eV)
   276     276       --         1.117 au  O             1.00      1 D:z2            8
                        (      30.399 eV)
   277     277       --         1.117 au  O             1.00      1 D:x2-y2         8
                        (      30.399 eV)
   278     278       --         1.117 au  O             1.00      1 D:xy            8
                        (      30.399 eV)
   279     279       --         1.117 au  O             1.00      1 D:xz            8
                        (      30.399 eV)
   280     280       --         1.117 au  O             1.00      1 D:yz            8
                        (      30.399 eV)
   281     281       --         3.432 au  O             1.00      1 F:z3            8
                        (      93.382 eV)
   282     282       --         3.432 au  O             1.00      1 F:z             8
                        (      93.382 eV)
   283     283       --         3.432 au  O             1.00      1 F:xyz           8
                        (      93.382 eV)
   284     284       --         3.432 au  O             1.00      1 F:z2x           8
                        (      93.382 eV)
   285     285       --         3.432 au  O             1.00      1 F:z2y           8
                        (      93.382 eV)
   286     286       --         3.432 au  O             1.00      1 F:x             8
                        (      93.382 eV)
   287     287       --         3.432 au  O             1.00      1 F:y             8
                        (      93.382 eV)
   288     288      2.000     -19.315 au  O             1.00      1 S               9
                        (    -525.599 eV)
   289     289      2.000      -0.972 au  O             1.00      2 S               9
                        (     -26.457 eV)
   290     290       --         0.838 au  O             1.00      3 S               9
                        (      22.795 eV)
   291     291       --        13.598 au  O             1.00      4 S               9
                        (     370.019 eV)
   292     292       --       122.184 au  O             1.00      5 S               9
                        (    3324.790 eV)
   293     293      1.333      -0.361 au  O             1.00      1 P:x             9
                        (      -9.818 eV)
   294     294       --         0.380 au  O             1.00      2 P:x             9
                        (      10.337 eV)
   295     295       --         3.931 au  O             1.00      3 P:x             9
                        (     106.958 eV)
   296     296      1.333      -0.361 au  O             1.00      1 P:y             9
                        (      -9.818 eV)
   297     297       --         0.380 au  O             1.00      2 P:y             9
                        (      10.337 eV)
   298     298       --         3.931 au  O             1.00      3 P:y             9
                        (     106.958 eV)
   299     299      1.333      -0.361 au  O             1.00      1 P:z             9
                        (      -9.818 eV)
   300     300       --         0.380 au  O             1.00      2 P:z             9
                        (      10.337 eV)
   301     301       --         3.931 au  O             1.00      3 P:z             9
                        (     106.958 eV)
   302     302       --         1.117 au  O             1.00      1 D:z2            9
                        (      30.399 eV)
   303     303       --         1.117 au  O             1.00      1 D:x2-y2         9
                        (      30.399 eV)
   304     304       --         1.117 au  O             1.00      1 D:xy            9
                        (      30.399 eV)
   305     305       --         1.117 au  O             1.00      1 D:xz            9
                        (      30.399 eV)
   306     306       --         1.117 au  O             1.00      1 D:yz            9
                        (      30.399 eV)
   307     307       --         3.432 au  O             1.00      1 F:z3            9
                        (      93.382 eV)
   308     308       --         3.432 au  O             1.00      1 F:z             9
                        (      93.382 eV)
   309     309       --         3.432 au  O             1.00      1 F:xyz           9
                        (      93.382 eV)
   310     310       --         3.432 au  O             1.00      1 F:z2x           9
                        (      93.382 eV)
   311     311       --         3.432 au  O             1.00      1 F:z2y           9
                        (      93.382 eV)
   312     312       --         3.432 au  O             1.00      1 F:x             9
                        (      93.382 eV)
   313     313       --         3.432 au  O             1.00      1 F:y             9
                        (      93.382 eV)
   314     314      2.000     -19.315 au  O             1.00      1 S              10
                        (    -525.599 eV)
   315     315      2.000      -0.972 au  O             1.00      2 S              10
                        (     -26.457 eV)
   316     316       --         0.838 au  O             1.00      3 S              10
                        (      22.795 eV)
   317     317       --        13.598 au  O             1.00      4 S              10
                        (     370.019 eV)
   318     318       --       122.184 au  O             1.00      5 S              10
                        (    3324.790 eV)
   319     319      1.333      -0.361 au  O             1.00      1 P:x            10
                        (      -9.818 eV)
   320     320       --         0.380 au  O             1.00      2 P:x            10
                        (      10.337 eV)
   321     321       --         3.931 au  O             1.00      3 P:x            10
                        (     106.958 eV)
   322     322      1.333      -0.361 au  O             1.00      1 P:y            10
                        (      -9.818 eV)
   323     323       --         0.380 au  O             1.00      2 P:y            10
                        (      10.337 eV)
   324     324       --         3.931 au  O             1.00      3 P:y            10
                        (     106.958 eV)
   325     325      1.333      -0.361 au  O             1.00      1 P:z            10
                        (      -9.818 eV)
   326     326       --         0.380 au  O             1.00      2 P:z            10
                        (      10.337 eV)
   327     327       --         3.931 au  O             1.00      3 P:z            10
                        (     106.958 eV)
   328     328       --         1.117 au  O             1.00      1 D:z2           10
                        (      30.399 eV)
   329     329       --         1.117 au  O             1.00      1 D:x2-y2        10
                        (      30.399 eV)
   330     330       --         1.117 au  O             1.00      1 D:xy           10
                        (      30.399 eV)
   331     331       --         1.117 au  O             1.00      1 D:xz           10
                        (      30.399 eV)
   332     332       --         1.117 au  O             1.00      1 D:yz           10
                        (      30.399 eV)
   333     333       --         3.432 au  O             1.00      1 F:z3           10
                        (      93.382 eV)
   334     334       --         3.432 au  O             1.00      1 F:z            10
                        (      93.382 eV)
   335     335       --         3.432 au  O             1.00      1 F:xyz          10
                        (      93.382 eV)
   336     336       --         3.432 au  O             1.00      1 F:z2x          10
                        (      93.382 eV)
   337     337       --         3.432 au  O             1.00      1 F:z2y          10
                        (      93.382 eV)
   338     338       --         3.432 au  O             1.00      1 F:x            10
                        (      93.382 eV)
   339     339       --         3.432 au  O             1.00      1 F:y            10
                        (      93.382 eV)



 ================================
 (Slater-type)  F U N C T I O N S  ***  (Basis and Fit)  ***
 ================================
  

 Atom Type    1  (Pa)
 ==============

 Valence Basis Sets:  43
 -----------------------
   1 S 1028.000000
   1 S  240.000000
   1 S  107.000000
   2 S  131.500000
   2 S   46.500000
   3 S   59.100000
   3 S   25.450000
   4 S   15.550000
   4 S   11.050000
   5 S   10.200000
   5 S    7.100000
   6 S    4.950000
   6 S    3.250000
   7 S    2.350000
   7 S    1.550000
   7 S    1.020000
   2 P  240.000000
   2 P   84.000000
   2 P   43.600000
   3 P   24.750000
   3 P   17.850000
   4 P   17.650000
   4 P   12.100000
   5 P    8.500000
   5 P    5.900000
   6 P    4.400000
   6 P    3.000000
   6 P    2.100000
   3 D   33.750000
   3 D   21.750000
   4 D   15.300000
   4 D   10.450000
   5 D    7.150000
   5 D    4.600000
   6 D    3.000000
   6 D    1.700000
   6 D    0.980000
   4 F   17.100000
   4 F    9.350000
   5 F    5.850000
   5 F    3.150000
   5 F    1.550000
   7 P    1.550000

 Charge Fitting Sets (for the computation of the Coulomb Potential):  87
 -----------------------------------------------------------------------
   1 S 2056.000000
   1 S 1549.519000
   1 S 1167.806000
   1 S  880.126000
   1 S  663.313000
   1 S  499.911000
   1 S  376.761000
   1 S  283.949000
   1 S  214.000000
   1 S  127.280000
   2 S  140.220000
   2 S   93.850000
   3 S   92.230000
   3 S   65.710000
   4 S   61.900000
   4 S   45.910000
   5 S   42.420000
   5 S   32.370000
   6 S   29.610000
   6 S   23.090000
   7 S   21.000000
   7 S   16.670000
   8 S   15.120000
   8 S   12.170000
   9 S   11.020000
   9 S    8.970000
  10 S    8.120000
  10 S    6.680000
  11 S    6.050000
  11 S    5.020000
  12 S    4.550000
  12 S    3.800000
  12 S    3.180000
  13 S    2.880000
  13 S    2.420000
  13 S    2.040000
   2 P  150.600000
   3 P  125.870000
   4 P  103.260000
   5 P   84.350000
   6 P   68.960000
   7 P   56.560000
   7 P   40.600000
   8 P   33.430000
   8 P   24.490000
   9 P   20.250000
   9 P   15.090000
  10 P   12.530000
  10 P    9.470000
  11 P    7.900000
  11 P    6.040000
  12 P    5.060000
  12 P    3.910000
  13 P    3.290000
  13 P    2.570000
   3 D  128.750000
   4 D   91.090000
   5 D   65.210000
   6 D   47.270000
   7 D   34.690000
   8 D   25.740000
   9 D   19.290000
   9 D   13.060000
  10 D    9.880000
  10 D    6.820000
  11 D    5.210000
  11 D    3.650000
  12 D    2.810000
  12 D    2.000000
   4 F  116.350000
   5 F   72.360000
   6 F   46.140000
   7 F   30.070000
   8 F   19.970000
   9 F   13.480000
  10 F    9.240000
  10 F    5.790000
  11 F    4.020000
  11 F    2.570000
   5 G   52.950000
   6 G   31.380000
   7 G   19.110000
   8 G   11.920000
   9 G    7.580000
  10 G    4.910000
  11 G    3.230000
  11 G    1.960000

 Atom Type    2  (Br)
 ==============

 Valence Basis Sets:  20
 -----------------------
   1 S   41.300000
   1 S   32.800000
   2 S   13.900000
   2 P   19.450000
   2 P   13.100000
   3 S    7.200000
   3 S    4.950000
   3 P    7.900000
   3 P    5.050000
   3 D   10.900000
   3 D    6.050000
   3 D    3.500000
   4 S    4.500000
   4 S    2.800000
   4 S    1.800000
   4 P    3.250000
   4 P    1.950000
   4 P    1.200000
   4 D    1.800000
   4 F    1.800000

 Charge Fitting Sets (for the computation of the Coulomb Potential):  41
 -----------------------------------------------------------------------
   1 S   82.600000
   2 S   92.520000
   2 S   62.760000
   3 S   62.470000
   3 S   45.010000
   4 S   42.870000
   4 S   32.110000
   4 S   24.060000
   5 S   22.440000
   5 S   17.280000
   5 S   13.310000
   6 S   12.280000
   6 S    9.660000
   6 S    7.590000
   6 S    5.970000
   7 S    5.480000
   7 S    4.380000
   7 S    3.500000
   7 S    2.800000
   2 P   60.750000
   3 P   39.390000
   4 P   25.970000
   5 P   17.450000
   6 P   11.940000
   6 P    7.050000
   7 P    4.900000
   7 P    3.000000
   3 D   47.350000
   4 D   30.380000
   5 D   19.930000
   6 D   13.340000
   6 D    7.700000
   7 D    5.250000
   7 D    3.150000
   4 F   19.840000
   5 F   11.010000
   6 F    6.330000
   7 F    3.750000
   5 G   10.680000
   6 G    6.110000
   7 G    3.600000

 Atom Type    3  (H)
 ==============

 Valence Basis Sets:   5
 -----------------------
   1 S    0.690000
   1 S    0.920000
   1 S    1.580000
   2 P    1.250000
   3 D    2.500000

 Charge Fitting Sets (for the computation of the Coulomb Potential):  11
 -----------------------------------------------------------------------
   1 S    3.160000
   1 S    2.090000
   1 S    1.380000
   2 S    1.500000
   2 P    4.000000
   2 P    2.650000
   2 P    1.750000
   3 D    4.000000
   3 D    2.500000
   4 F    3.000000
   5 G    4.000000

 Atom Type    4  (O)
 ==============

 Valence Basis Sets:  10
 -----------------------
   1 S    9.800000
   1 S    6.800000
   2 S    7.580000
   2 S    2.880000
   2 S    1.720000
   2 P    4.080000
   2 P    2.080000
   2 P    1.120000
   3 D    2.000000
   4 F    3.000000

 Charge Fitting Sets (for the computation of the Coulomb Potential):  22
 -----------------------------------------------------------------------
   1 S   19.600000
   2 S   22.600000
   2 S   15.680000
   2 S   10.890000
   2 S    7.560000
   3 S    7.690000
   3 S    5.650000
   3 S    4.150000
   3 S    3.050000
   3 S    2.240000
   2 P   12.860000
   2 P    7.680000
   3 P    6.780000
   3 P    4.390000
   3 P    2.840000
   3 D    8.800000
   3 D    5.580000
   3 D    3.530000
   3 D    2.240000
   4 F    6.200000
   4 F    3.700000
   5 G    4.500000


 BAS: List of all Elementary Cartesian Basis Functions
 =====================================================

 The numbering in the list below (to the right of the function characteristics) is referred
 to in print-outs of MO eigenvectors and Mulliken populations in the BAS representation
 (as contrasted to the SFO representation).

 Notes:
 1. The functions are characterized by a polynomial prefactor (powers of x,y,z and r) and
    an exponential decay factor alpha.
 2. Since the basis sets are specific for an atom TYPE, the individual functions occur on
    all atoms of that type.
 3. The word 'Core' in the left margin signals that it is a Core Function (CF) : not a
    degree of freedom in the valence set, but only used to ensure orthogonalization of
    the other valence basis functions on the frozen Core Orbitals.


 (power of) X  Y  Z  R     Alpha  on Atom
            ==========     =====     ==========

 Pa                                   1
                                  ---------------------------------------------------------------------------
            0  0  0  0  1028.000      1
            0  0  0  0   240.000      2
            0  0  0  0   107.000      3
            0  0  0  1   131.500      4
            0  0  0  1    46.500      5
            0  0  0  2    59.100      6
            0  0  0  2    25.450      7
            0  0  0  3    15.550      8
            0  0  0  3    11.050      9
            0  0  0  4    10.200     10
            0  0  0  4     7.100     11
            0  0  0  5     4.950     12
            0  0  0  5     3.250     13
            0  0  0  6     2.350     14
            0  0  0  6     1.550     15
            0  0  0  6     1.020     16
            1  0  0  0   240.000     17
            0  1  0  0   240.000     18
            0  0  1  0   240.000     19
            1  0  0  0    84.000     20
            0  1  0  0    84.000     21
            0  0  1  0    84.000     22
            1  0  0  0    43.600     23
            0  1  0  0    43.600     24
            0  0  1  0    43.600     25
            1  0  0  1    24.750     26
            0  1  0  1    24.750     27
            0  0  1  1    24.750     28
            1  0  0  1    17.850     29
            0  1  0  1    17.850     30
            0  0  1  1    17.850     31
            1  0  0  2    17.650     32
            0  1  0  2    17.650     33
            0  0  1  2    17.650     34
            1  0  0  2    12.100     35
            0  1  0  2    12.100     36
            0  0  1  2    12.100     37
            1  0  0  3     8.500     38
            0  1  0  3     8.500     39
            0  0  1  3     8.500     40
            1  0  0  3     5.900     41
            0  1  0  3     5.900     42
            0  0  1  3     5.900     43
            1  0  0  4     4.400     44
            0  1  0  4     4.400     45
            0  0  1  4     4.400     46
            1  0  0  4     3.000     47
            0  1  0  4     3.000     48
            0  0  1  4     3.000     49
            1  0  0  4     2.100     50
            0  1  0  4     2.100     51
            0  0  1  4     2.100     52
            2  0  0  0    33.750     53
            1  1  0  0    33.750     54
            1  0  1  0    33.750     55
            0  2  0  0    33.750     56
            0  1  1  0    33.750     57
            0  0  2  0    33.750     58
            2  0  0  0    21.750     59
            1  1  0  0    21.750     60
            1  0  1  0    21.750     61
            0  2  0  0    21.750     62
            0  1  1  0    21.750     63
            0  0  2  0    21.750     64
            2  0  0  1    15.300     65
            1  1  0  1    15.300     66
            1  0  1  1    15.300     67
            0  2  0  1    15.300     68
            0  1  1  1    15.300     69
            0  0  2  1    15.300     70
            2  0  0  1    10.450     71
            1  1  0  1    10.450     72
            1  0  1  1    10.450     73
            0  2  0  1    10.450     74
            0  1  1  1    10.450     75
            0  0  2  1    10.450     76
            2  0  0  2     7.150     77
            1  1  0  2     7.150     78
            1  0  1  2     7.150     79
            0  2  0  2     7.150     80
            0  1  1  2     7.150     81
            0  0  2  2     7.150     82
            2  0  0  2     4.600     83
            1  1  0  2     4.600     84
            1  0  1  2     4.600     85
            0  2  0  2     4.600     86
            0  1  1  2     4.600     87
            0  0  2  2     4.600     88
            2  0  0  3     3.000     89
            1  1  0  3     3.000     90
            1  0  1  3     3.000     91
            0  2  0  3     3.000     92
            0  1  1  3     3.000     93
            0  0  2  3     3.000     94
            2  0  0  3     1.700     95
            1  1  0  3     1.700     96
            1  0  1  3     1.700     97
            0  2  0  3     1.700     98
            0  1  1  3     1.700     99
            0  0  2  3     1.700    100
            2  0  0  3     0.980    101
            1  1  0  3     0.980    102
            1  0  1  3     0.980    103
            0  2  0  3     0.980    104
            0  1  1  3     0.980    105
            0  0  2  3     0.980    106
            3  0  0  0    17.100    107
            2  1  0  0    17.100    108
            2  0  1  0    17.100    109
            1  2  0  0    17.100    110
            1  1  1  0    17.100    111
            1  0  2  0    17.100    112
            0  3  0  0    17.100    113
            0  2  1  0    17.100    114
            0  1  2  0    17.100    115
            0  0  3  0    17.100    116
            3  0  0  0     9.350    117
            2  1  0  0     9.350    118
            2  0  1  0     9.350    119
            1  2  0  0     9.350    120
            1  1  1  0     9.350    121
            1  0  2  0     9.350    122
            0  3  0  0     9.350    123
            0  2  1  0     9.350    124
            0  1  2  0     9.350    125
            0  0  3  0     9.350    126
            3  0  0  1     5.850    127
            2  1  0  1     5.850    128
            2  0  1  1     5.850    129
            1  2  0  1     5.850    130
            1  1  1  1     5.850    131
            1  0  2  1     5.850    132
            0  3  0  1     5.850    133
            0  2  1  1     5.850    134
            0  1  2  1     5.850    135
            0  0  3  1     5.850    136
            3  0  0  1     3.150    137
            2  1  0  1     3.150    138
            2  0  1  1     3.150    139
            1  2  0  1     3.150    140
            1  1  1  1     3.150    141
            1  0  2  1     3.150    142
            0  3  0  1     3.150    143
            0  2  1  1     3.150    144
            0  1  2  1     3.150    145
            0  0  3  1     3.150    146
            3  0  0  1     1.550    147
            2  1  0  1     1.550    148
            2  0  1  1     1.550    149
            1  2  0  1     1.550    150
            1  1  1  1     1.550    151
            1  0  2  1     1.550    152
            0  3  0  1     1.550    153
            0  2  1  1     1.550    154
            0  1  2  1     1.550    155
            0  0  3  1     1.550    156
            1  0  0  5     1.550    157
            0  1  0  5     1.550    158
            0  0  1  5     1.550    159

 Br                                   2
                                  ---------------------------------------------------------------------------
            0  0  0  0    41.300    160
            0  0  0  0    32.800    161
            0  0  0  1    13.900    162
            1  0  0  0    19.450    163
            0  1  0  0    19.450    164
            0  0  1  0    19.450    165
            1  0  0  0    13.100    166
            0  1  0  0    13.100    167
            0  0  1  0    13.100    168
            0  0  0  2     7.200    169
            0  0  0  2     4.950    170
            1  0  0  1     7.900    171
            0  1  0  1     7.900    172
            0  0  1  1     7.900    173
            1  0  0  1     5.050    174
            0  1  0  1     5.050    175
            0  0  1  1     5.050    176
            2  0  0  0    10.900    177
            1  1  0  0    10.900    178
            1  0  1  0    10.900    179
            0  2  0  0    10.900    180
            0  1  1  0    10.900    181
            0  0  2  0    10.900    182
            2  0  0  0     6.050    183
            1  1  0  0     6.050    184
            1  0  1  0     6.050    185
            0  2  0  0     6.050    186
            0  1  1  0     6.050    187
            0  0  2  0     6.050    188
            2  0  0  0     3.500    189
            1  1  0  0     3.500    190
            1  0  1  0     3.500    191
            0  2  0  0     3.500    192
            0  1  1  0     3.500    193
            0  0  2  0     3.500    194
            0  0  0  3     4.500    195
            0  0  0  3     2.800    196
            0  0  0  3     1.800    197
            1  0  0  2     3.250    198
            0  1  0  2     3.250    199
            0  0  1  2     3.250    200
            1  0  0  2     1.950    201
            0  1  0  2     1.950    202
            0  0  1  2     1.950    203
            1  0  0  2     1.200    204
            0  1  0  2     1.200    205
            0  0  1  2     1.200    206
            2  0  0  1     1.800    207
            1  1  0  1     1.800    208
            1  0  1  1     1.800    209
            0  2  0  1     1.800    210
            0  1  1  1     1.800    211
            0  0  2  1     1.800    212
            3  0  0  0     1.800    213
            2  1  0  0     1.800    214
            2  0  1  0     1.800    215
            1  2  0  0     1.800    216
            1  1  1  0     1.800    217
            1  0  2  0     1.800    218
            0  3  0  0     1.800    219
            0  2  1  0     1.800    220
            0  1  2  0     1.800    221
            0  0  3  0     1.800    222

 H                                    3    4    5    6
                                  ---------------------------------------------------------------------------
            0  0  0  0     0.690    223  235  247  259
            0  0  0  0     0.920    224  236  248  260
            0  0  0  0     1.580    225  237  249  261
            1  0  0  0     1.250    226  238  250  262
            0  1  0  0     1.250    227  239  251  263
            0  0  1  0     1.250    228  240  252  264
            2  0  0  0     2.500    229  241  253  265
            1  1  0  0     2.500    230  242  254  266
            1  0  1  0     2.500    231  243  255  267
            0  2  0  0     2.500    232  244  256  268
            0  1  1  0     2.500    233  245  257  269
            0  0  2  0     2.500    234  246  258  270

 O                                    7    8    9   10
                                  ---------------------------------------------------------------------------
            0  0  0  0     9.800    271  301  331  361
            0  0  0  0     6.800    272  302  332  362
            0  0  0  1     7.580    273  303  333  363
            0  0  0  1     2.880    274  304  334  364
            0  0  0  1     1.720    275  305  335  365
            1  0  0  0     4.080    276  306  336  366
            0  1  0  0     4.080    277  307  337  367
            0  0  1  0     4.080    278  308  338  368
            1  0  0  0     2.080    279  309  339  369
            0  1  0  0     2.080    280  310  340  370
            0  0  1  0     2.080    281  311  341  371
            1  0  0  0     1.120    282  312  342  372
            0  1  0  0     1.120    283  313  343  373
            0  0  1  0     1.120    284  314  344  374
            2  0  0  0     2.000    285  315  345  375
            1  1  0  0     2.000    286  316  346  376
            1  0  1  0     2.000    287  317  347  377
            0  2  0  0     2.000    288  318  348  378
            0  1  1  0     2.000    289  319  349  379
            0  0  2  0     2.000    290  320  350  380
            3  0  0  0     3.000    291  321  351  381
            2  1  0  0     3.000    292  322  352  382
            2  0  1  0     3.000    293  323  353  383
            1  2  0  0     3.000    294  324  354  384
            1  1  1  0     3.000    295  325  355  385
            1  0  2  0     3.000    296  326  356  386
            0  3  0  0     3.000    297  327  357  387
            0  2  1  0     3.000    298  328  358  388
            0  1  2  0     3.000    299  329  359  389
            0  0  3  0     3.000    300  330  360  390

 Total number of charge fitting functions (nprimf)      1103
 Total number of Cartesian basis functions (naos)        390
 Total number of Cartesian core functions  (ncos)          0

1
 ***************************************************************************************************



                                              ***********************
                                              *  T E C H N I C A L  *
                                              ***********************
  



 =============================================================
 P A R A L L E L I Z A T I O N  and  V E C T O R I Z A T I O N
 =============================================================
  
 Nr of parallel processes:                                8
 Maximum vector length in NumInt loops:                 128



 =====================
 S C F   U P D A T E S
 =====================
  
 Max. nr. of cycles:                               300
 Convergence criterion:                              0.0000010000
   secondary criterion:                              0.0010000000

 Mix parameter (when DIIS does not apply):           0.2000000000
 Mixed ADIIS+SDIIS will be used                  
    Max number of expansion vectors:                10
    Pure ADIIS when Max([F,P]) is above              0.1000000000
    Pure SDIIS when Max([F,P]) is below              0.0010000000
 Automatic ElectronSmearing (in case of problematic SCF convergence) disabled



 =================
 P R E C I S I O N  ***  (General: NumInt, NeglectFunctionTails, ...)  ***
 =================
  

 NumInt:           Target precision:                 6.0000000000
 -------           Initial precision:                6.0000000000
                   Min. precision (optimization):    6.0000000000

 Neglect Functions:          Basis functions:        0.1000000000E-07
 ------------------          Fit functions:          0.1000000000E-07



 ===========================
 L I N E A R   S C A L I N G
 ===========================
  

 Cut-off radii density fit:                        0.1000000000E-09
 Overlap cut-off criterion AO matrix elements:     0.1000000000E-07
 Cut-offs for Coulomb potential and fitted density:0.1000000000E-09
 Cut-off criterion for Coulomb multipole terms:    0.1000000000E-09
 Progressive Convergence parameter:                 0.000000000    
1
 ***************************************************************************************************



                                            ***************************
                                            *  C O M P U T A T I O N  *
                                            ***************************
  



 ==============================
 Double group spinor symmetries  ***  (Spin-Orbit)  ***
 ==============================
  

 The double group Lowdins are spinors adapted to the irreducible representations
 of the double group. These double group Lowdins are linear combinations of
 products of the single group Lowdins and the spinfunctions. The single group
[...]
      4      O   -0.5824
      5      H    0.0177
      6      O   -0.5811
      7      H    0.0202
      8      O   -0.5792
      9      H    0.0052
     10      O   -0.5785


Dipole moment vector    (Debye):    -1.59124862   -2.52399721    2.03689341
              magnitude (Debye):     3.61269551


-----------------------
Molecular orbitals info
-----------------------
n orbitals:              678
n spin:                    1

Note: only printing virtual orbitals with
      energy smaller than HOMO + 100. eV

HOMO (eV):              -7.0469
LUMO (eV):              -2.8475
HOMO-LUMO gap (eV):      4.1994

   Index   Energy (eV)    Occupation
     436       90.0174         0.000       
     435       90.0174         0.000       
     434       89.5815         0.000       
     433       89.5815         0.000       
     432       89.3323         0.000       
     431       89.3323         0.000       
     430       86.6889         0.000       
     429       86.6889         0.000       
     428       82.3031         0.000       
     427       82.3031         0.000       
     426       81.9182         0.000       
     425       81.9182         0.000       
     424       81.1540         0.000       
     423       81.1540         0.000       
     422       80.9958         0.000       
     421       80.9958         0.000       
     420       80.4431         0.000       
     419       80.4431         0.000       
     418       78.0028         0.000       
     417       78.0028         0.000       
     416       76.4761         0.000       
     415       76.4761         0.000       
     414       76.3882         0.000       
     413       76.3882         0.000       
     412       76.0407         0.000       
     411       76.0407         0.000       
     410       74.4473         0.000       
     409       74.4473         0.000       
     408       74.3045         0.000       
     407       74.3045         0.000       
     406       73.6191         0.000       
     405       73.6191         0.000       
     404       73.5867         0.000       
     403       73.5867         0.000       
     402       73.4589         0.000       
     401       73.4589         0.000       
     400       71.9757         0.000       
     399       71.9757         0.000       
     398       71.9049         0.000       
     397       71.9049         0.000       
     396       71.6179         0.000       
     395       71.6179         0.000       
     394       71.3622         0.000       
     393       71.3622         0.000       
     392       69.5037         0.000       
     391       69.5037         0.000       
     390       68.9220         0.000       
     389       68.9220         0.000       
     388       64.0122         0.000       
     387       64.0122         0.000       
     386       61.0869         0.000       
     385       61.0869         0.000       
     384       60.7307         0.000       
     383       60.7307         0.000       
     382       59.2227         0.000       
     381       59.2227         0.000       
     380       55.0794         0.000       
     379       55.0794         0.000       
     378       54.7195         0.000       
     377       54.7195         0.000       
     376       53.7950         0.000       
     375       53.7950         0.000       
     374       53.4675         0.000       
     373       53.4675         0.000       
     372       52.6631         0.000       
     371       52.6631         0.000       
     370       52.2607         0.000       
     369       52.2607         0.000       
     368       49.8836         0.000       
     367       49.8836         0.000       
     366       48.0003         0.000       
     365       48.0003         0.000       
     364       47.6375         0.000       
     363       47.6375         0.000       
     362       47.2523         0.000       
     361       47.2523         0.000       
     360       47.1359         0.000       
     359       47.1359         0.000       
     358       46.5102         0.000       
     357       46.5102         0.000       
     356       44.2306         0.000       
     355       44.2306         0.000       
     354       41.4176         0.000       
     353       41.4176         0.000       
     352       40.9407         0.000       
     351       40.9407         0.000       
     350       38.7526         0.000       
     349       38.7526         0.000       
     348       38.2992         0.000       
     347       38.2992         0.000       
     346       38.0621         0.000       
     345       38.0621         0.000       
     344       37.7215         0.000       
     343       37.7215         0.000       
     342       37.0296         0.000       
     341       37.0296         0.000       
     340       36.9069         0.000       
     339       36.9069         0.000       
     338       36.3435         0.000       
     337       36.3435         0.000       
     336       36.1633         0.000       
     335       36.1633         0.000       
     334       35.7312         0.000       
     333       35.7312         0.000       
     332       35.5824         0.000       
     331       35.5824         0.000       
     330       35.3508         0.000       
     329       35.3508         0.000       
     328       35.1353         0.000       
     327       35.1353         0.000       
     326       34.2053         0.000       
     325       34.2053         0.000       
     324       33.8593         0.000       
     323       33.8593         0.000       
     322       33.6498         0.000       
     321       33.6498         0.000       
     320       32.3123         0.000       
     319       32.3123         0.000       
     318       31.6212         0.000       
     317       31.6212         0.000       
     316       31.3028         0.000       
     315       31.3028         0.000       
     314       30.9733         0.000       
     313       30.9733         0.000       
     312       30.7488         0.000       
     311       30.7488         0.000       
     310       30.4519         0.000       
     309       30.4519         0.000       
     308       30.2063         0.000       
     307       30.2063         0.000       
     306       29.1842         0.000       
     305       29.1842         0.000       
     304       29.1518         0.000       
     303       29.1518         0.000       
     302       28.6047         0.000       
     301       28.6047         0.000       
     300       27.0878         0.000       
     299       27.0878         0.000       
     298       26.9050         0.000       
     297       26.9050         0.000       
     296       26.7294         0.000       
     295       26.7294         0.000       
     294       26.1511         0.000       
     293       26.1511         0.000       
     292       26.1160         0.000       
     291       26.1160         0.000       
     290       25.8820         0.000       
     289       25.8820         0.000       
     288       25.5038         0.000       
     287       25.5038         0.000       
     286       21.1430         0.000       
     285       21.1430         0.000       
     284       20.9773         0.000       
     283       20.9773         0.000       
     282       20.3369         0.000       
     281       20.3369         0.000       
     280       19.3884         0.000       
     279       19.3884         0.000       
     278       18.7262         0.000       
     277       18.7262         0.000       
     276       18.1305         0.000       
     275       18.1305         0.000       
     274       17.6414         0.000       
     273       17.6414         0.000       
     272       16.5068         0.000       
     271       16.5068         0.000       
     270       16.1609         0.000       
     269       16.1609         0.000       
     268       15.8452         0.000       
     267       15.8452         0.000       
     266       15.7350         0.000       
     265       15.7350         0.000       
     264       15.6578         0.000       
     263       15.6578         0.000       
     262       15.5498         0.000       
     261       15.5498         0.000       
     260       15.4125         0.000       
     259       15.4125         0.000       
     258       14.7816         0.000       
     257       14.7816         0.000       
     256       14.4980         0.000       
     255       14.4980         0.000       
     254       14.4197         0.000       
     253       14.4197         0.000       
     252       14.2832         0.000       
     251       14.2832         0.000       
     250       13.4759         0.000       
     249       13.4759         0.000       
     248       13.3852         0.000       
     247       13.3852         0.000       
     246       13.3415         0.000       
     245       13.3415         0.000       
     244       13.2187         0.000       
     243       13.2187         0.000       
     242       12.4645         0.000       
     241       12.4645         0.000       
     240       12.1399         0.000       
     239       12.1399         0.000       
     238       11.0771         0.000       
     237       11.0771         0.000       
     236       11.0084         0.000       
     235       11.0084         0.000       
     234       10.9307         0.000       
     233       10.9307         0.000       
     232        9.7489         0.000       
     231        9.7489         0.000       
     230        9.3519         0.000       
     229        9.3519         0.000       
     228        9.3134         0.000       
     227        9.3134         0.000       
     226        8.9040         0.000       
     225        8.9040         0.000       
     224        8.4855         0.000       
     223        8.4855         0.000       
     222        8.2493         0.000       
     221        8.2493         0.000       
     220        6.4116         0.000       
     219        6.4116         0.000       
     218        6.2306         0.000       
     217        6.2306         0.000       
     216        6.1395         0.000       
     215        6.1395         0.000       
     214        5.9496         0.000       
     213        5.9496         0.000       
     212        5.8470         0.000       
     211        5.8470         0.000       
     210        5.0553         0.000       
     209        5.0553         0.000       
     208        4.2875         0.000       
     207        4.2875         0.000       
     206        3.6642         0.000       
     205        3.6642         0.000       
     204        2.8839         0.000       
     203        2.8839         0.000       
     202        2.8083         0.000       
     201        2.8083         0.000       
     200        2.6988         0.000       
     199        2.6988         0.000       
     198        2.3380         0.000       
     197        2.3380         0.000       
     196        2.3280         0.000       
     195        2.3280         0.000       
     194        1.9919         0.000       
     193        1.9919         0.000       
     192        1.4721         0.000       
     191        1.4721         0.000       
     190        1.3640         0.000       
     189        1.3640         0.000       
     188        1.0513         0.000       
     187        1.0513         0.000       
     186        0.8674         0.000       
     185        0.8674         0.000       
     184        0.4021         0.000       
     183        0.4021         0.000       
     182        0.3798         0.000       
     181        0.3798         0.000       
     180        0.3415         0.000       
     179        0.3415         0.000       
     178       -0.4801         0.000       
     177       -0.4801         0.000       
     176       -1.6511         0.000       
     175       -1.6511         0.000       
     174       -1.8827         0.000       
     173       -1.8827         0.000       
     172       -1.9202         0.000       
     171       -1.9202         0.000       
     170       -2.2130         0.000       
     169       -2.2130         0.000       
     168       -2.4456         0.000       
     167       -2.4456         0.000       
     166       -2.7918         0.000       
     165       -2.7918         0.000       
     164       -2.8475         0.000       
     163       -2.8475         0.000 < LUMO
     162       -7.0469         1.000 < HOMO
     161       -7.0469         1.000       
     160       -7.2986         1.000       
     159       -7.2986         1.000       
     158       -7.8822         1.000       
     157       -7.8822         1.000       
     156       -8.7260         1.000       
     155       -8.7260         1.000       
     154       -8.8729         1.000       
     153       -8.8729         1.000       
     152       -9.1015         1.000       
     151       -9.1015         1.000       
     150       -9.2881         1.000       
     149       -9.2881         1.000       
     148       -9.4298         1.000       
     147       -9.4298         1.000       
     146       -9.5817         1.000       
     145       -9.5817         1.000       
     144      -10.1497         1.000       
     143      -10.1497         1.000       
     142      -10.1864         1.000       
     141      -10.1864         1.000       
     140      -12.7991         1.000       
     139      -12.7991         1.000       
     138      -12.9954         1.000       
     137      -12.9954         1.000       
     136      -13.5913         1.000       
     135      -13.5913         1.000       
     134      -14.4316         1.000       
     133      -14.4316         1.000       
     132      -19.9220         1.000       
     131      -19.9220         1.000       
     130      -22.6333         1.000       
     129      -22.6333         1.000       
     128      -22.8612         1.000       
     127      -22.8612         1.000       
     126      -26.0760         1.000       
     125      -26.0760         1.000       
     124      -26.7149         1.000       
     123      -26.7149         1.000       
     122      -27.6761         1.000       
     121      -27.6761         1.000       
     120      -27.9497         1.000       
     119      -27.9497         1.000       
     118      -32.3246         1.000       
     117      -32.3246         1.000       
     116      -50.0330         1.000       
     115      -50.0330         1.000       
     114      -68.0158         1.000       
     113      -68.0158         1.000       
     112      -68.0462         1.000       
     111      -68.0462         1.000       
     110      -68.0645         1.000       
     109      -68.0645         1.000       
     108      -69.1158         1.000       
     107      -69.1158         1.000       
     106      -69.1536         1.000       
     105      -69.1536         1.000       
     104      -96.7704         1.000       
     103      -96.7704         1.000       
     102      -96.7995         1.000       
     101      -96.7995         1.000       
     100      -96.8491         1.000       
      99      -96.8491         1.000       
      98     -104.1978         1.000       
      97     -104.1978         1.000       
      96     -104.2486         1.000       
      95     -104.2486         1.000       
      94     -175.3331         1.000       
      93     -175.3331         1.000       
      92     -175.3615         1.000       
      91     -175.3615         1.000       
      90     -182.0465         1.000       
      89     -182.0465         1.000       
      88     -193.7560         1.000       
      87     -193.7560         1.000       
      86     -193.8181         1.000       
      85     -193.8181         1.000       
      84     -242.1007         1.000       
      83     -242.1007         1.000       
      82     -242.7744         1.000       
      81     -242.7744         1.000       
      80     -304.2230         1.000       
      79     -304.2230         1.000       
      78     -354.7508         1.000       
      77     -354.7508         1.000       
      76     -354.7699         1.000       
      75     -354.7699         1.000       
      74     -354.7966         1.000       
      73     -354.7966         1.000       
      72     -354.8049         1.000       
      71     -354.8049         1.000       
      70     -364.5101         1.000       
      69     -364.5101         1.000       
      68     -364.5392         1.000       
      67     -364.5392         1.000       
      66     -364.5566         1.000       
      65     -364.5566         1.000       
      64     -520.9021         1.000       
      63     -520.9021         1.000       
      62     -520.9853         1.000       
      61     -520.9853         1.000       
      60     -520.9858         1.000       
      59     -520.9858         1.000       
      58     -520.9882         1.000       
      57     -520.9882         1.000       
      56     -694.0236         1.000       
      55     -694.0236         1.000       
      54     -694.0606         1.000       
      53     -694.0606         1.000       
      52     -694.0758         1.000       
      51     -694.0758         1.000       
      50     -733.3452         1.000       
      49     -733.3452         1.000       
      48     -733.3813         1.000       
      47     -733.3813         1.000       
      46     -983.3030         1.000       
      45     -983.3030         1.000       
      44     -983.3385         1.000       
      43     -983.3385         1.000       
      42    -1190.0914         1.000       
      41    -1190.0914         1.000       
      40    -1353.2494         1.000       
      39    -1353.2494         1.000       
      38    -1525.3549         1.000       
      37    -1525.3549         1.000       
      36    -1525.3629         1.000       
      35    -1525.3629         1.000       
      34    -1571.2133         1.000       
      33    -1571.2133         1.000       
      32    -1746.6684         1.000       
      31    -1746.6684         1.000       
      30    -3410.2331         1.000       
      29    -3410.2331         1.000       
      28    -3410.2490         1.000       
      27    -3410.2490         1.000       
      26    -3410.2571         1.000       
      25    -3410.2571         1.000       
      24    -3577.0285         1.000       
      23    -3577.0285         1.000       
      22    -3577.0436         1.000       
      21    -3577.0436         1.000       
      20    -4130.9380         1.000       
      19    -4130.9380         1.000       
      18    -4130.9528         1.000       
      17    -4130.9528         1.000       
      16    -4926.7001         1.000       
      15    -4926.7001         1.000       
      14    -5303.5214         1.000       
      13    -5303.5214         1.000       
      12   -13342.3862         1.000       
      11   -13342.3862         1.000       
      10   -16649.1610         1.000       
       9   -16649.1610         1.000       
       8   -16649.1625         1.000       
       7   -16649.1625         1.000       
       6   -20126.8163         1.000       
       5   -20126.8163         1.000       
       4   -21000.4169         1.000       
       3   -21000.4169         1.000       
       2  -112595.6068         1.000       
       1  -112595.6068         1.000       

AMS application finished. Exiting.
NORMAL TERMINATION
     Total cpu time:     406.48
  Total system time:      33.43
 Total elapsed time:     440.81
