

 Parallel Execution: Process Information
 ==============================================================================
 Rank   Node Name                              NodeID   MyNodeRank  NodeMaster
    0   u-0-6.local                               0          0          0
    1   u-0-6.local                               0          1         -1
    2   u-0-6.local                               1          0          1
    3   u-0-6.local                               1          1         -1
    4   u-0-6.local                               2          0          2
    5   u-0-6.local                               2          1         -1
    6   u-0-6.local                               3          0          3
    7   u-0-6.local                               3          1         -1
 ==============================================================================


May use up to 31228MB of RAM as shared memory on node 0
May use up to 31250MB of RAM as shared memory on node 1
May use up to 31250MB of RAM as shared memory on node 2
May use up to 31250MB of RAM as shared memory on node 3

 *******************************************************************************
 *                                                                             *
 *  --------------------------------                                           *
 *   Amsterdam Modeling Suite (AMS)              2022.103                      *
 *  --------------------------------                                           *
 *                                               r104886 2022-06-17            *
 *                                                                             *
 *                                                                             *
 *                              =================                              *
 *                              |               |                              *
 *                              |     A M S     |                              *
 *                              |               |                              *
 *                              =================                              *
 *                                                                             *
 *                                                                             *
 *   Online information and documentation:  https://www.scm.com/support/       *
 *   E-mail:  support@scm.com   info@scm.com                                   *
 *                                                                             *
 *   Scientific publications using AMS results must be properly referenced     *
 *   See the User Manuals (or the web site) for recommended citations          *
 *   The terms and conditions of the End User License Agreement apply to       *
 *   the use of AMS, https://www.scm.com/license-terms/                        *
 *                                                                             *
 **********************  x86_64_linux_intel / intelmpi  ************************
 
 Licensed to: Dr. Val?rie Vallet / Laboratoire PhLAM UMR 8523 / Villeneuve d'Ascq Cedex / FRANCE 2023-02-21 11:49:39
 SCM User ID: u10325
  
 AMS 2022.103  RunTime: Mar04-2023 13:28:27  ShM Nodes: 4  Procs: 8

 AMS jobname: pao_oh2_f_h2o.SR.b3lyp.tz2p.opt-freq-A2-solvation
 AMS jobid  : 1027571101

 Start   directory: /home/shaaban/ams/PhD/fluoride/pao_oh2_f_h2o/solvation/
 Results directory: /home/shaaban/ams/PhD/fluoride/pao_oh2_f_h2o/solvation/pao_oh2_f_h2o.SR.b3lyp.tz2p.opt-freq-A2-solvation.results/
 Scratch directory: /state/partition2/shaaban/930367.phlam-s-sakura/amstmp_pao_oh2_f_h2o.SR.b3lyp.tz2p.opt-freq-A2-solvation_kid0.1027571101/


 Communication costs MPI_COMM_WORLD:      5.051 usec per message,   0.0187 usec per 8-byte item
 Communication costs for intra-node:      0.675 usec per message,   0.0024 usec per 8-byte item

 RNG seed: -200030216 -1928170356 1784181284 496577830 -636961349 1100663446 -1736032895 877670860



                      ************************************************************************
                      *  ADF 2022.103  RunTime: Mar04-2023 13:28:28  ShM Nodes: 4  Procs: 8  *
                      ************************************************************************
  
       ***************************
       *  GEOMETRY OPTIMIZATION  *
       ***************************

Optimization Method                    Quasi Newton
Optimization Coordinates               Delocalized Coordinates
Optimize lattice                       F
 
 ------------------------------------------------------
 Convergence criteria (Hartree,Angstrom)
 ------------------------------------------------------
 Maximum gradient               0.000100000000
 Maximum rms gradient           0.000066666667
 Maximum step allowed           0.001000000000
 Maximum rms step allowed       0.000666666667
 Maximum energy change allowe   0.000010000000
 Maximum stress energy allowe   0.000500000000
 
Initial model Hessian                  Automatic Hessian
 
------------------------------------
Quasi-Newton Optimizer Parameters
------------------------------------
Hessian Update Method                  BFGS
Maximum number of steps                  250
First GDIIS cycle                          0
Maximum GDIIS vectors                      0
Trust radius (bohr)                        0.200000
Trust radius varies                        T
Constraints converged at all steps         T
Use projector                              T
 
 Rigid motions settings for: old optimizer
 Atomic rotations (x,y,z):     T T T
 Atomic translations (x,y,z):  T T T
 Tolerance:                   1.000000000000000E-006
 
--------
Geometry
--------
Formula: H4FO4Pa
Atoms
  Index Symbol   x (angstrom)   y (angstrom)   z (angstrom)
      1     Pa     0.05343403     0.27766573     0.79333798       adf.R=2.200
      2      O     1.63323169     1.45389498    -0.00220135       adf.R=1.517
      3      O    -1.69873079     0.62240082    -0.39981203       adf.R=1.517
      4      F    -0.48504491     1.51773436     2.41515789       adf.R=1.425
      5      H    -2.51594773     1.05367900    -0.65635016       adf.R=1.350
      6      O     0.35327991    -1.43135408    -1.18851546       adf.R=1.517
      7      H    -0.38367637    -1.44186376    -1.81133722       adf.R=1.350
      8      H     0.39846464    -2.30306099    -0.77434101       adf.R=1.350
      9      H     2.37436963     2.01508919    -0.23466465       adf.R=1.350
     10      O     0.38933228    -1.34298655     1.64354765       adf.R=1.517
 
Total System Charge             0.00000
Bonding info available!
 
 
----------------
ADF Engine Input
----------------
 
 Basis
 Type TZ2P
 Core None
 End
 XC
 Hybrid B3LYP
 End
 Solvation
 Surf Delley
 Solv name=Water cav0=0.0 cav1=0.0067639
 Charged method=CONJ
 C-Mat POT
 SCF VAR ALL
 CSMRSP
 End
 NumericalQuality Good
 

 Title: *** (NO TITLE) ***

Bad geometry: could not add a dihedral for atom    9
 Using automatic Hessian for delocalized coordinates.
 *** GO1_GOStep1 ***

 SOLVATION
-------------------------------------------

  The Delley construction of COSMO surface surface is calculated

       Division Level for Surface Triangles (NDIV)                  3
       Final Division Level for Triangles (NFDIV)                   1
       Radius of the Solvent (RSOL)                           1.93000 angstr
  Dielectric Constant (EPSL)                                 78.39000

       COSMO equation is solved iteratively-               conjugate-gradient

       Maximun of Iterations for Charges (NCIX)                  1000
       Criterion for Charge convergence (CCNV)                1.0E-08

  COSMO charges included variationally in SCF

       COSMO included at every SCF cycle

  Geometry-dependent empirical factor                         0.00000

  C-Matrix calculated in cspmtx

  In cspmtx, C-Matrix calculated using fitted potential

-------------------------------------------



 -------------------------------------------
  COSMO surface
  Area             =          485.071
  Volume           =          744.558
  Number of Points =         1266
 -------------------------------------------



 ======================
 RI Hartree-Fock Scheme
 ======================
  
 Fit Set Quality     : GOOD
 Threshold Quality   : GOOD
 Integration Quality : GOOD
 Response Quality    : DEFAULT
 Is Range Separated  :  F
 
 RIHartreeFock Dependency: number of modified vectors:           4
 cosmo_calcen: 0.5 (esolb+esolc) (Hartrees) =   -0.042406

 Solvation energy (screening term,uncorrected) =    -26.610041 kcal/mol

 Solvation energy (dispersion and cavitation terms) =      0.907045 kcal/mol
 Solvation Energy Contributions (Hartrees)
          esola   esolb+esolc
     0.04240580   -0.08481159
 esol last cycle   -0.04240580
  
 Hartree-Fock exchange energy:   -510.683181050783     
 cosmo_calcen: 0.5 (esolb+esolc) (Hartrees) =   -0.042406

 Solvation energy (screening term,uncorrected) =    -26.610031 kcal/mol

 Solvation energy (dispersion and cavitation terms) =      0.907045 kcal/mol
 Solvation Energy Contributions (Hartrees)
          esola   esolb+esolc
     0.04240578   -0.08481156
 esol last cycle   -0.04240578

 Energy gradients wrt nuclear displacements
 ==========================================

     Atom      Cartesian (a.u./angstrom)
                 X         Y         Z
 ----------------------------------------
     1 Pa    0.005032  0.003227  0.047616
     2 O     0.001966 -0.000752  0.001231
     3 O    -0.005982 -0.000481 -0.004304
     4 F     0.006693 -0.016080 -0.022521
     5 H     0.004108 -0.002737  0.001132
     6 O    -0.005300 -0.010176 -0.008215
     7 H     0.001848  0.003614  0.001493
     8 H     0.002367  0.002731  0.004434
     9 H    -0.004748 -0.003046  0.001051
    10 O    -0.005983  0.023701 -0.021917
 ----------------------------------------
 Mulliken charges used for AMS results%charges...
 
----------------------------------------------------------------------
Geometry Convergence after Step   1       (Hartree/Angstrom,Angstrom)
----------------------------------------------------------------------
current energy                               -2.77536575 Hartree
energy change                      -2.77536575     0.00001000    F
constrained gradient max            0.04760593     0.00010000    F
constrained gradient rms            0.01233018     0.00006667    F
gradient max                        0.04760640
gradient rms                        0.01233018
cart. step max                      0.05159598     0.00100000    F
cart. step rms                      0.01768292     0.00066667    F
 
 
--------
Geometry
--------
Formula: H4FO4Pa
Atoms
  Index Symbol   x (angstrom)   y (angstrom)   z (angstrom)
      1     Pa     0.04167268     0.26527379     0.78864092       adf.R=2.200
      2      O     1.62343568     1.44062778    -0.01102434       adf.R=1.517
      3      O    -1.71710325     0.63005235    -0.38608810       adf.R=1.517
      4      F    -0.47891254     1.53646942     2.41099977       adf.R=1.425
      5      H    -2.53242425     1.07492811    -0.63500766       adf.R=1.350
      6      O     0.37461735    -1.42959431    -1.19671857       adf.R=1.517
      7      H    -0.35158649    -1.44182474    -1.83394666       adf.R=1.350
      8      H     0.41618147    -2.31054345    -0.80170196       adf.R=1.350
      9      H     2.37038510     1.99828005    -0.24547537       adf.R=1.350
     10      O     0.37244663    -1.34247030     1.69514362       adf.R=1.517
 
Total System Charge             0.00000
Bonding info available!
 
 *** GO1_GOStep2 ***

 SOLVATION
-------------------------------------------

  The Delley construction of COSMO surface surface is calculated

       Division Level for Surface Triangles (NDIV)                  3
       Final Division Level for Triangles (NFDIV)                   1
       Radius of the Solvent (RSOL)                           1.93000 angstr
  Dielectric Constant (EPSL)                                 78.39000

       COSMO equation is solved iteratively-               conjugate-gradient

       Maximun of Iterations for Charges (NCIX)                  1000
       Criterion for Charge convergence (CCNV)                1.0E-08

  COSMO charges included variationally in SCF

       COSMO included at every SCF cycle

  Geometry-dependent empirical factor                         0.00000

  C-Matrix calculated in cspmtx

  In cspmtx, C-Matrix calculated using fitted potential

-------------------------------------------



 -------------------------------------------
  COSMO surface
  Area             =          485.146
  Volume           =          745.278
  Number of Points =         1265
 -------------------------------------------



 ======================
 RI Hartree-Fock Scheme
 ======================
  
 Fit Set Quality     : GOOD
 Threshold Quality   : GOOD
 Integration Quality : GOOD
 Response Quality    : DEFAULT
 Is Range Separated  :  F
 
 RIHartreeFock Dependency: number of modified vectors:           4
 cosmo_calcen: 0.5 (esolb+esolc) (Hartrees) =   -0.044625

 Solvation energy (screening term,uncorrected) =    -28.002580 kcal/mol

 Solvation energy (dispersion and cavitation terms) =      0.907185 kcal/mol
 Solvation Energy Contributions (Hartrees)
          esola   esolb+esolc
     0.04462495   -0.08924989
 esol last cycle   -0.04462495
  
 Hartree-Fock exchange energy:   -510.662677497228     
 cosmo_calcen: 0.5 (esolb+esolc) (Hartrees) =   -0.044625

 Solvation energy (screening term,uncorrected) =    -28.002572 kcal/mol

 Solvation energy (dispersion and cavitation terms) =      0.907185 kcal/mol
 Solvation Energy Contributions (Hartrees)
          esola   esolb+esolc
     0.04462494   -0.08924987
 esol last cycle   -0.04462494

 Energy gradients wrt nuclear displacements
 ==========================================

     Atom      Cartesian (a.u./angstrom)
                 X         Y         Z
 ----------------------------------------
     1 Pa    0.002061  0.011221  0.033116
     2 O     0.001132 -0.001466  0.000929
     3 O    -0.004507 -0.001455 -0.004090
     4 F     0.004193 -0.010574 -0.014585
     5 H     0.000137 -0.000620 -0.000103
     6 O    -0.001401 -0.008726 -0.008744
     7 H     0.000289  0.002127  0.000943
     8 H     0.000822  0.002718  0.003466
     9 H    -0.000456  0.000195 -0.000426
    10 O    -0.002268  0.006578 -0.010506
 ----------------------------------------
 Mulliken charges used for AMS results%charges...

 dE(predicted):    -0.84629E-03, dE(actual):    -0.13216E-02, Trust radius:    0.200000, all in a.u.
 
----------------------------------------------------------------------
Geometry Convergence after Step   2       (Hartree/Angstrom,Angstrom)
----------------------------------------------------------------------
current energy                               -2.77668733 Hartree
energy change                      -0.00132157     0.00001000    F
constrained gradient max            0.03310566     0.00010000    F
constrained gradient rms            0.00806657     0.00006667    F
gradient max                        0.03310614
gradient rms                        0.00806657
cart. step max                      0.09034144     0.00100000    F
cart. step rms                      0.03569747     0.00066667    F
 
 
--------
Geometry
--------
Formula: H4FO4Pa
Atoms
  Index Symbol   x (angstrom)   y (angstrom)   z (angstrom)
      1     Pa     0.01657061     0.23807210     0.77490527       adf.R=2.200
      2      O     1.59565642     1.41589227    -0.02952636       adf.R=1.517
      3      O    -1.75032183     0.65345564    -0.35646024       adf.R=1.517
      4      F    -0.46490914     1.56467797     2.40092696       adf.R=1.425
      5      H    -2.55540493     1.12909520    -0.58585961       adf.R=1.350
      6      O     0.41421440    -1.43307338    -1.20605358       adf.R=1.517
      7      H    -0.28320368    -1.44752645    -1.87685945       adf.R=1.350
      8      H     0.46038510    -2.33428162    -0.85678968       adf.R=1.350
      9      H     2.35060681     1.96403796    -0.26494671       adf.R=1.350
     10      O     0.33511862    -1.32915102     1.78548506       adf.R=1.517
 
Total System Charge             0.00000
Bonding info available!
 
 *** GO1_GOStep3 ***

 SOLVATION
-------------------------------------------

  The Delley construction of COSMO surface surface is calculated

       Division Level for Surface Triangles (NDIV)                  3
       Final Division Level for Triangles (NFDIV)                   1
       Radius of the Solvent (RSOL)                           1.93000 angstr
  Dielectric Constant (EPSL)                                 78.39000

       COSMO equation is solved iteratively-               conjugate-gradient

       Maximun of Iterations for Charges (NCIX)                  1000
       Criterion for Charge convergence (CCNV)                1.0E-08

  COSMO charges included variationally in SCF

       COSMO included at every SCF cycle

  Geometry-dependent empirical factor                         0.00000

  C-Matrix calculated in cspmtx

  In cspmtx, C-Matrix calculated using fitted potential

-------------------------------------------



 -------------------------------------------
  COSMO surface
  Area             =          488.837
  Volume           =          750.565
  Number of Points =         1264
 -------------------------------------------



 ======================
 RI Hartree-Fock Scheme
 ======================
  
 Fit Set Quality     : GOOD
 Threshold Quality   : GOOD
 Integration Quality : GOOD
 Response Quality    : DEFAULT
 Is Range Separated  :  F
 
 RIHartreeFock Dependency: number of modified vectors:           4
 cosmo_calcen: 0.5 (esolb+esolc) (Hartrees) =   -0.048993

 Solvation energy (screening term,uncorrected) =    -30.743661 kcal/mol

 Solvation energy (dispersion and cavitation terms) =      0.914087 kcal/mol
 Solvation Energy Contributions (Hartrees)
          esola   esolb+esolc
     0.04899314   -0.09798627
 esol last cycle   -0.04899314
  
 Hartree-Fock exchange energy:   -510.641508155960     
 cosmo_calcen: 0.5 (esolb+esolc) (Hartrees) =   -0.048993

 Solvation energy (screening term,uncorrected) =    -30.743650 kcal/mol

 Solvation energy (dispersion and cavitation terms) =      0.914087 kcal/mol
 Solvation Energy Contributions (Hartrees)
          esola   esolb+esolc
     0.04899312   -0.09798624
 esol last cycle   -0.04899312

 Energy gradients wrt nuclear displacements
 ==========================================

     Atom      Cartesian (a.u./angstrom)
                 X         Y         Z
 ----------------------------------------
     1 Pa   -0.001939  0.016097  0.008903
     2 O     0.003089 -0.000095 -0.000149
     3 O    -0.004120 -0.001075 -0.003130
     4 F     0.000601 -0.001760 -0.002309
     5 H    -0.001312  0.000355 -0.000359
     6 O     0.004189 -0.004141 -0.008974
     7 H    -0.001524 -0.000267  0.000563
     8 H    -0.001333  0.000677  0.002097
     9 H     0.000969  0.001213 -0.001081
    10 O     0.001379 -0.011003  0.004440
 ----------------------------------------
 Mulliken charges used for AMS results%charges...

 dE(predicted):    -0.98567E-03, dE(actual):    -0.11803E-02, Trust radius:    0.400000, all in a.u.
 
----------------------------------------------------------------------
Geometry Convergence after Step   3       (Hartree/Angstrom,Angstrom)
----------------------------------------------------------------------
current energy                               -2.77786765 Hartree
energy change                      -0.00118033     0.00001000    F
constrained gradient max            0.01613230     0.00010000    F
constrained gradient rms            0.00469445     0.00006667    F
gradient max                        0.01613062
gradient rms                        0.00469445
cart. step max                      0.04000570     0.00100000    F
cart. step rms                      0.01851377     0.00066667    F
 
 
--------
Geometry
--------
Formula: H4FO4Pa
Atoms
  Index Symbol   x (angstrom)   y (angstrom)   z (angstrom)
      1     Pa     0.00413442     0.22064420     0.76627550       adf.R=2.200
      2      O     1.57461034     1.40654265    -0.03821010       adf.R=1.517
      3      O    -1.76174211     0.66984922    -0.34137869       adf.R=1.517
      4      F    -0.45760685     1.57219878     2.39384332       adf.R=1.425
      5      H    -2.55817262     1.16481908    -0.56008317       adf.R=1.350
      6      O     0.42791849    -1.44133483    -1.20494775       adf.R=1.517
      7      H    -0.24764749    -1.45341209    -1.89814837       adf.R=1.350
      8      H     0.48524676    -2.35327457    -0.88576566       adf.R=1.350
      9      H     2.33254969     1.95085414    -0.27225421       adf.R=1.350
     10      O     0.31942176    -1.31568790     1.82549077       adf.R=1.517
 
Total System Charge             0.00000
Bonding info available!
 
 *** GO1_GOStep4 ***

 SOLVATION
-------------------------------------------

  The Delley construction of COSMO surface surface is calculated

       Division Level for Surface Triangles (NDIV)                  3
       Final Division Level for Triangles (NFDIV)                   1
       Radius of the Solvent (RSOL)                           1.93000 angstr
  Dielectric Constant (EPSL)                                 78.39000

       COSMO equation is solved iteratively-               conjugate-gradient

       Maximun of Iterations for Charges (NCIX)                  1000
       Criterion for Charge convergence (CCNV)                1.0E-08

  COSMO charges included variationally in SCF

       COSMO included at every SCF cycle

  Geometry-dependent empirical factor                         0.00000

  C-Matrix calculated in cspmtx

  In cspmtx, C-Matrix calculated using fitted potential

-------------------------------------------



 -------------------------------------------
  COSMO surface
  Area             =          488.543
  Volume           =          750.284
  Number of Points =         1258
 -------------------------------------------



 ======================
 RI Hartree-Fock Scheme
 ======================
  
 Fit Set Quality     : GOOD
 Threshold Quality   : GOOD
 Integration Quality : GOOD
 Response Quality    : DEFAULT
 Is Range Separated  :  F
 
 RIHartreeFock Dependency: number of modified vectors:           4
 cosmo_calcen: 0.5 (esolb+esolc) (Hartrees) =   -0.051128

 Solvation energy (screening term,uncorrected) =    -32.083080 kcal/mol

 Solvation energy (dispersion and cavitation terms) =      0.913538 kcal/mol
 Solvation Energy Contributions (Hartrees)
          esola   esolb+esolc
     0.05112764   -0.10225527
 esol last cycle   -0.05112764
  
 Hartree-Fock exchange energy:   -510.641264089971     
 cosmo_calcen: 0.5 (esolb+esolc) (Hartrees) =   -0.051128

 Solvation energy (screening term,uncorrected) =    -32.083080 kcal/mol

 Solvation energy (dispersion and cavitation terms) =      0.913538 kcal/mol
 Solvation Energy Contributions (Hartrees)
          esola   esolb+esolc
     0.05112764   -0.10225528
 esol last cycle   -0.05112764

 Energy gradients wrt nuclear displacements
 ==========================================

     Atom      Cartesian (a.u./angstrom)
                 X         Y         Z
 ----------------------------------------
     1 Pa   -0.003042  0.013347  0.000198
     2 O     0.002915 -0.000186  0.000183
     3 O    -0.002289 -0.001051 -0.001381
     4 F    -0.000364  0.001227  0.001818
     5 H    -0.001054  0.000332 -0.000163
     6 O     0.005421 -0.002446 -0.008165
     7 H    -0.001812 -0.000950  0.000537
     8 H    -0.001687 -0.000015  0.001208
     9 H     0.000662  0.001008 -0.001064
    10 O     0.001250 -0.011265  0.006830
 ----------------------------------------
 Mulliken charges used for AMS results%charges...

 dE(predicted):    -0.24647E-03, dE(actual):    -0.37905E-03, Trust radius:    0.400000, all in a.u.
 
----------------------------------------------------------------------
Geometry Convergence after Step   4       (Hartree/Angstrom,Angstrom)
----------------------------------------------------------------------
current energy                               -2.77824670 Hartree
energy change                      -0.00037905     0.00001000    F
constrained gradient max            0.01338774     0.00010000    F
constrained gradient rms            0.00407786     0.00006667    F
gradient max                        0.01338610
gradient rms                        0.00407786
cart. step max                      0.05252708     0.00100000    F
cart. step rms                      0.02292896     0.00066667    F
 
 
--------
Geometry
--------
Formula: H4FO4Pa
Atoms
  Index Symbol   x (angstrom)   y (angstrom)   z (angstrom)
      1     Pa    -0.00838542     0.19462673     0.75511387       adf.R=2.200
      2      O     1.54062647     1.40305517    -0.04703806       adf.R=1.517
      3      O    -1.76616559     0.69460659    -0.32620713       adf.R=1.517
      4      F    -0.45249090     1.57136707     2.38353132       adf.R=1.425
      5      H    -2.54780854     1.21734616    -0.53283752       adf.R=1.350
      6      O     0.43292392    -1.46080057    -1.19512317       adf.R=1.517
      7      H    -0.20514193    -1.46254079    -1.92284366       adf.R=1.350
      8      H     0.50960347    -2.38538589    -0.91963388       adf.R=1.350
      9      H     2.30137979     1.94431913    -0.27705157       adf.R=1.350
     10      O     0.31417110    -1.29539493     1.86691142       adf.R=1.517
 
Total System Charge             0.00000
Bonding info available!
 
 *** GO1_GOStep5 ***

 SOLVATION
-------------------------------------------

  The Delley construction of COSMO surface surface is calculated

       Division Level for Surface Triangles (NDIV)                  3
       Final Division Level for Triangles (NFDIV)                   1
       Radius of the Solvent (RSOL)                           1.93000 angstr
  Dielectric Constant (EPSL)                                 78.39000

       COSMO equation is solved iteratively-               conjugate-gradient

       Maximun of Iterations for Charges (NCIX)                  1000
       Criterion for Charge convergence (CCNV)                1.0E-08

  COSMO charges included variationally in SCF

       COSMO included at every SCF cycle

  Geometry-dependent empirical factor                         0.00000

  C-Matrix calculated in cspmtx

  In cspmtx, C-Matrix calculated using fitted potential

-------------------------------------------



 -------------------------------------------
  COSMO surface
  Area             =          487.391
  Volume           =          748.265
  Number of Points =         1252
 -------------------------------------------



 ======================
 RI Hartree-Fock Scheme
 ======================
  
 Fit Set Quality     : GOOD
 Threshold Quality   : GOOD
 Integration Quality : GOOD
 Response Quality    : DEFAULT
 Is Range Separated  :  F
 
 RIHartreeFock Dependency: number of modified vectors:           4
 cosmo_calcen: 0.5 (esolb+esolc) (Hartrees) =   -0.053608

 Solvation energy (screening term,uncorrected) =    -33.639482 kcal/mol

 Solvation energy (dispersion and cavitation terms) =      0.911383 kcal/mol
 Solvation Energy Contributions (Hartrees)
          esola   esolb+esolc
     0.05360792   -0.10721584
 esol last cycle   -0.05360792
  
 Hartree-Fock exchange energy:   -510.649402826105     
 cosmo_calcen: 0.5 (esolb+esolc) (Hartrees) =   -0.053608

 Solvation energy (screening term,uncorrected) =    -33.639476 kcal/mol

 Solvation energy (dispersion and cavitation terms) =      0.911383 kcal/mol
 Solvation Energy Contributions (Hartrees)
          esola   esolb+esolc
     0.05360791   -0.10721582
 esol last cycle   -0.05360791

 Energy gradients wrt nuclear displacements
 ==========================================

     Atom      Cartesian (a.u./angstrom)
                 X         Y         Z
 ----------------------------------------
     1 Pa   -0.003233  0.006453 -0.006279
     2 O     0.001371 -0.001052  0.001474
     3 O     0.001115 -0.001413  0.001532
     4 F    -0.000922  0.003510  0.004907
     5 H    -0.000451  0.000016  0.000119
     6 O     0.005695 -0.001119 -0.006220
     7 H    -0.001561 -0.001293  0.000585
     8 H    -0.001706 -0.000455  0.000111
     9 H    -0.000096  0.000472 -0.000938
    10 O    -0.000212 -0.005119  0.004707
 ----------------------------------------
 Mulliken charges used for AMS results%charges...

 dE(predicted):    -0.29356E-03, dE(actual):    -0.42549E-03, Trust radius:    0.400000, all in a.u.
 
----------------------------------------------------------------------
Geometry Convergence after Step   5       (Hartree/Angstrom,Angstrom)
----------------------------------------------------------------------
current energy                               -2.77867219 Hartree
energy change                      -0.00042549     0.00001000    F
constrained gradient max            0.00648568     0.00010000    F
constrained gradient rms            0.00299499     0.00006667    F
gradient max                        0.00648436
gradient rms                        0.00299499
cart. step max                      0.03914074     0.00100000    F
cart. step rms                      0.01641560     0.00066667    F
 
 
--------
Geometry
--------
Formula: H4FO4Pa
Atoms
  Index Symbol   x (angstrom)   y (angstrom)   z (angstrom)
      1     Pa    -0.01041114     0.17490444     0.74980090       adf.R=2.200
      2      O     1.51323353     1.41237513    -0.04962755       adf.R=1.517
      3      O    -1.75557773     0.71371324    -0.32456659       adf.R=1.517
      4      F    -0.45823848     1.55851709     2.37741225       adf.R=1.425
      5      H    -2.52429725     1.25648690    -0.52734659       adf.R=1.350
      6      O     0.41945506    -1.48143752    -1.18018101       adf.R=1.517
      7      H    -0.18771612    -1.47062946    -1.93320828       adf.R=1.350
      8      H     0.51422560    -2.41282128    -0.93625962       adf.R=1.350
      9      H     2.27419265     1.95472011    -0.27470055       adf.R=1.350
     10      O     0.33384624    -1.28462997     1.88349868       adf.R=1.517
 
Total System Charge             0.00000
Bonding info available!
 
 *** GO1_GOStep6 ***

 SOLVATION
-------------------------------------------

  The Delley construction of COSMO surface surface is calculated

       Division Level for Surface Triangles (NDIV)                  3
       Final Division Level for Triangles (NFDIV)                   1
       Radius of the Solvent (RSOL)                           1.93000 angstr
  Dielectric Constant (EPSL)                                 78.39000

       COSMO equation is solved iteratively-               conjugate-gradient

       Maximun of Iterations for Charges (NCIX)                  1000
       Criterion for Charge convergence (CCNV)                1.0E-08

  COSMO charges included variationally in SCF

       COSMO included at every SCF cycle

  Geometry-dependent empirical factor                         0.00000

  C-Matrix calculated in cspmtx

  In cspmtx, C-Matrix calculated using fitted potential

-------------------------------------------



 -------------------------------------------
  COSMO surface
  Area             =          487.138
  Volume           =          747.710
  Number of Points =         1247
 -------------------------------------------



 ======================
 RI Hartree-Fock Scheme
 ======================
  
 Fit Set Quality     : GOOD
 Threshold Quality   : GOOD
 Integration Quality : GOOD
 Response Quality    : DEFAULT
 Is Range Separated  :  F
 
 RIHartreeFock Dependency: number of modified vectors:           4
 cosmo_calcen: 0.5 (esolb+esolc) (Hartrees) =   -0.054827

 Solvation energy (screening term,uncorrected) =    -34.404587 kcal/mol

 Solvation energy (dispersion and cavitation terms) =      0.910910 kcal/mol
 Solvation Energy Contributions (Hartrees)
          esola   esolb+esolc
     0.05482719   -0.10965439
 esol last cycle   -0.05482719
  
 Hartree-Fock exchange energy:   -510.659023227694     
 cosmo_calcen: 0.5 (esolb+esolc) (Hartrees) =   -0.054827

 Solvation energy (screening term,uncorrected) =    -34.404584 kcal/mol

 Solvation energy (dispersion and cavitation terms) =      0.910910 kcal/mol
 Solvation Energy Contributions (Hartrees)
          esola   esolb+esolc
     0.05482719   -0.10965438
 esol last cycle   -0.05482719

 Energy gradients wrt nuclear displacements
 ==========================================

     Atom      Cartesian (a.u./angstrom)
                 X         Y         Z
 ----------------------------------------
     1 Pa   -0.001507  0.000562 -0.006461
     2 O    -0.000116 -0.001739  0.002665
     3 O     0.003208 -0.001688  0.003278
     4 F    -0.000880  0.003737  0.005065
     5 H    -0.000037 -0.000310  0.000250
     6 O     0.004547 -0.000783 -0.004579
     7 H    -0.001148 -0.000991  0.000867
     8 H    -0.001301 -0.000462 -0.000486
     9 H    -0.000699  0.000058 -0.000826
    10 O    -0.002068  0.001616  0.000227
 ----------------------------------------
 Mulliken charges used for AMS results%charges...

 dE(predicted):    -0.18433E-03, dE(actual):    -0.27193E-03, Trust radius:    0.400000, all in a.u.
 
----------------------------------------------------------------------
Geometry Convergence after Step   6       (Hartree/Angstrom,Angstrom)
----------------------------------------------------------------------
current energy                               -2.77894412 Hartree
energy change                      -0.00027193     0.00001000    F
constrained gradient max            0.00646592     0.00010000    F
constrained gradient rms            0.00241079     0.00006667    F
gradient max                        0.00646569
gradient rms                        0.00241080
cart. step max                      0.05616388     0.00100000    F
cart. step rms                      0.02654469     0.00066667    F
 
 
--------
Geometry
--------
Formula: H4FO4Pa
Atoms
  Index Symbol   x (angstrom)   y (angstrom)   z (angstrom)
      1     Pa    -0.00641242     0.15011767     0.74712733       adf.R=2.200
      2      O     1.47451870     1.43671644    -0.05057720       adf.R=1.517
      3      O    -1.72820999     0.74043958    -0.33443775       adf.R=1.517
      4      F    -0.47894299     1.52655891     2.37434777       adf.R=1.425
      5      H    -2.47788021     1.30873707    -0.53797691       adf.R=1.350
      6      O     0.38448636    -1.51265616    -1.15176753       adf.R=1.517
      7      H    -0.17670235    -1.48208463    -1.93844028       adf.R=1.350
      8      H     0.50265742    -2.44971076    -0.94521136       adf.R=1.350
      9      H     2.23518774     1.98188552    -0.26807227       adf.R=1.350
     10      O     0.39001013    -1.27880495     1.88982984       adf.R=1.517
 
Total System Charge             0.00000
Bonding info available!
 
 *** GO1_GOStep7 ***

 SOLVATION
-------------------------------------------

  The Delley construction of COSMO surface surface is calculated

       Division Level for Surface Triangles (NDIV)                  3
       Final Division Level for Triangles (NFDIV)                   1
       Radius of the Solvent (RSOL)                           1.93000 angstr
  Dielectric Constant (EPSL)                                 78.39000

       COSMO equation is solved iteratively-               conjugate-gradient

       Maximun of Iterations for Charges (NCIX)                  1000
       Criterion for Charge convergence (CCNV)                1.0E-08

  COSMO charges included variationally in SCF

       COSMO included at every SCF cycle

  Geometry-dependent empirical factor                         0.00000

  C-Matrix calculated in cspmtx

  In cspmtx, C-Matrix calculated using fitted potential

-------------------------------------------



 -------------------------------------------
  COSMO surface
  Area             =          485.451
  Volume           =          745.004
  Number of Points =         1245
 -------------------------------------------



 ======================
 RI Hartree-Fock Scheme
 ======================
  
 Fit Set Quality     : GOOD
 Threshold Quality   : GOOD
 Integration Quality : GOOD
 Response Quality    : DEFAULT
 Is Range Separated  :  F
 
 RIHartreeFock Dependency: number of modified vectors:           4
 cosmo_calcen: 0.5 (esolb+esolc) (Hartrees) =   -0.055897

 Solvation energy (screening term,uncorrected) =    -35.076170 kcal/mol

 Solvation energy (dispersion and cavitation terms) =      0.907756 kcal/mol
 Solvation Energy Contributions (Hartrees)
          esola   esolb+esolc
     0.05589743   -0.11179486
 esol last cycle   -0.05589743
  
 Hartree-Fock exchange energy:   -510.670428368214     
 cosmo_calcen: 0.5 (esolb+esolc) (Hartrees) =   -0.055897

 Solvation energy (screening term,uncorrected) =    -35.076164 kcal/mol

 Solvation energy (dispersion and cavitation terms) =      0.907756 kcal/mol
 Solvation Energy Contributions (Hartrees)
          esola   esolb+esolc
     0.05589742   -0.11179484
 esol last cycle   -0.05589742

 Energy gradients wrt nuclear displacements
 ==========================================

     Atom      Cartesian (a.u./angstrom)
                 X         Y         Z
 ----------------------------------------
     1 Pa    0.002463 -0.005920 -0.003974
     2 O    -0.001758 -0.002192  0.003761
     3 O     0.004126 -0.001201  0.004201
     4 F    -0.000597  0.002922  0.003590
     5 H     0.000228 -0.000779  0.000311
     6 O     0.003082 -0.000545 -0.001819
     7 H    -0.000660 -0.000532  0.001108
     8 H    -0.000965 -0.000069 -0.000989
     9 H    -0.001269 -0.000238 -0.000746
    10 O    -0.004650  0.008555 -0.005442
 ----------------------------------------
 Mulliken charges used for AMS results%charges...

 dE(predicted):    -0.24578E-03, dE(actual):    -0.32048E-03, Trust radius:    0.400000, all in a.u.
 
----------------------------------------------------------------------
Geometry Convergence after Step   7       (Hartree/Angstrom,Angstrom)
----------------------------------------------------------------------
current energy                               -2.77926460 Hartree
energy change                      -0.00032048     0.00001000    F
constrained gradient max            0.00863219     0.00010000    F
constrained gradient rms            0.00306100     0.00006667    F
gradient max                        0.00863221
gradient rms                        0.00306100
cart. step max                      0.09053903     0.00100000    F
cart. step rms                      0.03369969     0.00066667    F
 
 
--------
Geometry
--------
Formula: H4FO4Pa
Atoms
  Index Symbol   x (angstrom)   y (angstrom)   z (angstrom)
      1     Pa     0.00299237     0.12892511     0.75009099       adf.R=2.200
      2      O     1.43506234     1.47045029    -0.04911907       adf.R=1.517
      3      O    -1.68898098     0.76517858    -0.35736170       adf.R=1.517
      4      F    -0.51687375     1.47936631     2.37803353       adf.R=1.425
      5      H    -2.41829433     1.35670860    -0.56841079       adf.R=1.350
      6      O     0.33119715    -1.54226327    -1.11630235       adf.R=1.517
      7      H    -0.18017026    -1.49209909    -1.93478438       adf.R=1.350
      8      H     0.47483294    -2.48180257    -0.94207793       adf.R=1.350
      9      H     2.19839774     2.01485046    -0.25830477       adf.R=1.350
     10      O     0.48054915    -1.27811574     1.88305812       adf.R=1.517
 
Total System Charge             0.00000
Bonding info available!
 
 *** GO1_GOStep8 ***

 SOLVATION
-------------------------------------------

  The Delley construction of COSMO surface surface is calculated

       Division Level for Surface Triangles (NDIV)                  3
       Final Division Level for Triangles (NFDIV)                   1
       Radius of the Solvent (RSOL)                           1.93000 angstr
  Dielectric Constant (EPSL)                                 78.39000

       COSMO equation is solved iteratively-               conjugate-gradient

       Maximun of Iterations for Charges (NCIX)                  1000
       Criterion for Charge convergence (CCNV)                1.0E-08

  COSMO charges included variationally in SCF

       COSMO included at every SCF cycle

  Geometry-dependent empirical factor                         0.00000

  C-Matrix calculated in cspmtx

  In cspmtx, C-Matrix calculated using fitted potential

-------------------------------------------



 -------------------------------------------
  COSMO surface
  Area             =          485.378
  Volume           =          744.184
  Number of Points =         1233
 -------------------------------------------



 ======================
 RI Hartree-Fock Scheme
 ======================
  
 Fit Set Quality     : GOOD
 Threshold Quality   : GOOD
 Integration Quality : GOOD
 Response Quality    : DEFAULT
 Is Range Separated  :  F
 
 RIHartreeFock Dependency: number of modified vectors:           4
 cosmo_calcen: 0.5 (esolb+esolc) (Hartrees) =   -0.056624

 Solvation energy (screening term,uncorrected) =    -35.532247 kcal/mol

 Solvation energy (dispersion and cavitation terms) =      0.907619 kcal/mol
 Solvation Energy Contributions (Hartrees)
          esola   esolb+esolc
     0.05662423   -0.11324847
 esol last cycle   -0.05662423
  
 Hartree-Fock exchange energy:   -510.677540646512     
 cosmo_calcen: 0.5 (esolb+esolc) (Hartrees) =   -0.056624

 Solvation energy (screening term,uncorrected) =    -35.532244 kcal/mol

 Solvation energy (dispersion and cavitation terms) =      0.907619 kcal/mol
 Solvation Energy Contributions (Hartrees)
          esola   esolb+esolc
     0.05662423   -0.11324846
 esol last cycle   -0.05662423

 Energy gradients wrt nuclear displacements
 ==========================================

     Atom      Cartesian (a.u./angstrom)
                 X         Y         Z
 ----------------------------------------
     1 Pa    0.007368 -0.009982 -0.000469
     2 O    -0.002868 -0.001888  0.003867
     3 O     0.003009  0.000345  0.003418
     4 F    -0.000091  0.001304  0.000773
     5 H     0.000132 -0.001205  0.000185
     6 O     0.002018  0.000674  0.001333
     7 H    -0.000311 -0.000218  0.001093
     8 H    -0.000911  0.000247 -0.001221
     9 H    -0.001521 -0.000154 -0.000782
    10 O    -0.006826  0.010878 -0.008197
 ----------------------------------------
 Mulliken charges used for AMS results%charges...

 dE(predicted):    -0.25822E-03, dE(actual):    -0.35312E-03, Trust radius:    0.400000, all in a.u.
 
----------------------------------------------------------------------
Geometry Convergence after Step   8       (Hartree/Angstrom,Angstrom)
----------------------------------------------------------------------
current energy                               -2.77961772 Hartree
energy change                      -0.00035312     0.00001000    F
constrained gradient max            0.01096416     0.00010000    F
constrained gradient rms            0.00387500     0.00006667    F
gradient max                        0.01096632
gradient rms                        0.00387501
cart. step max                      0.13999516     0.00100000    F
cart. step rms                      0.04552087     0.00066667    F
 
 
--------
Geometry
--------
Formula: H4FO4Pa
Atoms
  Index Symbol   x (angstrom)   y (angstrom)   z (angstrom)
      1     Pa     0.01629784     0.11432387     0.75692047       adf.R=2.200
      2      O     1.39649589     1.51522920    -0.04379437       adf.R=1.517
      3      O    -1.63902712     0.78663264    -0.39667386       adf.R=1.517
      4      F    -0.58177252     1.40795366     2.39037067       adf.R=1.425
      5      H    -2.34674381     1.39930412    -0.62111198       adf.R=1.350
      6      O     0.25282640    -1.56868662    -1.07271554       adf.R=1.517
      7      H    -0.20378585    -1.50296152    -1.92165073       adf.R=1.350
      8      H     0.43148689    -2.50670330    -0.92634339       adf.R=1.350
      9      H     2.17239035     2.04655132    -0.24021787       adf.R=1.350
     10      O     0.62054431    -1.27044470     1.86003822       adf.R=1.517
 
Total System Charge             0.00000
Bonding info available!
 
 *** GO1_GOStep9 ***

 SOLVATION
-------------------------------------------

  The Delley construction of COSMO surface surface is calculated

       Division Level for Surface Triangles (NDIV)                  3
       Final Division Level for Triangles (NFDIV)                   1
       Radius of the Solvent (RSOL)                           1.93000 angstr
  Dielectric Constant (EPSL)                                 78.39000

       COSMO equation is solved iteratively-               conjugate-gradient

       Maximun of Iterations for Charges (NCIX)                  1000
       Criterion for Charge convergence (CCNV)                1.0E-08

  COSMO charges included variationally in SCF

       COSMO included at every SCF cycle

  Geometry-dependent empirical factor                         0.00000

  C-Matrix calculated in cspmtx

  In cspmtx, C-Matrix calculated using fitted potential

-------------------------------------------



 -------------------------------------------
  COSMO surface
  Area             =          485.126
  Volume           =          744.042
  Number of Points =         1230
 -------------------------------------------



 ======================
 RI Hartree-Fock Scheme
 ======================
  
 Fit Set Quality     : GOOD
 Threshold Quality   : GOOD
 Integration Quality : GOOD
 Response Quality    : DEFAULT
 Is Range Separated  :  F
 
 RIHartreeFock Dependency: number of modified vectors:           4
 cosmo_calcen: 0.5 (esolb+esolc) (Hartrees) =   -0.057208

 Solvation energy (screening term,uncorrected) =    -35.898836 kcal/mol

 Solvation energy (dispersion and cavitation terms) =      0.907149 kcal/mol
 Solvation Energy Contributions (Hartrees)
          esola   esolb+esolc
     0.05720843   -0.11441686
 esol last cycle   -0.05720843
  
 Hartree-Fock exchange energy:   -510.679209442626     
 cosmo_calcen: 0.5 (esolb+esolc) (Hartrees) =   -0.057208

 Solvation energy (screening term,uncorrected) =    -35.898825 kcal/mol

 Solvation energy (dispersion and cavitation terms) =      0.907149 kcal/mol
 Solvation Energy Contributions (Hartrees)
          esola   esolb+esolc
     0.05720841   -0.11441683
 esol last cycle   -0.05720841

 Energy gradients wrt nuclear displacements
 ==========================================

     Atom      Cartesian (a.u./angstrom)
                 X         Y         Z
 ----------------------------------------
     1 Pa    0.011216 -0.009790  0.002986
     2 O    -0.003116 -0.000818  0.002722
     3 O     0.000297  0.002816  0.000693
     4 F     0.000823 -0.001304 -0.003270
     5 H    -0.000320 -0.001588 -0.000109
     6 O     0.001111  0.003429  0.004916
     7 H     0.000248 -0.000389  0.000881
     8 H    -0.001369  0.000136 -0.001280
     9 H    -0.001534  0.000397 -0.000992
    10 O    -0.007355  0.007112 -0.006548
 ----------------------------------------
 Mulliken charges used for AMS results%charges...

 dE(predicted):    -0.32832E-03, dE(actual):    -0.42995E-03, Trust radius:    0.400000, all in a.u.
 
----------------------------------------------------------------------
Geometry Convergence after Step   9       (Hartree/Angstrom,Angstrom)
----------------------------------------------------------------------
current energy                               -2.78004767 Hartree
energy change                      -0.00042995     0.00001000    F
constrained gradient max            0.01126682     0.00010000    F
constrained gradient rms            0.00393731     0.00006667    F
gradient max                        0.01127155
gradient rms                        0.00393733
cart. step max                      0.13729585     0.00100000    F
cart. step rms                      0.04031546     0.00066667    F
 
 
--------
Geometry
--------
Formula: H4FO4Pa
Atoms
  Index Symbol   x (angstrom)   y (angstrom)   z (angstrom)
      1     Pa     0.02144401     0.11399574     0.76210977       adf.R=2.200
      2      O     1.37675125     1.55012415    -0.03577135       adf.R=1.517
      3      O    -1.60809699     0.79478724    -0.43494803       adf.R=1.517
      4      F    -0.65058449     1.34148476     2.40529390       adf.R=1.425
      5      H    -2.30156277     1.41998662    -0.67056171       adf.R=1.350
      6      O     0.18111537    -1.58010727    -1.04137520       adf.R=1.517
      7      H    -0.24372608    -1.51273468    -1.90687925       adf.R=1.350
      8      H     0.40553218    -2.51063310    -0.91037348       adf.R=1.350
      9      H     2.17999975     2.04634076    -0.21472088       adf.R=1.350
     10      O     0.75784016    -1.24204555     1.83204786       adf.R=1.517
 
Total System Charge             0.00000
Bonding info available!
 
 *** GO1_GOStep10 ***

 SOLVATION
-------------------------------------------

  The Delley construction of COSMO surface surface is calculated

       Division Level for Surface Triangles (NDIV)                  3
       Final Division Level for Triangles (NFDIV)                   1
       Radius of the Solvent (RSOL)                           1.93000 angstr
  Dielectric Constant (EPSL)                                 78.39000

       COSMO equation is solved iteratively-               conjugate-gradient

       Maximun of Iterations for Charges (NCIX)                  1000
       Criterion for Charge convergence (CCNV)                1.0E-08

  COSMO charges included variationally in SCF

       COSMO included at every SCF cycle

  Geometry-dependent empirical factor                         0.00000

  C-Matrix calculated in cspmtx

  In cspmtx, C-Matrix calculated using fitted potential

-------------------------------------------



 -------------------------------------------
  COSMO surface
  Area             =          483.639
  Volume           =          742.323
  Number of Points =         1235
 -------------------------------------------



 ======================
 RI Hartree-Fock Scheme
 ======================
  
 Fit Set Quality     : GOOD
 Threshold Quality   : GOOD
 Integration Quality : GOOD
 Response Quality    : DEFAULT
 Is Range Separated  :  F
 
 RIHartreeFock Dependency: number of modified vectors:           4
 cosmo_calcen: 0.5 (esolb+esolc) (Hartrees) =   -0.057632

 Solvation energy (screening term,uncorrected) =    -36.164830 kcal/mol

 Solvation energy (dispersion and cavitation terms) =      0.904368 kcal/mol
 Solvation Energy Contributions (Hartrees)
          esola   esolb+esolc
     0.05763232   -0.11526464
 esol last cycle   -0.05763232
  
 Hartree-Fock exchange energy:   -510.674260969877     
 cosmo_calcen: 0.5 (esolb+esolc) (Hartrees) =   -0.057632

 Solvation energy (screening term,uncorrected) =    -36.164817 kcal/mol

 Solvation energy (dispersion and cavitation terms) =      0.904368 kcal/mol
 Solvation Energy Contributions (Hartrees)
          esola   esolb+esolc
     0.05763230   -0.11526460
 esol last cycle   -0.05763230

 Energy gradients wrt nuclear displacements
 ==========================================

     Atom      Cartesian (a.u./angstrom)
                 X         Y         Z
 ----------------------------------------
     1 Pa    0.010662 -0.005505  0.004336
     2 O    -0.002041  0.000366  0.001211
     3 O    -0.002604  0.004314 -0.002478
     4 F     0.001799 -0.003453 -0.006145
     5 H    -0.000998 -0.001661 -0.000469
     6 O     0.000326  0.006086  0.007254
     7 H     0.000485 -0.000496 -0.000196
     8 H    -0.001470 -0.000367 -0.000753
     9 H    -0.001276  0.001269 -0.001373
    10 O    -0.004882 -0.000554 -0.001387
 ----------------------------------------
 Mulliken charges used for AMS results%charges...

 dE(predicted):    -0.30558E-03, dE(actual):    -0.49389E-03, Trust radius:    0.400000, all in a.u.
 
----------------------------------------------------------------------
Geometry Convergence after Step  10       (Hartree/Angstrom,Angstrom)
----------------------------------------------------------------------
current energy                               -2.78054156 Hartree
energy change                      -0.00049389     0.00001000    F
constrained gradient max            0.01070665     0.00010000    F
constrained gradient rms            0.00356441     0.00006667    F
gradient max                        0.01071467
gradient rms                        0.00356445
cart. step max                      0.19847038     0.00100000    F
cart. step rms                      0.05851398     0.00066667    F
 
 
--------
Geometry
--------
Formula: H4FO4Pa
Atoms
  Index Symbol   x (angstrom)   y (angstrom)   z (angstrom)
      1     Pa     0.01342064     0.12369220     0.76118031       adf.R=2.200
      2      O     1.36132004     1.58947590    -0.02293171       adf.R=1.517
      3      O    -1.58925295     0.80141182    -0.48539053       adf.R=1.517
      4      F    -0.75364964     1.24789660     2.42452833       adf.R=1.425
      5      H    -2.26639166     1.44331580    -0.72644611       adf.R=1.350
      6      O     0.08748929    -1.59073918    -1.00863956       adf.R=1.517
      7      H    -0.31417547    -1.53541217    -1.88648801       adf.R=1.350
      8      H     0.40047865    -2.49833505    -0.89855193       adf.R=1.350
      9      H     2.22316294     1.99314540    -0.16047739       adf.R=1.350
     10      O     0.95631054    -1.15325264     1.78803823       adf.R=1.517
 
Total System Charge             0.00000
Bonding info available!
 
 *** GO1_GOStep11 ***

 SOLVATION
-------------------------------------------

  The Delley construction of COSMO surface surface is calculated

       Division Level for Surface Triangles (NDIV)                  3
       Final Division Level for Triangles (NFDIV)                   1
       Radius of the Solvent (RSOL)                           1.93000 angstr
  Dielectric Constant (EPSL)                                 78.39000

       COSMO equation is solved iteratively-               conjugate-gradient

       Maximun of Iterations for Charges (NCIX)                  1000
       Criterion for Charge convergence (CCNV)                1.0E-08

  COSMO charges included variationally in SCF

       COSMO included at every SCF cycle

  Geometry-dependent empirical factor                         0.00000

  C-Matrix calculated in cspmtx

  In cspmtx, C-Matrix calculated using fitted potential

-------------------------------------------



 -------------------------------------------
  COSMO surface
  Area             =          485.233
  Volume           =          745.380
  Number of Points =         1232
 -------------------------------------------



 ======================
 RI Hartree-Fock Scheme
 ======================
  
 Fit Set Quality     : GOOD
 Threshold Quality   : GOOD
 Integration Quality : GOOD
 Response Quality    : DEFAULT
 Is Range Separated  :  F
 
 RIHartreeFock Dependency: number of modified vectors:           4
 cosmo_calcen: 0.5 (esolb+esolc) (Hartrees) =   -0.058993

 Solvation energy (screening term,uncorrected) =    -37.018638 kcal/mol

 Solvation energy (dispersion and cavitation terms) =      0.907348 kcal/mol
 Solvation Energy Contributions (Hartrees)
          esola   esolb+esolc
     0.05899295   -0.11798590
 esol last cycle   -0.05899295
  
 Hartree-Fock exchange energy:   -510.663514958459     
 cosmo_calcen: 0.5 (esolb+esolc) (Hartrees) =   -0.058993

 Solvation energy (screening term,uncorrected) =    -37.018629 kcal/mol

 Solvation energy (dispersion and cavitation terms) =      0.907348 kcal/mol
 Solvation Energy Contributions (Hartrees)
          esola   esolb+esolc
     0.05899293   -0.11798587
 esol last cycle   -0.05899293

 Energy gradients wrt nuclear displacements
 ==========================================

     Atom      Cartesian (a.u./angstrom)
                 X         Y         Z
 ----------------------------------------
     1 Pa    0.003239  0.002007  0.002815
     2 O     0.000861  0.001768 -0.000121
     3 O    -0.006618  0.004923 -0.006240
     4 F     0.002959 -0.005163 -0.008170
     5 H    -0.001914 -0.001507 -0.001029
     6 O    -0.000796  0.009516  0.008607
     7 H     0.000990 -0.001265 -0.001494
     8 H    -0.001646 -0.000796 -0.000243
     9 H    -0.000543  0.002543 -0.002066
    10 O     0.003468 -0.012025  0.007942
 ----------------------------------------
 Mulliken charges used for AMS results%charges...
 Rebuilding optimization coordinates

 dE(predicted):    -0.67244E-03, dE(actual):    -0.87103E-03, Trust radius:    0.800000, all in a.u.
 
----------------------------------------------------------------------
Geometry Convergence after Step  11       (Hartree/Angstrom,Angstrom)
----------------------------------------------------------------------
current energy                               -2.78141259 Hartree
energy change                      -0.00087103     0.00001000    F
constrained gradient max            0.01206040     0.00010000    F
constrained gradient rms            0.00464237     0.00006667    F
gradient max                        0.01202885
gradient rms                        0.00464247
cart. step max                      0.21846911     0.00100000    F
cart. step rms                      0.07515647     0.00066667    F
 
 
--------
Geometry
--------
Formula: H4FO4Pa
Atoms
  Index Symbol   x (angstrom)   y (angstrom)   z (angstrom)
      1     Pa    -0.01099912     0.13613444     0.74272584       adf.R=2.200
      2      O     1.34820940     1.62521910    -0.01063625       adf.R=1.517
      3      O    -1.58924573     0.82732375    -0.53331114       adf.R=1.517
      4      F    -0.87774610     1.12207154     2.43770229       adf.R=1.425
      5      H    -2.24585402     1.49816960    -0.75548863       adf.R=1.350
      6      O    -0.00352099    -1.61615086    -0.97748584       adf.R=1.517
      7      H    -0.39141631    -1.58423119    -1.86316573       adf.R=1.350
      8      H     0.43685127    -2.47339488    -0.90070647       adf.R=1.350
      9      H     2.27765433     1.86265279    -0.08730780       adf.R=1.350
     10      O     1.17477965    -0.97659561     1.73249537       adf.R=1.517
 
Total System Charge             0.00000
Bonding info available!
 
 *** GO1_GOStep12 ***

 SOLVATION
-------------------------------------------

  The Delley construction of COSMO surface surface is calculated

       Division Level for Surface Triangles (NDIV)                  3
       Final Division Level for Triangles (NFDIV)                   1
       Radius of the Solvent (RSOL)                           1.93000 angstr
  Dielectric Constant (EPSL)                                 78.39000

       COSMO equation is solved iteratively-               conjugate-gradient

       Maximun of Iterations for Charges (NCIX)                  1000
       Criterion for Charge convergence (CCNV)                1.0E-08

  COSMO charges included variationally in SCF

       COSMO included at every SCF cycle

  Geometry-dependent empirical factor                         0.00000

  C-Matrix calculated in cspmtx

  In cspmtx, C-Matrix calculated using fitted potential

-------------------------------------------



 -------------------------------------------
  COSMO surface
  Area             =          486.539
  Volume           =          749.672
  Number of Points =         1222
 -------------------------------------------



 ======================
 RI Hartree-Fock Scheme
 ======================
  
 Fit Set Quality     : GOOD
 Threshold Quality   : GOOD
 Integration Quality : GOOD
 Response Quality    : DEFAULT
 Is Range Separated  :  F
 
 RIHartreeFock Dependency: number of modified vectors:           4
 cosmo_calcen: 0.5 (esolb+esolc) (Hartrees) =   -0.062590

 Solvation energy (screening term,uncorrected) =    -39.275789 kcal/mol

 Solvation energy (dispersion and cavitation terms) =      0.909790 kcal/mol
 Solvation Energy Contributions (Hartrees)
          esola   esolb+esolc
     0.06258995   -0.12517989
 esol last cycle   -0.06258995
  
 Hartree-Fock exchange energy:   -510.653462581160     
 cosmo_calcen: 0.5 (esolb+esolc) (Hartrees) =   -0.062590

 Solvation energy (screening term,uncorrected) =    -39.275774 kcal/mol

 Solvation energy (dispersion and cavitation terms) =      0.909790 kcal/mol
 Solvation Energy Contributions (Hartrees)
          esola   esolb+esolc
     0.06258992   -0.12517985
 esol last cycle   -0.06258992

 Energy gradients wrt nuclear displacements
 ==========================================

     Atom      Cartesian (a.u./angstrom)
                 X         Y         Z
 ----------------------------------------
     1 Pa   -0.012658  0.005820 -0.001506
     2 O     0.005459  0.001742  0.000721
     3 O    -0.010158  0.005250 -0.009099
     4 F     0.004156 -0.005784 -0.008921
     5 H    -0.002641 -0.000927 -0.001732
     6 O    -0.002716  0.012958  0.009527
     7 H     0.001858 -0.002751 -0.002416
     8 H    -0.001382 -0.001013 -0.000745
     9 H    -0.000120  0.002930 -0.002873
    10 O     0.018201 -0.018224  0.017044
 ----------------------------------------
 Mulliken charges used for AMS results%charges...

 dE(predicted):    -0.13878E-02, dE(actual):    -0.12863E-02, Trust radius:    0.800000, all in a.u.
 
----------------------------------------------------------------------
Geometry Convergence after Step  12       (Hartree/Angstrom,Angstrom)
----------------------------------------------------------------------
current energy                               -2.78269885 Hartree
energy change                      -0.00128626     0.00001000    F
constrained gradient max            0.01825836     0.00010000    F
constrained gradient rms            0.00783479     0.00006667    F
gradient max                        0.01825836
gradient rms                        0.00783479
cart. step max                      0.06108117     0.00100000    F
cart. step rms                      0.02092387     0.00066667    F
 
 
--------
Geometry
--------
Formula: H4FO4Pa
Atoms
  Index Symbol   x (angstrom)   y (angstrom)   z (angstrom)
      1     Pa    -0.02268029     0.14680805     0.74589825       adf.R=2.200
      2      O     1.35456350     1.60990267    -0.01688957       adf.R=1.517
      3      O    -1.60788144     0.82149683    -0.51969380       adf.R=1.517
      4      F    -0.84934656     1.16907801     2.44771203       adf.R=1.425
      5      H    -2.26831503     1.48832618    -0.74145703       adf.R=1.350
      6      O     0.03378680    -1.60747860    -0.99591598       adf.R=1.517
      7      H    -0.38708855    -1.58411971    -1.86661765       adf.R=1.350
      8      H     0.46951297    -2.46555825    -0.90136595       adf.R=1.350
      9      H     2.28246250     1.85394842    -0.09581348       adf.R=1.350
     10      O     1.11369848    -1.01120490     1.72896482       adf.R=1.517
 
Total System Charge             0.00000
Bonding info available!
 
 *** GO1_GOStep13 ***

 SOLVATION
-------------------------------------------

  The Delley construction of COSMO surface surface is calculated

       Division Level for Surface Triangles (NDIV)                  3
       Final Division Level for Triangles (NFDIV)                   1
       Radius of the Solvent (RSOL)                           1.93000 angstr
  Dielectric Constant (EPSL)                                 78.39000

       COSMO equation is solved iteratively-               conjugate-gradient

       Maximun of Iterations for Charges (NCIX)                  1000
       Criterion for Charge convergence (CCNV)                1.0E-08

  COSMO charges included variationally in SCF

       COSMO included at every SCF cycle

  Geometry-dependent empirical factor                         0.00000

  C-Matrix calculated in cspmtx

  In cspmtx, C-Matrix calculated using fitted potential

-------------------------------------------



 -------------------------------------------
  COSMO surface
  Area             =          486.080
  Volume           =          748.887
  Number of Points =         1227
 -------------------------------------------



 ======================
 RI Hartree-Fock Scheme
 ======================
  
 Fit Set Quality     : GOOD
 Threshold Quality   : GOOD
 Integration Quality : GOOD
 Response Quality    : DEFAULT
 Is Range Separated  :  F
 
 RIHartreeFock Dependency: number of modified vectors:           4
 cosmo_calcen: 0.5 (esolb+esolc) (Hartrees) =   -0.061140

 Solvation energy (screening term,uncorrected) =    -38.365890 kcal/mol

 Solvation energy (dispersion and cavitation terms) =      0.908932 kcal/mol
 Solvation Energy Contributions (Hartrees)
          esola   esolb+esolc
     0.06113993   -0.12227986
 esol last cycle   -0.06113993
  
 Hartree-Fock exchange energy:   -510.656921653494     
 cosmo_calcen: 0.5 (esolb+esolc) (Hartrees) =   -0.061140

 Solvation energy (screening term,uncorrected) =    -38.365939 kcal/mol

 Solvation energy (dispersion and cavitation terms) =      0.908932 kcal/mol
 Solvation Energy Contributions (Hartrees)
          esola   esolb+esolc
     0.06114001   -0.12228002
 esol last cycle   -0.06114001

 Energy gradients wrt nuclear displacements
 ==========================================

     Atom      Cartesian (a.u./angstrom)
                 X         Y         Z
 ----------------------------------------
     1 Pa   -0.008047  0.008805 -0.000820
     2 O     0.003822  0.000544  0.001148
     3 O    -0.008098  0.003767 -0.007011
     4 F     0.003016 -0.004907 -0.006696
     5 H    -0.002063 -0.001266 -0.001201
     6 O    -0.001851  0.007158  0.004781
     7 H    -0.000129  0.000425 -0.002517
     8 H     0.000380 -0.001801  0.002260
     9 H     0.000600  0.003022 -0.002731
    10 O     0.012369 -0.015747  0.012788
 ----------------------------------------
 Mulliken charges used for AMS results%charges...

 dE(predicted):    -0.33702E-03, dE(actual):    -0.51035E-03, Trust radius:    0.800000, all in a.u.
 
----------------------------------------------------------------------
Geometry Convergence after Step  13       (Hartree/Angstrom,Angstrom)
----------------------------------------------------------------------
current energy                               -2.78320920 Hartree
energy change                      -0.00051035     0.00001000    F
constrained gradient max            0.01577881     0.00010000    F
constrained gradient rms            0.00590860     0.00006667    F
gradient max                        0.01577881
gradient rms                        0.00590860
cart. step max                      0.20720309     0.00100000    F
cart. step rms                      0.07342264     0.00066667    F
 
 
--------
Geometry
--------
Formula: H4FO4Pa
Atoms
  Index Symbol   x (angstrom)   y (angstrom)   z (angstrom)
      1     Pa    -0.08375621     0.15189930     0.70944712       adf.R=2.200
      2      O     1.29920207     1.62051470    -0.03796417       adf.R=1.517
      3      O    -1.63644878     0.89737257    -0.51434785       adf.R=1.517
      4      F    -0.92106586     1.11223794     2.47186850       adf.R=1.425
      5      H    -2.24279390     1.62992213    -0.67701791       adf.R=1.350
      6      O     0.04092824    -1.66295349    -0.98663908       adf.R=1.517
      7      H    -0.39574947    -1.68210044    -1.84856228       adf.R=1.350
      8      H     0.61674711    -2.43730731    -0.93000029       adf.R=1.350
      9      H     2.26282977     1.64674533    -0.07117518       adf.R=1.350
     10      O     1.17881939    -0.85513204     1.66921280       adf.R=1.517
 
Total System Charge             0.00000
Bonding info available!
 
 *** GO1_GOStep14 ***

 SOLVATION
-------------------------------------------

  The Delley construction of COSMO surface surface is calculated

       Division Level for Surface Triangles (NDIV)                  3
       Final Division Level for Triangles (NFDIV)                   1
       Radius of the Solvent (RSOL)                           1.93000 angstr
  Dielectric Constant (EPSL)                                 78.39000

       COSMO equation is solved iteratively-               conjugate-gradient

       Maximun of Iterations for Charges (NCIX)                  1000
       Criterion for Charge convergence (CCNV)                1.0E-08

  COSMO charges included variationally in SCF

       COSMO included at every SCF cycle

  Geometry-dependent empirical factor                         0.00000

  C-Matrix calculated in cspmtx

  In cspmtx, C-Matrix calculated using fitted potential

-------------------------------------------



 -------------------------------------------
  COSMO surface
  Area             =          484.243
  Volume           =          751.109
  Number of Points =         1204
 -------------------------------------------



 ======================
 RI Hartree-Fock Scheme
 ======================
  
 Fit Set Quality     : GOOD
 Threshold Quality   : GOOD
 Integration Quality : GOOD
 Response Quality    : DEFAULT
 Is Range Separated  :  F
 
 RIHartreeFock Dependency: number of modified vectors:           4
 cosmo_calcen: 0.5 (esolb+esolc) (Hartrees) =   -0.065070

 Solvation energy (screening term,uncorrected) =    -40.832024 kcal/mol

 Solvation energy (dispersion and cavitation terms) =      0.905497 kcal/mol
 Solvation Energy Contributions (Hartrees)
          esola   esolb+esolc
     0.06506997   -0.13013993
 esol last cycle   -0.06506997
  
 Hartree-Fock exchange energy:   -510.677098304345     
 cosmo_calcen: 0.5 (esolb+esolc) (Hartrees) =   -0.065070

 Solvation energy (screening term,uncorrected) =    -40.832010 kcal/mol

 Solvation energy (dispersion and cavitation terms) =      0.905497 kcal/mol
 Solvation Energy Contributions (Hartrees)
          esola   esolb+esolc
     0.06506994   -0.13013988
 esol last cycle   -0.06506994

 Energy gradients wrt nuclear displacements
 ==========================================

     Atom      Cartesian (a.u./angstrom)
                 X         Y         Z
 ----------------------------------------
     1 Pa   -0.003269  0.004321 -0.009077
     2 O    -0.001769 -0.003863  0.005528
     3 O    -0.000916  0.001597 -0.000524
     4 F     0.000780 -0.002048  0.000059
     5 H    -0.000957 -0.001421 -0.000426
     6 O    -0.000964  0.002540  0.002097
     7 H    -0.000435  0.001082 -0.000374
     8 H     0.001115 -0.001081  0.001537
     9 H     0.002355  0.000775 -0.003099
    10 O     0.004060 -0.001904  0.004279
 ----------------------------------------
 Mulliken charges used for AMS results%charges...

 dE(predicted):    -0.24803E-02, dE(actual):    -0.17279E-02, Trust radius:    0.800000, all in a.u.
 
----------------------------------------------------------------------
Geometry Convergence after Step  14       (Hartree/Angstrom,Angstrom)
----------------------------------------------------------------------
current energy                               -2.78493711 Hartree
energy change                      -0.00172791     0.00001000    F
constrained gradient max            0.00907352     0.00010000    F
constrained gradient rms            0.00285269     0.00006667    F
gradient max                        0.00907352
gradient rms                        0.00285269
cart. step max                      0.08663277     0.00100000    F
cart. step rms                      0.03004477     0.00066667    F
 
 
--------
Geometry
--------
Formula: H4FO4Pa
Atoms
  Index Symbol   x (angstrom)   y (angstrom)   z (angstrom)
      1     Pa    -0.10022461     0.13182260     0.71591164       adf.R=2.200
      2      O     1.26761756     1.59249575    -0.06320271       adf.R=1.517
      3      O    -1.64439930     0.89564466    -0.48354820       adf.R=1.517
      4      F    -0.88286062     1.19887071     2.46242054       adf.R=1.425
      5      H    -2.22410936     1.65035263    -0.64314862       adf.R=1.350
      6      O     0.07582216    -1.66988321    -1.00266753       adf.R=1.517
      7      H    -0.37303222    -1.69666185    -1.85690748       adf.R=1.350
      8      H     0.65433330    -2.44123204    -0.96109818       adf.R=1.350
      9      H     2.22866587     1.65867792    -0.06361969       adf.R=1.350
     10      O     1.11689961    -0.89888848     1.68068187       adf.R=1.517
 
Total System Charge             0.00000
Bonding info available!
 
 *** GO1_GOStep15 ***

 SOLVATION
-------------------------------------------

  The Delley construction of COSMO surface surface is calculated

       Division Level for Surface Triangles (NDIV)                  3
       Final Division Level for Triangles (NFDIV)                   1
       Radius of the Solvent (RSOL)                           1.93000 angstr
  Dielectric Constant (EPSL)                                 78.39000

       COSMO equation is solved iteratively-               conjugate-gradient

       Maximun of Iterations for Charges (NCIX)                  1000
       Criterion for Charge convergence (CCNV)                1.0E-08

  COSMO charges included variationally in SCF

       COSMO included at every SCF cycle

  Geometry-dependent empirical factor                         0.00000

  C-Matrix calculated in cspmtx

  In cspmtx, C-Matrix calculated using fitted potential

-------------------------------------------



 -------------------------------------------
  COSMO surface
  Area             =          485.892
  Volume           =          753.659
  Number of Points =         1218
 -------------------------------------------



 ======================
 RI Hartree-Fock Scheme
 ======================
  
 Fit Set Quality     : GOOD
 Threshold Quality   : GOOD
 Integration Quality : GOOD
 Response Quality    : DEFAULT
 Is Range Separated  :  F
 
 RIHartreeFock Dependency: number of modified vectors:           4
 cosmo_calcen: 0.5 (esolb+esolc) (Hartrees) =   -0.065196

 Solvation energy (screening term,uncorrected) =    -40.911415 kcal/mol

 Solvation energy (dispersion and cavitation terms) =      0.908580 kcal/mol
 Solvation Energy Contributions (Hartrees)
          esola   esolb+esolc
     0.06519648   -0.13039297
 esol last cycle   -0.06519648
  
 Hartree-Fock exchange energy:   -510.692323439822     
 cosmo_calcen: 0.5 (esolb+esolc) (Hartrees) =   -0.065196

 Solvation energy (screening term,uncorrected) =    -40.911411 kcal/mol

 Solvation energy (dispersion and cavitation terms) =      0.908580 kcal/mol
 Solvation Energy Contributions (Hartrees)
          esola   esolb+esolc
     0.06519648   -0.13039295
 esol last cycle   -0.06519648

 Energy gradients wrt nuclear displacements
 ==========================================

     Atom      Cartesian (a.u./angstrom)
                 X         Y         Z
 ----------------------------------------
     1 Pa    0.008281 -0.001483 -0.008638
     2 O    -0.003096 -0.004648  0.005147
     3 O     0.005410 -0.000846  0.004473
     4 F    -0.001470  0.000771  0.003291
     5 H    -0.000855 -0.001329  0.000026
     6 O     0.000642  0.000755  0.002302
     7 H     0.001048 -0.000142  0.001531
     8 H    -0.001261  0.000741 -0.000641
     9 H    -0.000013  0.000821 -0.002531
    10 O    -0.008686  0.005360 -0.004961
 ----------------------------------------
 Mulliken charges used for AMS results%charges...

 dE(predicted):    -0.31047E-03, dE(actual):    -0.13880E-03, Trust radius:    0.800000, all in a.u.
 
----------------------------------------------------------------------
Geometry Convergence after Step  15       (Hartree/Angstrom,Angstrom)
----------------------------------------------------------------------
current energy                               -2.78507591 Hartree
energy change                      -0.00013880     0.00001000    F
constrained gradient max            0.00866547     0.00010000    F
constrained gradient rms            0.00372962     0.00006667    F
gradient max                        0.00866547
gradient rms                        0.00372962
cart. step max                      0.04434773     0.00100000    F
cart. step rms                      0.01791434     0.00066667    F
 
 
--------
Geometry
--------
Formula: H4FO4Pa
Atoms
  Index Symbol   x (angstrom)   y (angstrom)   z (angstrom)
      1     Pa    -0.11214638     0.13183682     0.71442364       adf.R=2.200
      2      O     1.26916541     1.58364529    -0.07194155       adf.R=1.517
      3      O    -1.65846856     0.89621128    -0.48167091       adf.R=1.517
      4      F    -0.89652228     1.20744185     2.45499135       adf.R=1.425
      5      H    -2.22284863     1.66463948    -0.63262789       adf.R=1.350
      6      O     0.07089901    -1.67837057    -1.00812614       adf.R=1.517
      7      H    -0.39465963    -1.71847456    -1.85351018       adf.R=1.350
      8      H     0.68832863    -2.42003603    -0.98018581       adf.R=1.350
      9      H     2.23059947     1.61433019    -0.02969784       adf.R=1.350
     10      O     1.14436535    -0.86002507     1.67316696       adf.R=1.517
 
Total System Charge             0.00000
Bonding info available!
 
 *** GO1_GOStep16 ***

 SOLVATION
-------------------------------------------

  The Delley construction of COSMO surface surface is calculated

       Division Level for Surface Triangles (NDIV)                  3
       Final Division Level for Triangles (NFDIV)                   1
       Radius of the Solvent (RSOL)                           1.93000 angstr
  Dielectric Constant (EPSL)                                 78.39000

       COSMO equation is solved iteratively-               conjugate-gradient

       Maximun of Iterations for Charges (NCIX)                  1000
       Criterion for Charge convergence (CCNV)                1.0E-08

  COSMO charges included variationally in SCF

       COSMO included at every SCF cycle

  Geometry-dependent empirical factor                         0.00000

  C-Matrix calculated in cspmtx

  In cspmtx, C-Matrix calculated using fitted potential

-------------------------------------------



 -------------------------------------------
  COSMO surface
  Area             =          484.528
  Volume           =          753.630
  Number of Points =         1206
 -------------------------------------------



 ======================
 RI Hartree-Fock Scheme
 ======================
  
 Fit Set Quality     : GOOD
 Threshold Quality   : GOOD
 Integration Quality : GOOD
 Response Quality    : DEFAULT
 Is Range Separated  :  F
 
 RIHartreeFock Dependency: number of modified vectors:           4
 cosmo_calcen: 0.5 (esolb+esolc) (Hartrees) =   -0.065787

 Solvation energy (screening term,uncorrected) =    -41.281914 kcal/mol

 Solvation energy (dispersion and cavitation terms) =      0.906029 kcal/mol
 Solvation Energy Contributions (Hartrees)
          esola   esolb+esolc
     0.06578691   -0.13157382
 esol last cycle   -0.06578691
  
 Hartree-Fock exchange energy:   -510.688570329085     
 cosmo_calcen: 0.5 (esolb+esolc) (Hartrees) =   -0.065787

 Solvation energy (screening term,uncorrected) =    -41.281916 kcal/mol

 Solvation energy (dispersion and cavitation terms) =      0.906029 kcal/mol
 Solvation Energy Contributions (Hartrees)
          esola   esolb+esolc
     0.06578691   -0.13157383
 esol last cycle   -0.06578691

 Energy gradients wrt nuclear displacements
 ==========================================

     Atom      Cartesian (a.u./angstrom)
                 X         Y         Z
 ----------------------------------------
     1 Pa    0.004292 -0.000319 -0.008740
     2 O     0.000354 -0.003548  0.004872
     3 O     0.004578 -0.001143  0.004330
     4 F    -0.001964  0.001169  0.003614
[...]
    30          3838.9268             261.1373

 Zero-point energy (Hartree):     0.0518

 ------------
 Normal Modes
 ------------

 Number of removed rigid normal modes: 6
 
 Mode:     7      Frequency (cm-1):       51.1905     Intensity (km/mol):        7.7273
 Index  Atom      ---- Displacements (x/y/z) ----
     1    Pa       0.025745   0.019861  -0.013811
     2     O       0.009567   0.054536   0.012741
     3     O       0.043256   0.023093  -0.036262
     4     F      -0.191224  -0.199685   0.090584
     5     H       0.155654  -0.049103  -0.191478
     6     O      -0.190940  -0.113776   0.117675
     7     H      -0.431849  -0.355679   0.227056
     8     H      -0.445669  -0.397477   0.225198
     9     H       0.009600   0.076053  -0.002197
    10     O       0.038259   0.032203  -0.018556
 
 Mode:     8      Frequency (cm-1):       81.2954     Intensity (km/mol):        2.4643
 Index  Atom      ---- Displacements (x/y/z) ----
     1    Pa      -0.026746   0.007979  -0.025337
     2     O      -0.005035   0.007895  -0.006532
     3     O      -0.016824   0.191231   0.081082
     4     F       0.119491  -0.106042   0.106008
     5     H      -0.043036   0.308673   0.284936
     6     O       0.228897  -0.171779   0.185896
     7     H       0.354773  -0.414813   0.114803
     8     H       0.356430  -0.052189   0.416140
     9     H       0.001123  -0.065276  -0.002529
    10     O      -0.004811  -0.002557  -0.071637
 
 Mode:     9      Frequency (cm-1):      104.5914     Intensity (km/mol):       77.1608
 Index  Atom      ---- Displacements (x/y/z) ----
     1    Pa       0.001754  -0.023934  -0.014371
     2     O      -0.043699   0.205080   0.245217
     3     O       0.017767   0.018949  -0.004950
     4     F       0.071054   0.123722  -0.110117
     5     H      -0.207461   0.273328   0.489072
     6     O      -0.065934  -0.055028   0.033614
     7     H      -0.257192  -0.254082   0.119885
     8     H      -0.225608  -0.233280   0.104352
     9     H      -0.069679   0.280742   0.387245
    10     O       0.030015   0.025559  -0.004845
 
 Mode:    10      Frequency (cm-1):      112.6611     Intensity (km/mol):        5.5333
 Index  Atom      ---- Displacements (x/y/z) ----
     1    Pa      -0.017105  -0.001557   0.015321
     2     O      -0.098216   0.066791   0.023232
     3     O       0.109144  -0.020165  -0.183848
     4     F       0.129318   0.011001   0.061130
     5     H       0.521962  -0.264260  -0.717372
     6     O      -0.001344  -0.006447   0.023426
     7     H       0.038854   0.026639   0.005310
     8     H       0.003206  -0.002311   0.033775
     9     H      -0.106867   0.168776   0.018382
    10     O       0.055074  -0.026276  -0.115147
 
 Mode:    11      Frequency (cm-1):      115.2917     Intensity (km/mol):       17.6762
 Index  Atom      ---- Displacements (x/y/z) ----
     1    Pa       0.014773   0.046557  -0.017450
     2     O       0.077322   0.063248   0.116191
     3     O      -0.193374  -0.324863   0.010409
     4     F       0.099047  -0.020295   0.061678
     5     H      -0.426554  -0.505128  -0.221418
     6     O       0.048513  -0.008865   0.077875
     7     H      -0.081700  -0.237615   0.133615
     8     H      -0.048734  -0.122824   0.198898
     9     H       0.087521   0.107600   0.009148
    10     O      -0.233911  -0.330137  -0.033252
 
 Mode:    12      Frequency (cm-1):      153.2234     Intensity (km/mol):      116.0169
 Index  Atom      ---- Displacements (x/y/z) ----
     1    Pa       0.013004  -0.012466  -0.022658
     2     O      -0.117790   0.072863  -0.042635
     3     O      -0.047336   0.080843   0.103546
     4     F       0.106662  -0.042376   0.033229
     5     H       0.440637  -0.211975  -0.535468
     6     O       0.009066   0.010265  -0.049530
     7     H      -0.116329  -0.045295   0.009875
     8     H      -0.141922  -0.153952  -0.045497
     9     H      -0.159785   0.449348   0.020821
    10     O      -0.159891   0.064028   0.311107
 
 Mode:    13      Frequency (cm-1):      165.6386     Intensity (km/mol):       65.9837
 Index  Atom      ---- Displacements (x/y/z) ----
     1    Pa       0.029313  -0.007690   0.019144
     2     O      -0.189041   0.097331  -0.084934
     3     O      -0.004631   0.182039   0.160683
     4     F      -0.214965   0.134086  -0.164111
     5     H       0.498024  -0.011805  -0.315302
     6     O       0.054185  -0.033047   0.028646
     7     H       0.123650  -0.097962  -0.007736
     8     H       0.089293  -0.002156   0.118920
     9     H      -0.156699   0.259305  -0.432779
    10     O      -0.063513  -0.303798  -0.145866
 
 Mode:    14      Frequency (cm-1):      185.5715     Intensity (km/mol):      126.2856
 Index  Atom      ---- Displacements (x/y/z) ----
     1    Pa       0.008023   0.003169   0.008955
     2     O      -0.126755   0.047169  -0.134720
     3     O       0.113693  -0.027482  -0.149829
     4     F       0.022357  -0.040052   0.035863
     5     H      -0.311479   0.424931   0.737606
     6     O      -0.011392   0.021381   0.013195
     7     H      -0.033303   0.057671   0.025181
     8     H      -0.003549   0.034047  -0.034253
     9     H      -0.128667   0.156129  -0.185683
    10     O      -0.087930  -0.081656   0.065207
 
 Mode:    15      Frequency (cm-1):      223.7107     Intensity (km/mol):      359.0503
 Index  Atom      ---- Displacements (x/y/z) ----
     1    Pa      -0.006530  -0.002722   0.006689
     2     O       0.006334  -0.048817  -0.047415
     3     O       0.007283   0.006818  -0.005626
     4     F       0.004476   0.017248  -0.002344
     5     H      -0.004372   0.018220   0.017234
     6     O       0.113865   0.123595  -0.049872
     7     H      -0.428146  -0.506971   0.193739
     8     H      -0.427685  -0.483212   0.245357
     9     H      -0.016188  -0.000800   0.088039
    10     O       0.016740  -0.001471  -0.025224
 
 Mode:    16      Frequency (cm-1):      273.7043     Intensity (km/mol):       27.4540
 Index  Atom      ---- Displacements (x/y/z) ----
     1    Pa       0.003497  -0.030631  -0.028376
     2     O       0.014661  -0.005653  -0.022422
     3     O      -0.030196   0.020129   0.005042
     4     F      -0.002106   0.003860  -0.017295
     5     H       0.066418  -0.008907  -0.071830
     6     O      -0.058045   0.365304   0.389729
     7     H       0.036186   0.489978   0.345753
     8     H      -0.004677   0.421535   0.379002
     9     H      -0.008693   0.053698   0.108285
    10     O       0.019946  -0.002183   0.010102
 
 Mode:    17      Frequency (cm-1):      328.4111     Intensity (km/mol):      259.4952
 Index  Atom      ---- Displacements (x/y/z) ----
     1    Pa       0.000572   0.003703   0.002540
     2     O       0.021449  -0.054923  -0.058315
     3     O      -0.008647  -0.001779   0.006463
     4     F      -0.011896  -0.001501  -0.002067
     5     H       0.004862   0.017329   0.033890
     6     O      -0.012342  -0.021369  -0.002663
     7     H       0.061508   0.017906  -0.037084
     8     H       0.068955   0.067093  -0.009110
     9     H      -0.147927   0.610516   0.761714
    10     O       0.006202  -0.018548  -0.026931
 
 Mode:    18      Frequency (cm-1):      356.2181     Intensity (km/mol):      363.7051
 Index  Atom      ---- Displacements (x/y/z) ----
     1    Pa      -0.005383  -0.004322  -0.001711
     2     O       0.003904   0.058734  -0.045354
     3     O       0.139633   0.032010   0.063332
     4     F      -0.004841   0.010958   0.007937
     5     H      -0.801425  -0.387257  -0.344560
     6     O      -0.002102  -0.000763   0.002994
     7     H      -0.019006  -0.016154   0.010773
     8     H       0.024854   0.029512  -0.011623
     9     H      -0.006052  -0.151942   0.181895
    10     O      -0.007428  -0.007435   0.004621
 
 Mode:    19      Frequency (cm-1):      409.2632     Intensity (km/mol):      276.0396
 Index  Atom      ---- Displacements (x/y/z) ----
     1    Pa       0.014613  -0.019539  -0.049541
     2     O      -0.090414  -0.177652   0.125132
     3     O       0.098464  -0.043729   0.056640
     4     F      -0.156609   0.380010   0.495318
     5     H      -0.032735   0.003535   0.172803
     6     O      -0.007162  -0.007622  -0.020852
     7     H      -0.030013  -0.161155  -0.015854
     8     H       0.103689   0.107604   0.030157
     9     H      -0.085675   0.510429  -0.401055
    10     O      -0.023128   0.030856  -0.020173
 
 Mode:    20      Frequency (cm-1):      423.1208     Intensity (km/mol):      208.2881
 Index  Atom      ---- Displacements (x/y/z) ----
     1    Pa       0.003025   0.007346   0.002821
     2     O      -0.055209  -0.145108   0.107090
     3     O      -0.015397   0.058404  -0.043567
     4     F       0.021249  -0.052623  -0.068036
     5     H      -0.486439  -0.097351  -0.153391
     6     O      -0.006343   0.012682   0.002419
     7     H      -0.060153  -0.122604   0.023830
     8     H       0.080424   0.105753   0.021051
     9     H      -0.047128   0.616878  -0.509168
    10     O       0.040355  -0.001254   0.013038
 
 Mode:    21      Frequency (cm-1):      451.0944     Intensity (km/mol):       42.1587
 Index  Atom      ---- Displacements (x/y/z) ----
     1    Pa       0.000513   0.001515  -0.001592
     2     O      -0.016821  -0.022150   0.011314
     3     O      -0.022152   0.023558  -0.007949
     4     F      -0.002892   0.006581   0.009037
     5     H      -0.106664  -0.000620  -0.021727
     6     O       0.070040  -0.042197   0.046083
     7     H      -0.148402   0.648612   0.178138
     8     H      -0.308535  -0.406810  -0.489928
     9     H      -0.022525   0.025298   0.022934
    10     O       0.001892  -0.005707  -0.017615
 
 Mode:    22      Frequency (cm-1):      495.6906     Intensity (km/mol):      198.3683
 Index  Atom      ---- Displacements (x/y/z) ----
     1    Pa       0.021958   0.003079  -0.000434
     2     O      -0.155072  -0.075071   0.042015
     3     O      -0.122095   0.076076  -0.098815
     4     F      -0.008618   0.015270   0.019869
     5     H      -0.263087   0.014228  -0.155675
     6     O      -0.018360   0.002201  -0.012878
     7     H       0.111474  -0.076450  -0.078951
     8     H       0.012570   0.021937   0.142120
     9     H      -0.160131  -0.691803   0.540498
    10     O       0.007439  -0.019685   0.024125
 
 Mode:    23      Frequency (cm-1):      548.9162     Intensity (km/mol):      314.0850
 Index  Atom      ---- Displacements (x/y/z) ----
     1    Pa       0.011415  -0.034809   0.022839
     2     O       0.206600   0.188622  -0.125076
     3     O      -0.266363   0.166184  -0.214443
     4     F      -0.030573   0.073657   0.092844
     5     H      -0.542571   0.055472  -0.312694
     6     O      -0.001866  -0.014554  -0.024277
     7     H      -0.031205  -0.105176  -0.014595
     8     H       0.060158   0.049410  -0.001897
     9     H       0.211107   0.424500  -0.315709
    10     O      -0.047872   0.048330  -0.035736
 
 Mode:    24      Frequency (cm-1):      699.7350     Intensity (km/mol):        9.2164
 Index  Atom      ---- Displacements (x/y/z) ----
     1    Pa       0.000041  -0.000568   0.000517
     2     O       0.001202   0.001723  -0.000286
     3     O       0.002622  -0.008919   0.007532
     4     F       0.002938  -0.000398   0.001404
     5     H      -0.083604  -0.014050   0.020447
     6     O      -0.022242   0.010024  -0.017917
     7     H       0.593862   0.231631  -0.305357
     8     H      -0.340568  -0.380539   0.461668
     9     H       0.003125   0.104747  -0.081939
    10     O       0.003446   0.009513  -0.004432
 
 Mode:    25      Frequency (cm-1):      779.2697     Intensity (km/mol):      495.0473
 Index  Atom      ---- Displacements (x/y/z) ----
     1    Pa       0.048532  -0.020524   0.028845
     2     O      -0.097157  -0.102939   0.068203
     3     O       0.070400  -0.028737   0.045111
     4     F       0.023936  -0.061515  -0.081968
     5     H      -0.010880  -0.069551   0.014813
     6     O      -0.006962   0.028336   0.027233
     7     H      -0.029387  -0.039831   0.037483
     8     H       0.032732   0.076554   0.010359
     9     H      -0.105157  -0.045283   0.043677
    10     O      -0.688631   0.477777  -0.466529
 
 Mode:    26      Frequency (cm-1):     1589.4342     Intensity (km/mol):      133.2174
 Index  Atom      ---- Displacements (x/y/z) ----
     1    Pa      -0.000054  -0.000071  -0.000092
     2     O       0.000238   0.000203  -0.000140
     3     O      -0.000225  -0.000084  -0.000740
     4     F      -0.000101   0.000208   0.000328
     5     H      -0.000059  -0.000030  -0.000604
     6     O      -0.016409   0.041127   0.058151
     7     H       0.435269  -0.504309  -0.222995
     8     H      -0.175620  -0.122126  -0.674820
     9     H       0.000187   0.000092   0.001500
    10     O       0.000926  -0.001006   0.000178
 
 Mode:    27      Frequency (cm-1):     3757.0444     Intensity (km/mol):      156.5882
 Index  Atom      ---- Displacements (x/y/z) ----
     1    Pa      -0.000002   0.000030   0.000030
     2     O       0.000700  -0.000074   0.000116
     3     O      -0.000065   0.000945  -0.000553
     4     F       0.000022  -0.000068  -0.000072
     5     H       0.002995  -0.016344   0.009864
     6     O      -0.012465   0.026971   0.039176
     7     H      -0.328111   0.045529  -0.617931
     8     H       0.527440  -0.476684  -0.007998
     9     H      -0.012298  -0.000934  -0.001530
    10     O      -0.000138   0.000060  -0.000166
 
 Mode:    28      Frequency (cm-1):     3789.9752     Intensity (km/mol):      266.1237
 Index  Atom      ---- Displacements (x/y/z) ----
     1    Pa      -0.000037   0.000013  -0.000033
     2     O      -0.003637  -0.000178  -0.000602
     3     O      -0.009869   0.052797  -0.031632
     4     F      -0.000016   0.000098   0.000191
     5     H       0.156731  -0.843205   0.505966
     6     O      -0.000508  -0.000138  -0.001339
     7     H       0.011949  -0.000638   0.019699
     8     H      -0.003651   0.001362   0.000707
     9     H       0.062360   0.005864   0.008216
    10     O       0.000235  -0.000077   0.000139
 
 Mode:    29      Frequency (cm-1):     3813.1492     Intensity (km/mol):      173.9734
 Index  Atom      ---- Displacements (x/y/z) ----
     1    Pa       0.000032  -0.000002  -0.000000
     2     O       0.061652   0.006021   0.007834
     3     O      -0.000844   0.003402  -0.002132
     4     F      -0.000051   0.000094   0.000168
     5     H       0.009649  -0.052709   0.031621
     6     O      -0.000802   0.000122  -0.001301
     7     H       0.011047  -0.000795   0.019819
     8     H       0.001771  -0.002582  -0.000376
     9     H      -0.983230  -0.092464  -0.128044
    10     O       0.000132  -0.000276   0.000256
 
 Mode:    30      Frequency (cm-1):     3838.9268     Intensity (km/mol):      261.1373
 Index  Atom      ---- Displacements (x/y/z) ----
     1    Pa       0.000007  -0.000002   0.000005
     2     O       0.001070   0.000135   0.000136
     3     O      -0.000142   0.000736  -0.000451
     4     F       0.000012   0.000009   0.000021
     5     H       0.001956  -0.013058   0.007659
     6     O       0.051747  -0.031378   0.037413
     7     H      -0.307854   0.025514  -0.639160
     8     H      -0.515223   0.472369   0.043014
     9     H      -0.017515  -0.001196  -0.002451
    10     O       0.000052   0.000055   0.000045

PES point character: Geometry corresponds to a local minimum on the PES.




 ============================
 Statistical Thermal Analysis  ***  ideal gas assumed  ***
 ============================
  
 Pressure:                  1.000000 atm.
 Temperature:             298.150000 K



 Moments of Inertia [amu*bohr^2] and principal axis
 ==================================================

         777.2896       1039.7243       1238.7711
 ------------------------------------------------
          -0.1691         -0.7006         -0.6932
           0.6412          0.4559         -0.6172
           0.7485         -0.5489          0.3722


 The rotational contribution to the molecular entropy includes
 a term, dependent on the symmetry number sigma. The results 
 reported below were computed using sigma = 1, determined from
 the point group symmetry of the input geometry (NOSYM). 
 If this is not the correct symmetry, try symmetrizing the molecule before
 running the calculation (note: linear molecules should be aligned along one
 of the Cartesian axes).
 Contributions from frequencies below 20 1/cm are not included in vibrational sums.
 Their contributions, if any, are reported separately.


     Temp                                                        Transl      Rotat     Vibrat     Total
     ----                                                        ------      -----     ------     -----

     298.15   Entropy (cal/mol-K):                               43.167     28.395     36.051    107.613
              Nuclear Internal Energy (kcal/mol):                 0.889      0.889     38.023     39.801
              Constant Volume Heat Capacity (cal/mol-K):          2.981      2.981     30.312     36.273
          (c) Constant Volume Heat Capacity (cal/mol-K):          2.981      2.981     27.213     33.175

       Summary of energy terms
                                                   hartree              eV         kcal/mol           kJ/mol
                                      --------------------     -----------       ----------      -----------
      Energy from Engine:               -2.785986567578319        -75.8106         -1748.23         -7314.61
      Nuclear Internal Energy:           0.063426220561750          1.7259            39.80           166.53
  (c) Nuclear Internal Energy:           0.061815455643672          1.6821            38.79           162.30
      Internal Energy U:                -2.722560347016569        -74.0846         -1708.43         -7148.08
      pV/n = RT:                         0.000944186013486          0.0257             0.59             2.48
      Enthalpy H:                       -2.721616161003083        -74.0589         -1707.84         -7145.60
      -T*S:                             -0.051130342180368         -1.3913           -32.08          -134.24
  (c) -T*S:                             -0.050009039523208         -1.3608           -31.38          -131.30
      Gibbs free energy:                -2.772746503183451        -75.4503         -1739.92         -7279.84
 
 
 
  (c) The properties marked with this symbol have been corrected using 'low vibrational frequency free rotor
      interpolation corrections'. For those terms all positive frequencies are used (also ones below 20 1/cm),
      but the contribution to the partition function of small vibrational frequencies is modified as described
      in the following paper:
      S. Grimme, 'Supramolecular Binding Thermodynamics by Dispersion-Corrected Density Functional Theory'
      (Chem. Eur. J. 2012, 18, 9955-9964)
      Configuration: Dampener Frequency          :   100.000 1/cm
                     Dampener Alpha              :     4.000
                     Averaging Moment of Inertia : 1.000E-44 kg m2

--------------
Atomic charges
--------------
  Index   Atom    Charge
      1     Pa    2.6743
      2      O   -0.7600
      3      O   -0.6887
      4      F   -0.7626
      5      H    0.1436
      6      O   -0.4016
      7      H    0.2417
      8      H    0.2449
      9      H    0.1525
     10      O   -0.8441


Dipole moment vector    (Debye):    -1.72451112   -6.06004323   -7.84443369
              magnitude (Debye):    10.06147119


Final PES point is a local minimum. Geometry optimization successful!


AMS application finished. Exiting.
NORMAL TERMINATION
     Total cpu time:   71829.90
  Total system time:    1262.86
 Total elapsed time:   73097.19
