

 Parallel Execution: Process Information
 ==============================================================================
 Rank   Node Name                              NodeID   MyNodeRank  NodeMaster
    0   u-5-4.local                               0          0          0
    1   u-5-4.local                               0          1         -1
    2   u-5-4.local                               0          2         -1
    3   u-5-4.local                               0          3         -1
    4   u-5-4.local                               1          0          1
    5   u-5-4.local                               1          1         -1
    6   u-5-4.local                               1          2         -1
    7   u-5-4.local                               1          3         -1
 ==============================================================================


May use up to 31144MB of RAM as shared memory on node 0
May use up to 31250MB of RAM as shared memory on node 1

 *******************************************************************************
 *                                                                             *
 *  --------------------------------                                           *
 *   Amsterdam Modeling Suite (AMS)              2022.103                      *
 *  --------------------------------                                           *
 *                                               r104886 2022-06-17            *
 *                                                                             *
 *                                                                             *
 *                              =================                              *
 *                              |               |                              *
 *                              |     A M S     |                              *
 *                              |               |                              *
 *                              =================                              *
 *                                                                             *
 *                                                                             *
 *   Online information and documentation:  https://www.scm.com/support/       *
 *   E-mail:  support@scm.com   info@scm.com                                   *
 *                                                                             *
 *   Scientific publications using AMS results must be properly referenced     *
 *   See the User Manuals (or the web site) for recommended citations          *
 *   The terms and conditions of the End User License Agreement apply to       *
 *   the use of AMS, https://www.scm.com/license-terms/                        *
 *                                                                             *
 **********************  x86_64_linux_intel / intelmpi  ************************
 
 Licensed to: Dr. Val?rie Vallet / Laboratoire PhLAM UMR 8523 / Villeneuve d'Ascq Cedex / FRANCE 2023-02-21 11:49:39
 SCM User ID: u10325
  
 AMS 2022.103  RunTime: Feb23-2023 17:52:22  ShM Nodes: 2  Procs: 8

 AMS jobname: ams
 AMS jobid  : 387208318

 Start   directory: /home/shaaban/ams/PhD/nitrate/pao_oh2_no3_h2o/gp/
 Results directory: /home/shaaban/ams/PhD/nitrate/pao_oh2_no3_h2o/gp/pao_oh2_no3_h2o.SR.b3lyp.tz2p.opt-freq.results/
 Scratch directory: /state/partition1/shaaban/929451.phlam-s-sakura/amstmp_ams_kid0.387208318/


 Communication costs MPI_COMM_WORLD:      1.684 usec per message,   0.0063 usec per 8-byte item
 Communication costs for intra-node:      0.831 usec per message,   0.0034 usec per 8-byte item

 RNG seed: 661070797 -488980761 569561485 -1497704208 -51120282 -1640074287 1214737123 -1416013141



                      ************************************************************************
                      *  ADF 2022.103  RunTime: Feb23-2023 17:52:22  ShM Nodes: 2  Procs: 8  *
                      ************************************************************************
  
       ***************************
       *  GEOMETRY OPTIMIZATION  *
       ***************************

Optimization Method                    Quasi Newton
Optimization Coordinates               Delocalized Coordinates
Optimize lattice                       F
 
 ------------------------------------------------------
 Convergence criteria (Hartree,Angstrom)
 ------------------------------------------------------
 Maximum gradient               0.000100000000
 Maximum rms gradient           0.000066666667
 Maximum step allowed           0.001000000000
 Maximum rms step allowed       0.000666666667
 Maximum energy change allowe   0.000013000000
 Maximum stress energy allowe   0.000500000000
 
Initial model Hessian                  Automatic Hessian
 
------------------------------------
Quasi-Newton Optimizer Parameters
------------------------------------
Hessian Update Method                  BFGS
Maximum number of steps                  250
First GDIIS cycle                          0
Maximum GDIIS vectors                      0
Trust radius (bohr)                        0.200000
Trust radius varies                        T
Constraints converged at all steps         T
Use projector                              T
 
 Rigid motions settings for: old optimizer
 Atomic rotations (x,y,z):     T T T
 Atomic translations (x,y,z):  T T T
 Tolerance:                   1.000000000000000E-006
 
--------
Geometry
--------
Formula: H4NO7Pa
Atoms
  Index Symbol   x (angstrom)   y (angstrom)   z (angstrom)
      1     Pa     0.41625635     0.11062101     0.00453388
      2      O     1.10953981     1.38674047    -1.55214785
      3      H     1.04259017     2.25028412    -1.97581368
      4      O    -0.89543235     1.12286003     0.84749514
      5      H    -0.91296272    -2.38177016     0.68613582
      6      O    -0.14911669    -1.59415248    -1.23782329
      7      H    -0.05769586    -1.90715355    -2.14576573
      8      O    -0.71453397    -1.79860163     1.44273294
      9      H    -1.56727131    -1.49636857     1.79395880
     10      O     1.68813934    -1.79368415    -0.00142205
     11      O     2.68442599    -0.20479210    -0.00005425
     12      N     3.04724439    -1.74437463     0.00000690
     13      O     4.21490087    -2.44163953    -0.00000199
 
Total System Charge             0.00000
Bonding info available!
 
 
----------------
ADF Engine Input
----------------
 
 Basis
 Type TZ2P
 Core None
 End
 XC
 Hybrid B3LYP
 End
 NumericalQuality Good
 

 Title: *** (NO TITLE) ***

 Using automatic Hessian for delocalized coordinates.
 *** GO1_GOStep1 ***



 ======================
 RI Hartree-Fock Scheme
 ======================
  
 Fit Set Quality     : GOOD
 Threshold Quality   : GOOD
 Integration Quality : GOOD
 Response Quality    : DEFAULT
 Is Range Separated  :  F
 
 RIHartreeFock Dependency: number of modified vectors:           4
  
 Hartree-Fock exchange energy:   -531.398902430111     

 Energy gradients wrt nuclear displacements
 ==========================================

     Atom      Cartesian (a.u./angstrom)
                 X         Y         Z
 ----------------------------------------
     1 Pa    0.003368 -0.029377  0.016864
     2 O     0.015206 -0.008128 -0.000983
     3 H     0.000664  0.008353 -0.002033
     4 O    -0.006730  0.005226  0.002436
     5 H    -0.004960 -0.002910 -0.006273
     6 O     0.046854 -0.021162  0.029789
     7 H     0.000255 -0.002331 -0.007337
     8 O     0.014311 -0.000717  0.001697
     9 H    -0.007798  0.003603  0.002340
    10 O    -0.111275  0.396084 -0.017270
    11 O    -0.261368 -0.065009 -0.002801
    12 N     0.036169 -0.149618 -0.020563
    13 O     0.275306 -0.134014  0.004133
 ----------------------------------------
 Mulliken charges used for AMS results%charges...
 
----------------------------------------------------------------------
Geometry Convergence after Step   1       (Hartree/Angstrom,Angstrom)
----------------------------------------------------------------------
current energy                               -3.47993881 Hartree
energy change                      -3.47993881     0.00001300    F
constrained gradient max            0.39604204     0.00010000    F
constrained gradient rms            0.09681538     0.00006667    F
gradient max                        0.39604204
gradient rms                        0.09681538
cart. step max                      0.06370630     0.00100000    F
cart. step rms                      0.01710316     0.00066667    F
 
 
--------
Geometry
--------
Formula: H4NO7Pa
Atoms
  Index Symbol   x (angstrom)   y (angstrom)   z (angstrom)
      1     Pa     0.42603888     0.10472031     0.00257910
      2      O     1.11541386     1.37839709    -1.55581510
      3      H     1.04785334     2.23977939    -1.97995222
      4      O    -0.88498289     1.11539888     0.84477373
      5      H    -0.90243081    -2.38711805     0.68673124
      6      O    -0.16744218    -1.58506480    -1.24951595
      7      H    -0.08542909    -1.89189719    -2.15881869
      8      O    -0.70398144    -1.80466975     1.44187452
      9      H    -1.55488143    -1.50373243     1.79377560
     10      O     1.71093586    -1.82578890     0.00592821
     11      O     2.71231669    -0.20065025     0.00504290
     12      N     3.04147865    -1.72868409     0.01053265
     13      O     4.15119457    -2.40272138     0.01469864
 
Total System Charge             0.00000
Bonding info available!
 
 *** GO1_GOStep2 ***



 ======================
 RI Hartree-Fock Scheme
 ======================
  
 Fit Set Quality     : GOOD
 Threshold Quality   : GOOD
 Integration Quality : GOOD
 Response Quality    : DEFAULT
 Is Range Separated  :  F
 
 RIHartreeFock Dependency: number of modified vectors:           4
  
 Hartree-Fock exchange energy:   -531.469378232012     

 Energy gradients wrt nuclear displacements
 ==========================================

     Atom      Cartesian (a.u./angstrom)
                 X         Y         Z
 ----------------------------------------
     1 Pa    0.002139 -0.019247  0.022967
     2 O     0.014580 -0.005397 -0.002555
     3 H     0.000819  0.005314 -0.000519
     4 O    -0.005893  0.003693  0.000696
     5 H    -0.004145 -0.001509 -0.003870
     6 O     0.041705 -0.023775  0.021513
     7 H     0.000110 -0.001701 -0.005030
     8 O     0.010539 -0.001143  0.000698
     9 H    -0.005091  0.002530  0.001370
    10 O    -0.107958  0.351371 -0.016804
    11 O    -0.235974 -0.037920 -0.005125
    12 N     0.049299 -0.156055 -0.018606
    13 O     0.239870 -0.116160  0.005265
 ----------------------------------------
 Mulliken charges used for AMS results%charges...

 dE(predicted):    -0.41737E-01, dE(actual):    -0.47482E-01, Trust radius:    0.400000, all in a.u.
 
----------------------------------------------------------------------
Geometry Convergence after Step   2       (Hartree/Angstrom,Angstrom)
----------------------------------------------------------------------
current energy                               -3.52742063 Hartree
energy change                      -0.04748182     0.00001300    F
constrained gradient max            0.35132601     0.00010000    F
constrained gradient rms            0.08696292     0.00006667    F
gradient max                        0.35132601
gradient rms                        0.08696292
cart. step max                      0.12933681     0.00100000    F
cart. step rms                      0.03346960     0.00066667    F
 
 
--------
Geometry
--------
Formula: H4NO7Pa
Atoms
  Index Symbol   x (angstrom)   y (angstrom)   z (angstrom)
      1     Pa     0.44429623     0.09376673    -0.00167827
      2      O     1.12597302     1.36251356    -1.56266669
      3      H     1.05753290     2.22128338    -1.98874991
      4      O    -0.86564404     1.10189527     0.83958082
      5      H    -0.88295107    -2.39710165     0.68479595
      6      O    -0.19855389    -1.56725639    -1.26568664
      7      H    -0.13339554    -1.86395679    -2.17767285
      8      O    -0.68440271    -1.81610873     1.43907888
      9      H    -1.53312459    -1.51698703     1.79252665
     10      O     1.75924298    -1.88808478     0.01940636
     11      O     2.76827156    -0.20313631     0.01532066
     12      N     3.02698140    -1.69737710     0.02879266
     13      O     4.02185776    -2.32148135     0.03878702
 
Total System Charge             0.00000
Bonding info available!
 
 *** GO1_GOStep3 ***



 ======================
 RI Hartree-Fock Scheme
 ======================
  
 Fit Set Quality     : GOOD
 Threshold Quality   : GOOD
 Integration Quality : GOOD
 Response Quality    : DEFAULT
 Is Range Separated  :  F
 
 RIHartreeFock Dependency: number of modified vectors:           4
  
 Hartree-Fock exchange energy:   -531.645792319479     

 Energy gradients wrt nuclear displacements
 ==========================================

     Atom      Cartesian (a.u./angstrom)
                 X         Y         Z
 ----------------------------------------
     1 Pa   -0.006331 -0.000706  0.030074
     2 O     0.013935 -0.003942 -0.003413
     3 H     0.000770  0.003044  0.000763
     4 O    -0.004406  0.001126 -0.001942
     5 H    -0.003159 -0.000407 -0.001498
     6 O     0.033890 -0.025738  0.011362
     7 H    -0.000110 -0.000915 -0.002293
     8 O     0.006317 -0.001456 -0.000416
     9 H    -0.002129  0.001440  0.000525
    10 O    -0.055581  0.267979 -0.015959
    11 O    -0.183288 -0.004765 -0.009168
    12 N     0.163667 -0.231905 -0.012916
    13 O     0.036424 -0.003756  0.004881
 ----------------------------------------
 Mulliken charges used for AMS results%charges...

 dE(predicted):    -0.78487E-01, dE(actual):    -0.70991E-01, Trust radius:    0.800000, all in a.u.
 
----------------------------------------------------------------------
Geometry Convergence after Step   3       (Hartree/Angstrom,Angstrom)
----------------------------------------------------------------------
current energy                               -3.59841171 Hartree
energy change                      -0.07099109     0.00001300    F
constrained gradient max            0.26792474     0.00010000    F
constrained gradient rms            0.07055904     0.00006667    F
gradient max                        0.26792474
gradient rms                        0.07055904
cart. step max                      0.19826010     0.00100000    F
cart. step rms                      0.07809926     0.00066667    F
 
 
--------
Geometry
--------
Formula: H4NO7Pa
Atoms
  Index Symbol   x (angstrom)   y (angstrom)   z (angstrom)
      1     Pa     0.48465336     0.05024402    -0.01967255
      2      O     1.12526162     1.30093078    -1.60263650
      3      H     1.04765432     2.15081900    -2.04081960
      4      O    -0.80538650     1.08098067     0.81805282
      5      H    -0.83915961    -2.43353460     0.68416362
      6      O    -0.34144404    -1.46352572    -1.34776701
      7      H    -0.33165564    -1.70703173    -2.27515617
      8      O    -0.64105489    -1.85165363     1.43564632
      9      H    -1.48608671    -1.55449774     1.79367674
     10      O     1.85350344    -2.03277095     0.09902441
     11      O     2.87853816    -0.22012515     0.07396406
     12      N     3.00828746    -1.61563348     0.11876017
     13      O     3.95297303    -2.19623264     0.12459832
 
Total System Charge             0.00000
Bonding info available!
 
 *** GO1_GOStep4 ***



 ======================
 RI Hartree-Fock Scheme
 ======================
  
 Fit Set Quality     : GOOD
 Threshold Quality   : GOOD
 Integration Quality : GOOD
 Response Quality    : DEFAULT
 Is Range Separated  :  F
 
 RIHartreeFock Dependency: number of modified vectors:           4
  
 Hartree-Fock exchange energy:   -531.824645772821     

 Energy gradients wrt nuclear displacements
 ==========================================

     Atom      Cartesian (a.u./angstrom)
                 X         Y         Z
 ----------------------------------------
     1 Pa    0.001797  0.012373  0.035831
     2 O     0.009160  0.000380 -0.007711
     3 H     0.000470  0.000083  0.002674
     4 O    -0.006462  0.000556 -0.005050
     5 H     0.000284  0.001422 -0.001269
     6 O     0.007048 -0.021155 -0.010828
     7 H    -0.000502  0.000538  0.002025
     8 O    -0.000353 -0.003239  0.001489
     9 H     0.002104  0.000823  0.000375
    10 O     0.076707  0.110750 -0.009987
    11 O    -0.070722  0.030214 -0.014838
    12 N     0.234164 -0.267533  0.011634
    13 O    -0.253695  0.134789 -0.004344
 ----------------------------------------
 Mulliken charges used for AMS results%charges...

 dE(predicted):    -0.54036E-01, dE(actual):    -0.59187E-01, Trust radius:    1.000000, all in a.u.
 
----------------------------------------------------------------------
Geometry Convergence after Step   4       (Hartree/Angstrom,Angstrom)
----------------------------------------------------------------------
current energy                               -3.65759920 Hartree
energy change                      -0.05918748     0.00001300    F
constrained gradient max            0.26763334     0.00010000    F
constrained gradient rms            0.07775264     0.00006667    F
gradient max                        0.26763334
gradient rms                        0.07775264
cart. step max                      0.19832445     0.00100000    F
cart. step rms                      0.07888672     0.00066667    F
 
 
--------
Geometry
--------
Formula: H4NO7Pa
Atoms
  Index Symbol   x (angstrom)   y (angstrom)   z (angstrom)
      1     Pa     0.51529925    -0.00139269    -0.04501159
      2      O     1.09892447     1.23508568    -1.65152200
      3      H     1.00866421     2.07658728    -2.10175994
      4      O    -0.71435222     1.07568739     0.81766012
      5      H    -0.82688281    -2.47739505     0.68323982
      6      O    -0.48778317    -1.33843245    -1.42105438
      7      H    -0.52998009    -1.52236717    -2.36077241
      8      O    -0.62230780    -1.88627845     1.42380554
      9      H    -1.46326434    -1.58565453     1.78643914
     10      O     1.90481094    -2.16334472     0.16563330
     11      O     2.94800500    -0.25080949     0.11895859
     12      N     3.00510054    -1.55191843     0.17364555
     13      O     4.06985003    -2.10179854     0.27257290
 
Total System Charge             0.00000
Bonding info available!
 
 *** GO1_GOStep5 ***



 ======================
 RI Hartree-Fock Scheme
 ======================
  
 Fit Set Quality     : GOOD
 Threshold Quality   : GOOD
 Integration Quality : GOOD
 Response Quality    : DEFAULT
 Is Range Separated  :  F
 
 RIHartreeFock Dependency: number of modified vectors:           4
  
 Hartree-Fock exchange energy:   -531.749995807531     

 Energy gradients wrt nuclear displacements
 ==========================================

     Atom      Cartesian (a.u./angstrom)
                 X         Y         Z
 ----------------------------------------
     1 Pa    0.025930  0.007972  0.037298
     2 O     0.002789  0.003035 -0.011068
     3 H     0.000157 -0.001269  0.003563
     4 O    -0.008973  0.001887 -0.007309
     5 H     0.002430  0.003511 -0.002012
     6 O    -0.006719 -0.012608 -0.019862
     7 H    -0.000168  0.000744  0.003391
     8 O    -0.003370 -0.005733  0.003994
     9 H     0.004050  0.000626  0.000029
    10 O     0.022001 -0.001508  0.006885
    11 O     0.013205  0.003972 -0.001458
    12 N    -0.052542 -0.007920 -0.020488
    13 O     0.001209  0.007290  0.007037
 ----------------------------------------
 Mulliken charges used for AMS results%charges...
 Rebuilding optimization coordinates

 dE(predicted):    -0.29789E-01, dE(actual):    -0.27682E-01, Trust radius:    1.000000, all in a.u.
 
----------------------------------------------------------------------
Geometry Convergence after Step   5       (Hartree/Angstrom,Angstrom)
----------------------------------------------------------------------
current energy                               -3.68528075 Hartree
energy change                      -0.02768155     0.00001300    F
constrained gradient max            0.05253426     0.00010000    F
constrained gradient rms            0.01358839     0.00006667    F
gradient max                        0.05253426
gradient rms                        0.01358839
cart. step max                      0.10800501     0.00100000    F
cart. step rms                      0.02626274     0.00066667    F
 
 
--------
Geometry
--------
Formula: H4NO7Pa
Atoms
  Index Symbol   x (angstrom)   y (angstrom)   z (angstrom)
      1     Pa     0.51396000    -0.00478280    -0.04930913
      2      O     1.10621947     1.22913005    -1.65013350
      3      H     1.02057662     2.06750350    -2.10984380
      4      O    -0.68901294     1.07722252     0.84104240
      5      H    -0.85517580    -2.48611700     0.67834950
      6      O    -0.48778811    -1.35373459    -1.39858253
      7      H    -0.53096616    -1.55158184    -2.33720052
      8      O    -0.65591714    -1.87836012     1.40742647
      9      H    -1.50373565    -1.57480326     1.75586097
     10      O     1.91756071    -2.15180875     0.17740948
     11      O     2.94348101    -0.23596712     0.16228971
     12      N     3.03050707    -1.53344706     0.21995770
     13      O     4.09637493    -2.09528469     0.16456789
 
Total System Charge             0.00000
Bonding info available!
 
 *** GO1_GOStep6 ***



 ======================
 RI Hartree-Fock Scheme
 ======================
  
 Fit Set Quality     : GOOD
 Threshold Quality   : GOOD
 Integration Quality : GOOD
 Response Quality    : DEFAULT
 Is Range Separated  :  F
 
 RIHartreeFock Dependency: number of modified vectors:           4
  
 Hartree-Fock exchange energy:   -531.738008503413     

 Energy gradients wrt nuclear displacements
 ==========================================

     Atom      Cartesian (a.u./angstrom)
                 X         Y         Z
 ----------------------------------------
     1 Pa    0.020994  0.011277  0.026638
     2 O     0.002733 -0.000501 -0.006032
     3 H    -0.000568  0.000875  0.002261
     4 O    -0.006166 -0.000418 -0.007899
     5 H     0.000927  0.001830 -0.002233
     6 O    -0.003787 -0.009009 -0.009345
     7 H    -0.000186  0.000578  0.000451
     8 O     0.000574 -0.004740  0.002508
     9 H     0.000649  0.000901  0.000393
    10 O     0.003617 -0.006507 -0.013674
    11 O    -0.002146  0.004835 -0.021361
    12 N    -0.028165  0.007906  0.045838
    13 O     0.011524 -0.007028 -0.017545
 ----------------------------------------
 Mulliken charges used for AMS results%charges...

 dE(predicted):    -0.19576E-02, dE(actual):    -0.10595E-02, Trust radius:    1.000000, all in a.u.
 
----------------------------------------------------------------------
Geometry Convergence after Step   6       (Hartree/Angstrom,Angstrom)
----------------------------------------------------------------------
current energy                               -3.68634025 Hartree
energy change                      -0.00105950     0.00001300    F
constrained gradient max            0.04570221     0.00010000    F
constrained gradient rms            0.01222089     0.00006667    F
gradient max                        0.04570221
gradient rms                        0.01222089
cart. step max                      0.21244357     0.00100000    F
cart. step rms                      0.04261905     0.00066667    F
 
 
--------
Geometry
--------
Formula: H4NO7Pa
Atoms
  Index Symbol   x (angstrom)   y (angstrom)   z (angstrom)
      1     Pa     0.51967401    -0.01018195    -0.06893244
      2      O     1.08665230     1.23752062    -1.66634362
      3      H     0.99946946     2.07814880    -2.12178162
      4      O    -0.63672187     1.06657870     0.88711399
      5      H    -0.86074989    -2.49343683     0.66864035
      6      O    -0.51517479    -1.34495511    -1.39884671
      7      H    -0.57949091    -1.53985750    -2.33708563
      8      O    -0.64376879    -1.88435899     1.39127005
      9      H    -1.48384957    -1.57762326     1.75553944
     10      O     1.93203531    -2.15458255     0.11858210
     11      O     2.95301489    -0.24382148     0.13225330
     12      N     3.04992320    -1.54060051     0.12441396
     13      O     4.08507066    -2.08486111     0.37701147
 
Total System Charge             0.00000
Bonding info available!
 
 *** GO1_GOStep7 ***



 ======================
 RI Hartree-Fock Scheme
 ======================
  
 Fit Set Quality     : GOOD
 Threshold Quality   : GOOD
 Integration Quality : GOOD
 Response Quality    : DEFAULT
 Is Range Separated  :  F
 
 RIHartreeFock Dependency: number of modified vectors:           4
  
 Hartree-Fock exchange energy:   -531.751460326357     

 Energy gradients wrt nuclear displacements
 ==========================================

     Atom      Cartesian (a.u./angstrom)
                 X         Y         Z
 ----------------------------------------
     1 Pa    0.017399  0.011140  0.021842
     2 O     0.003450 -0.001388 -0.003919
     3 H    -0.000842  0.000984  0.002006
     4 O    -0.005577 -0.000936 -0.006981
     5 H     0.000441  0.001548 -0.001962
     6 O    -0.001902 -0.007719 -0.005476
     7 H    -0.000122  0.000662  0.000152
     8 O     0.000542 -0.003586  0.002327
     9 H    -0.000086  0.000492 -0.000069
    10 O     0.005663 -0.000508  0.030666
    11 O    -0.004722 -0.002109  0.021587
    12 N     0.004549 -0.008405 -0.091802
    13 O    -0.018793  0.009825  0.031629
 ----------------------------------------
 Mulliken charges used for AMS results%charges...

 dE(predicted):    -0.48634E-02, dE(actual):     0.22836E-02, Trust radius:    0.130043, all in a.u.
 
----------------------------------------------------------------------
Geometry Convergence after Step   7       (Hartree/Angstrom,Angstrom)
----------------------------------------------------------------------
current energy                               -3.68405664 Hartree
energy change                       0.00228362     0.00001300    F
constrained gradient max            0.09191103     0.00010000    F
constrained gradient rms            0.01795492     0.00006667    F
gradient max                        0.09191103
gradient rms                        0.01795492
cart. step max                      0.04623213     0.00100000    F
cart. step rms                      0.01006797     0.00066667    F
 
 
--------
Geometry
--------
Formula: H4NO7Pa
Atoms
  Index Symbol   x (angstrom)   y (angstrom)   z (angstrom)
      1     Pa     0.51637741    -0.01148357    -0.06857647
      2      O     1.08825595     1.23309322    -1.66580478
      3      H     1.00561495     2.07113818    -2.12679003
      4      O    -0.63780131     1.06555286     0.89018169
      5      H    -0.86858156    -2.49670983     0.67221502
      6      O    -0.51416829    -1.34400460    -1.39898327
      7      H    -0.57647041    -1.54000329    -2.33723829
      8      O    -0.65280518    -1.88238331     1.39049407
      9      H    -1.49410752    -1.57511943     1.75139661
     10      O     1.93286166    -2.15212286     0.12765422
     11      O     2.95148387    -0.23899394     0.14629815
     12      N     3.05198190    -1.53543282     0.15020839
     13      O     4.10344253    -2.08556178     0.33077934
 
Total System Charge             0.00000
Bonding info available!
 
 *** GO1_GOStep8 ***



 ======================
 RI Hartree-Fock Scheme
 ======================
  
 Fit Set Quality     : GOOD
 Threshold Quality   : GOOD
 Integration Quality : GOOD
 Response Quality    : DEFAULT
 Is Range Separated  :  F
 
 RIHartreeFock Dependency: number of modified vectors:           4
  
 Hartree-Fock exchange energy:   -531.745271820822     

 Energy gradients wrt nuclear displacements
 ==========================================

     Atom      Cartesian (a.u./angstrom)
                 X         Y         Z
 ----------------------------------------
     1 Pa    0.016355  0.010500  0.019683
     2 O     0.003275 -0.001676 -0.003522
     3 H    -0.000940  0.000975  0.001980
     4 O    -0.005507 -0.000952 -0.006805
     5 H     0.000183  0.001640 -0.001798
     6 O    -0.001319 -0.006509 -0.004102
     7 H    -0.000085  0.000723  0.000030
     8 O     0.000838 -0.003459  0.002224
     9 H    -0.000118  0.000273 -0.000303
    10 O    -0.001671 -0.002681  0.019233
    11 O    -0.006279  0.002348  0.010704
    12 N    -0.003238 -0.002477 -0.059122
    13 O    -0.001492  0.001295  0.021801
 ----------------------------------------
 Mulliken charges used for AMS results%charges...

 dE(predicted):    -0.30172E-02, dE(actual):    -0.30564E-02, Trust radius:    0.260085, all in a.u.
 
----------------------------------------------------------------------
Geometry Convergence after Step   8       (Hartree/Angstrom,Angstrom)
----------------------------------------------------------------------
current energy                               -3.68711300 Hartree
energy change                      -0.00305637     0.00001300    F
constrained gradient max            0.05923222     0.00010000    F
constrained gradient rms            0.01186456     0.00006667    F
gradient max                        0.05923222
gradient rms                        0.01186456
cart. step max                      0.06349192     0.00100000    F
cart. step rms                      0.01976375     0.00066667    F
 
 
--------
Geometry
--------
Formula: H4NO7Pa
Atoms
  Index Symbol   x (angstrom)   y (angstrom)   z (angstrom)
      1     Pa     0.51094252    -0.02101756    -0.07756337
      2      O     1.08621047     1.22051539    -1.67338264
      3      H     1.01717913     2.05135796    -2.14928660
      4      O    -0.60964566     1.05661135     0.92033527
      5      H    -0.89137870    -2.51181472     0.68171678
      6      O    -0.52431622    -1.33625648    -1.40746019
      7      H    -0.58916782    -1.53277647    -2.34563740
      8      O    -0.67208769    -1.88023314     1.38309272
      9      H    -1.51225573    -1.56829738     1.74268784
     10      O     1.94868863    -2.15170665     0.13299136
     11      O     2.95359234    -0.23319867     0.18957488
     12      N     3.06075823    -1.51910662     0.19747856
     13      O     4.12756449    -2.06610819     0.26728742
 
Total System Charge             0.00000
Bonding info available!
 
 *** GO1_GOStep9 ***



 ======================
 RI Hartree-Fock Scheme
 ======================
  
 Fit Set Quality     : GOOD
 Threshold Quality   : GOOD
 Integration Quality : GOOD
 Response Quality    : DEFAULT
 Is Range Separated  :  F
 
 RIHartreeFock Dependency: number of modified vectors:           4
  
 Hartree-Fock exchange energy:   -531.751311446819     

 Energy gradients wrt nuclear displacements
 ==========================================

     Atom      Cartesian (a.u./angstrom)
                 X         Y         Z
 ----------------------------------------
     1 Pa    0.012054  0.009378  0.012452
     2 O     0.002901 -0.002430 -0.002160
     3 H    -0.001355  0.000916  0.001806
     4 O    -0.005105 -0.000910 -0.005641
     5 H    -0.000309  0.001677 -0.001660
     6 O     0.000273 -0.003259 -0.000504
     7 H     0.000073  0.000942 -0.000112
     8 O     0.001272 -0.003010  0.002280
     9 H    -0.000479 -0.000090 -0.000745
    10 O    -0.001526 -0.006541  0.003023
    11 O    -0.001103 -0.007974 -0.004607
    12 N    -0.009140  0.010369 -0.006243
    13 O     0.002446  0.000931  0.002111
 ----------------------------------------
 Mulliken charges used for AMS results%charges...

 dE(predicted):    -0.25831E-02, dE(actual):    -0.29485E-02, Trust radius:    0.520171, all in a.u.
 
----------------------------------------------------------------------
Geometry Convergence after Step   9       (Hartree/Angstrom,Angstrom)
----------------------------------------------------------------------
current energy                               -3.69006151 Hartree
energy change                      -0.00294851     0.00001300    F
constrained gradient max            0.01251101     0.00010000    F
constrained gradient rms            0.00477025     0.00006667    F
gradient max                        0.01251101
gradient rms                        0.00477025
cart. step max                      0.04731693     0.00100000    F
cart. step rms                      0.01744532     0.00066667    F
 
 
--------
Geometry
--------
Formula: H4NO7Pa
Atoms
  Index Symbol   x (angstrom)   y (angstrom)   z (angstrom)
      1     Pa     0.50476285    -0.03137989    -0.09275230
      2      O     1.07746619     1.21399134    -1.68563729
      3      H     1.02226923     2.03822234    -2.17458283
      4      O    -0.56790989     1.04377939     0.95994600
      5      H    -0.91115923    -2.52931980     0.69631900
      6      O    -0.53854401    -1.32936579    -1.42466009
      7      H    -0.60752860    -1.52736269    -2.36242692
      8      O    -0.68522163    -1.87764906     1.37627400
      9      H    -1.52067260    -1.55954417     1.74139581
     10      O     1.96551161    -2.14446881     0.11445172
     11      O     2.94948327    -0.22341276     0.23689182
     12      N     3.07351290    -1.50947199     0.22209339
     13      O     4.14411393    -2.05604927     0.25452235
 
Total System Charge             0.00000
Bonding info available!
 
 *** GO1_GOStep10 ***



 ======================
 RI Hartree-Fock Scheme
 ======================
  
 Fit Set Quality     : GOOD
 Threshold Quality   : GOOD
 Integration Quality : GOOD
 Response Quality    : DEFAULT
 Is Range Separated  :  F
 
 RIHartreeFock Dependency: number of modified vectors:           4
  
 Hartree-Fock exchange energy:   -531.747977610380     

 Energy gradients wrt nuclear displacements
 ==========================================

     Atom      Cartesian (a.u./angstrom)
                 X         Y         Z
 ----------------------------------------
     1 Pa    0.007055  0.007615  0.006380
     2 O     0.002855 -0.002735 -0.001192
     3 H    -0.001712  0.000916  0.001474
     4 O    -0.004423 -0.000647 -0.003993
     5 H    -0.000249  0.001528 -0.001785
     6 O     0.001499 -0.001072  0.001760
     7 H     0.000233  0.001058 -0.000326
     8 O     0.000921 -0.002457  0.002719
     9 H    -0.000771 -0.000154 -0.000889
    10 O     0.000123 -0.002796 -0.002411
    11 O    -0.005419 -0.004570 -0.010075
    12 N    -0.006497  0.007971  0.013611
    13 O     0.006384 -0.004657 -0.005274
 ----------------------------------------
 Mulliken charges used for AMS results%charges...

 dE(predicted):    -0.74833E-03, dE(actual):    -0.12210E-02, Trust radius:    0.520171, all in a.u.
 
----------------------------------------------------------------------
Geometry Convergence after Step  10       (Hartree/Angstrom,Angstrom)
----------------------------------------------------------------------
current energy                               -3.69128250 Hartree
energy change                      -0.00122099     0.00001300    F
constrained gradient max            0.01351078     0.00010000    F
constrained gradient rms            0.00448024     0.00006667    F
gradient max                        0.01351078
gradient rms                        0.00448024
cart. step max                      0.10950335     0.00100000    F
cart. step rms                      0.04060101     0.00066667    F
 
 
--------
Geometry
--------
Formula: H4NO7Pa
Atoms
  Index Symbol   x (angstrom)   y (angstrom)   z (angstrom)
      1     Pa     0.49356211    -0.05748591    -0.12976107
      2      O     1.05797923     1.20042575    -1.71478276
      3      H     1.03477425     2.01088231    -2.22826423
      4      O    -0.45840654     1.01055327     1.04065500
      5      H    -0.95305254    -2.56750942     0.73073708
      6      O    -0.58213983    -1.30895189    -1.46799677
      7      H    -0.66615277    -1.50831369    -2.40448758
      8      O    -0.70563961    -1.87618506     1.36067845
      9      H    -1.52513888    -1.54254629     1.74691970
     10      O     2.00305077    -2.13915047     0.05133409
     11      O     2.93623565    -0.21416250     0.33933668
     12      N     3.09341041    -1.49016525     0.25742538
     13      O     4.17760175    -2.00942202     0.28004067
 
Total System Charge             0.00000
Bonding info available!
 
 *** GO1_GOStep11 ***



 ======================
 RI Hartree-Fock Scheme
 ======================
  
 Fit Set Quality     : GOOD
 Threshold Quality   : GOOD
 Integration Quality : GOOD
 Response Quality    : DEFAULT
 Is Range Separated  :  F
 
 RIHartreeFock Dependency: number of modified vectors:           4
  
 Hartree-Fock exchange energy:   -531.747754381641     

 Energy gradients wrt nuclear displacements
 ==========================================

     Atom      Cartesian (a.u./angstrom)
                 X         Y         Z
 ----------------------------------------
     1 Pa   -0.002698  0.004907 -0.004125
     2 O     0.002613 -0.002781  0.000010
     3 H    -0.002274  0.000658  0.000850
     4 O    -0.002146 -0.000177 -0.000529
     5 H     0.000148  0.001481 -0.001744
     6 O     0.003158  0.002290  0.004607
     7 H     0.000658  0.001079 -0.000524
     8 O    -0.000121 -0.001814  0.003480
     9 H    -0.001063 -0.000205 -0.001405
    10 O    -0.000648  0.000338 -0.005495
    11 O    -0.001841 -0.008155 -0.012466
    12 N    -0.003595  0.002545  0.027779
    13 O     0.007809 -0.000167 -0.010439
 ----------------------------------------
 Mulliken charges used for AMS results%charges...

 dE(predicted):    -0.11170E-02, dE(actual):    -0.17094E-02, Trust radius:    1.000000, all in a.u.
 
----------------------------------------------------------------------
Geometry Convergence after Step  11       (Hartree/Angstrom,Angstrom)
----------------------------------------------------------------------
current energy                               -3.69299191 Hartree
energy change                      -0.00170941     0.00001300    F
constrained gradient max            0.02769223     0.00010000    F
constrained gradient rms            0.00589042     0.00006667    F
gradient max                        0.02769223
gradient rms                        0.00589042
cart. step max                      0.10431130     0.00100000    F
cart. step rms                      0.04260077     0.00066667    F
 
 
--------
Geometry
--------
Formula: H4NO7Pa
Atoms
  Index Symbol   x (angstrom)   y (angstrom)   z (angstrom)
      1     Pa     0.48034320    -0.08065033    -0.17153511
      2      O     1.03895313     1.19675471    -1.74373540
      3      H     1.05196061     1.99300670    -2.27887830
      4      O    -0.35409524     0.96687870     1.10257155
      5      H    -0.98371179    -2.60555850     0.77712777
      6      O    -0.62897026    -1.28739013    -1.51978894
      7      H    -0.73148295    -1.48912792    -2.45402571
      8      O    -0.70833408    -1.87644818     1.34879243
      9      H    -1.50371975    -1.52843508     1.77051587
     10      O     2.04236494    -2.12377034    -0.04199996
     11      O     2.90828862    -0.20454507     0.44214954
     12      N     3.10451794    -1.47025401     0.27852264
     13      O     4.18996964    -1.98249172     0.35211827
 
Total System Charge             0.00000
Bonding info available!
 
 *** GO1_GOStep12 ***



 ======================
 RI Hartree-Fock Scheme
 ======================
  
 Fit Set Quality     : GOOD
 Threshold Quality   : GOOD
 Integration Quality : GOOD
 Response Quality    : DEFAULT
 Is Range Separated  :  F
 
 RIHartreeFock Dependency: number of modified vectors:           4
  
 Hartree-Fock exchange energy:   -531.741668174492     

 Energy gradients wrt nuclear displacements
 ==========================================

     Atom      Cartesian (a.u./angstrom)
                 X         Y         Z
 ----------------------------------------
     1 Pa   -0.009834  0.003862 -0.009930
     2 O     0.002266 -0.002279  0.000234
     3 H    -0.002497  0.000430  0.000208
     4 O     0.000762 -0.000415  0.002372
     5 H     0.000454  0.001374 -0.001647
     6 O     0.003375  0.003538  0.004768
     7 H     0.001040  0.000885 -0.000681
     8 O    -0.000858 -0.001146  0.004422
     9 H    -0.001383 -0.000244 -0.001920
    10 O     0.001256  0.000073 -0.002710
    11 O    -0.004307  0.000448 -0.007621
    12 N     0.001190 -0.001607  0.020470
    13 O     0.008535 -0.004919 -0.007965
 ----------------------------------------
 Mulliken charges used for AMS results%charges...

 dE(predicted):    -0.88780E-03, dE(actual):    -0.12835E-02, Trust radius:    1.000000, all in a.u.
 
----------------------------------------------------------------------
Geometry Convergence after Step  12       (Hartree/Angstrom,Angstrom)
----------------------------------------------------------------------
current energy                               -3.69427545 Hartree
energy change                      -0.00128354     0.00001300    F
constrained gradient max            0.02041584     0.00010000    F
constrained gradient rms            0.00502201     0.00006667    F
gradient max                        0.02041584
gradient rms                        0.00502201
cart. step max                      0.08353872     0.00100000    F
cart. step rms                      0.03000893     0.00066667    F
 
 
--------
Geometry
--------
Formula: H4NO7Pa
Atoms
  Index Symbol   x (angstrom)   y (angstrom)   z (angstrom)
      1     Pa     0.47102247    -0.09282108    -0.20123766
      2      O     1.03707630     1.20347568    -1.75671893
      3      H     1.08001373     1.99185941    -2.30143457
      4      O    -0.31340921     0.93946177     1.11543688
      5      H    -0.99232846    -2.63081333     0.81592394
      6      O    -0.66243632    -1.27517084    -1.55647211
      7      H    -0.78152307    -1.48071270    -2.48773622
      8      O    -0.69173973    -1.87985118     1.34447696
      9      H    -1.46132930    -1.52404572     1.80531828
     10      O     2.06290416    -2.11171365    -0.12553868
     11      O     2.88342489    -0.20459841     0.49970084
     12      N     3.09917540    -1.45923680     0.28067766
     13      O     4.17523314    -1.96786432     0.42943826
 
Total System Charge             0.00000
Bonding info available!
 
 *** GO1_GOStep13 ***



 ======================
 RI Hartree-Fock Scheme
 ======================
  
 Fit Set Quality     : GOOD
 Threshold Quality   : GOOD
 Integration Quality : GOOD
 Response Quality    : DEFAULT
 Is Range Separated  :  F
 
 RIHartreeFock Dependency: number of modified vectors:           4
  
 Hartree-Fock exchange energy:   -531.739998070092     

 Energy gradients wrt nuclear displacements
 ==========================================

     Atom      Cartesian (a.u./angstrom)
                 X         Y         Z
 ----------------------------------------
     1 Pa   -0.011451  0.004232 -0.008620
     2 O     0.002159 -0.000991 -0.000211
     3 H    -0.002302  0.000225 -0.000142
     4 O     0.002651 -0.001082  0.002836
     5 H     0.000430  0.000925 -0.001717
     6 O     0.001826  0.002137  0.002533
     7 H     0.001214  0.000771 -0.000561
     8 O    -0.001157 -0.000409  0.004861
     9 H    -0.001398 -0.000292 -0.001926
    10 O    -0.000800 -0.004408  0.000773
    11 O     0.000720  0.002738 -0.000620
    12 N     0.006078 -0.004131  0.004213
    13 O     0.002031  0.000284 -0.001420
 ----------------------------------------
 Mulliken charges used for AMS results%charges...
 Rebuilding optimization coordinates

 dE(predicted):    -0.53798E-03, dE(actual):    -0.78895E-03, Trust radius:    1.000000, all in a.u.
 
----------------------------------------------------------------------
Geometry Convergence after Step  13       (Hartree/Angstrom,Angstrom)
----------------------------------------------------------------------
current energy                               -3.69506440 Hartree
energy change                      -0.00078895     0.00001300    F
constrained gradient max            0.01148097     0.00010000    F
constrained gradient rms            0.00323888     0.00006667    F
gradient max                        0.01148097
gradient rms                        0.00323888
cart. step max                      0.08348841     0.00100000    F
cart. step rms                      0.02939187     0.00066667    F
 
 
--------
Geometry
--------
Formula: H4NO7Pa
Atoms
  Index Symbol   x (angstrom)   y (angstrom)   z (angstrom)
      1     Pa     0.46198245    -0.09632794    -0.22616482
      2      O     1.04804864     1.21997058    -1.75878834
      3      H     1.12193265     2.00304281    -2.30735316
      4      O    -0.33014044     0.92284250     1.09537277
      5      H    -0.98343186    -2.65122001     0.85820641
      6      O    -0.68465593    -1.27053809    -1.58735817
      7      H    -0.81949797    -1.48472299    -2.51422024
      8      O    -0.65833505    -1.88315041     1.34559960
      9      H    -1.39662564    -1.52322060     1.85194015
     10      O     2.07200243    -2.09249255    -0.20902709
     11      O     2.85580598    -0.20521961     0.54047141
     12      N     3.08294408    -1.45278602     0.27669929
     13      O     4.13605466    -1.97820884     0.49645683
 
Total System Charge             0.00000
Bonding info available!
 
 *** GO1_GOStep14 ***



 ======================
 RI Hartree-Fock Scheme
 ======================
  
 Fit Set Quality     : GOOD
 Threshold Quality   : GOOD
 Integration Quality : GOOD
 Response Quality    : DEFAULT
 Is Range Separated  :  F
 
 RIHartreeFock Dependency: number of modified vectors:           4
  
 Hartree-Fock exchange energy:   -531.736044465387     

 Energy gradients wrt nuclear displacements
 ==========================================

     Atom      Cartesian (a.u./angstrom)
                 X         Y         Z
 ----------------------------------------
     1 Pa   -0.008775  0.004555 -0.003670
     2 O     0.002045  0.000883 -0.000815
     3 H    -0.001865 -0.000008 -0.000287
     4 O     0.003286 -0.001704  0.002054
     5 H     0.000175  0.000489 -0.001730
     6 O    -0.000789 -0.000744 -0.000769
     7 H     0.001201  0.000800 -0.000451
     8 O    -0.001425  0.000293  0.004641
     9 H    -0.001259 -0.000407 -0.001407
    10 O    -0.000966 -0.009057  0.003364
    11 O     0.001767  0.008470  0.005394
    12 N     0.011556 -0.003792 -0.009105
    13 O    -0.004951  0.000222  0.002780
 ----------------------------------------
 Mulliken charges used for AMS results%charges...

 dE(predicted):    -0.40580E-03, dE(actual):    -0.53488E-03, Trust radius:    1.000000, all in a.u.
 
----------------------------------------------------------------------
Geometry Convergence after Step  14       (Hartree/Angstrom,Angstrom)
----------------------------------------------------------------------
current energy                               -3.69559928 Hartree
energy change                      -0.00053488     0.00001300    F
constrained gradient max            0.01158852     0.00010000    F
constrained gradient rms            0.00403270     0.00006667    F
gradient max                        0.01158852
gradient rms                        0.00403270
cart. step max                      0.02513945     0.00100000    F
cart. step rms                      0.01066973     0.00066667    F
 
 
--------
Geometry
--------
Formula: H4NO7Pa
Atoms
  Index Symbol   x (angstrom)   y (angstrom)   z (angstrom)
      1     Pa     0.45832252    -0.09583125    -0.23296863
      2      O     1.05701797     1.22600888    -1.75550030
      3      H     1.14302471     2.00768744    -2.30416805
      4      O    -0.35321472     0.92099834     1.07894488
      5      H    -0.97646735    -2.65780174     0.87456034
      6      O    -0.68903359    -1.26955682    -1.59546902
      7      H    -0.82921785    -1.48874577    -2.52025942
      8      O    -0.64437650    -1.88392141     1.34731750
      9      H    -1.37148619    -1.52253800     1.86848915
     10      O     2.06989356    -2.08582403    -0.23391406
     11      O     2.84467938    -0.20905264     0.55243063
     12      N     3.07317820    -1.45342069     0.27740319
     13      O     4.12376386    -1.98003348     0.50496843
 
Total System Charge             0.00000
Bonding info available!
 
 *** GO1_GOStep15 ***



 ======================
 RI Hartree-Fock Scheme
 ======================
  
 Fit Set Quality     : GOOD
 Threshold Quality   : GOOD
 Integration Quality : GOOD
 Response Quality    : DEFAULT
 Is Range Separated  :  F
 
 RIHartreeFock Dependency: number of modified vectors:           5
  
 Hartree-Fock exchange energy:   -531.735277411518     

 Energy gradients wrt nuclear displacements
 ==========================================

     Atom      Cartesian (a.u./angstrom)
                 X         Y         Z
 ----------------------------------------
     1 Pa   -0.006983  0.004075 -0.002663
     2 O     0.001803  0.001214 -0.000596
     3 H    -0.001669 -0.000041 -0.000298
     4 O     0.003016 -0.001605  0.001748
     5 H     0.000149  0.000603 -0.001549
     6 O    -0.001395 -0.001463 -0.001269
     7 H     0.001186  0.000872 -0.000442
     8 O    -0.001683  0.000228  0.004122
     9 H    -0.001042 -0.000418 -0.001136
    10 O    -0.001610 -0.008730  0.002169
    11 O     0.003089  0.007985  0.004685
    12 N     0.010082 -0.004512 -0.007234
    13 O    -0.004943  0.001792  0.002464
 ----------------------------------------
 Mulliken charges used for AMS results%charges...

 dE(predicted):    -0.16396E-03, dE(actual):    -0.27948E-03, Trust radius:    1.000000, all in a.u.
 
----------------------------------------------------------------------
Geometry Convergence after Step  15       (Hartree/Angstrom,Angstrom)
----------------------------------------------------------------------
current energy                               -3.69587877 Hartree
energy change                      -0.00027948     0.00001300    F
constrained gradient max            0.01011367     0.00010000    F
constrained gradient rms            0.00363419     0.00006667    F
gradient max                        0.01011367
gradient rms                        0.00363419
cart. step max                      0.21183637     0.00100000    F
cart. step rms                      0.09294021     0.00066667    F
 
 
--------
Geometry
--------
Formula: H4NO7Pa
Atoms
  Index Symbol   x (angstrom)   y (angstrom)   z (angstrom)
      1     Pa     0.42735646    -0.09875043    -0.29631259
      2      O     1.11964473     1.28106287    -1.72048244
      3      H     1.30159616     2.04827496    -2.26517292
      4      O    -0.54924524     0.88571520     0.92913461
      5      H    -0.89297593    -2.70448190     1.04160421
      6      O    -0.71634107    -1.26153455    -1.67815353
      7      H    -0.90123119    -1.52508640    -2.58243648
      8      O    -0.52819204    -1.87432914     1.36895989
      9      H    -1.15964982    -1.49157953     1.98955496
     10      O     2.06996482    -2.01037052    -0.44264755
     11      O     2.72987006    -0.25576323     0.67671282
     12      N     2.99170807    -1.46231101     0.28246854
     13      O     4.01357899    -2.02287750     0.55860513
 
Total System Charge             0.00000
Bonding info available!
 
 *** GO1_GOStep16 ***



 ======================
 RI Hartree-Fock Scheme
 ======================
  
 Fit Set Quality     : GOOD
 Threshold Quality   : GOOD
 Integration Quality : GOOD
 Response Quality    : DEFAULT
 Is Range Separated  :  F
 
 RIHartreeFock Dependency: number of modified vectors:           4
  
 Hartree-Fock exchange energy:   -531.734642108453     

 Energy gradients wrt nuclear displacements
 ==========================================

     Atom      Cartesian (a.u./angstrom)
                 X         Y         Z
 ----------------------------------------
     1 Pa    0.009635 -0.001649  0.002108
     2 O    -0.001256  0.002599  0.001709
     3 H    -0.000168 -0.000314 -0.000300
     4 O    -0.000298 -0.001105  0.000370
     5 H    -0.000352  0.001556 -0.000373
     6 O    -0.005800 -0.005301 -0.004422
     7 H     0.001213  0.001361 -0.000473
     8 O    -0.003207  0.001369  0.000901
     9 H     0.000701 -0.000905  0.000665
    10 O    -0.004163 -0.006300 -0.005987
    11 O     0.003546  0.013771  0.001611
    12 N     0.000180 -0.005721  0.004874
    13 O    -0.000031  0.000638 -0.000683
 ----------------------------------------
 Mulliken charges used for AMS results%charges...
 Rebuilding optimization coordinates

 dE(predicted):    -0.16710E-02, dE(actual):    -0.15382E-02, Trust radius:    1.000000, all in a.u.
 
----------------------------------------------------------------------
Geometry Convergence after Step  16       (Hartree/Angstrom,Angstrom)
----------------------------------------------------------------------
current energy                               -3.69741698 Hartree
energy change                      -0.00153821     0.00001300    F
constrained gradient max            0.01378778     0.00010000    F
constrained gradient rms            0.00382339     0.00006667    F
gradient max                        0.01378778
gradient rms                        0.00382339
cart. step max                      0.07195023     0.00100000    F
cart. step rms                      0.03249116     0.00066667    F
 
 
--------
Geometry
--------
Formula: H4NO7Pa
Atoms
  Index Symbol   x (angstrom)   y (angstrom)   z (angstrom)
      1     Pa     0.41609646    -0.10396432    -0.32115922
      2      O     1.13611891     1.29903422    -1.70716743
      3      H     1.35107633     2.05878411    -2.24992113
      4      O    -0.60204130     0.86863402     0.88119018
      5      H    -0.85364937    -2.72027513     1.11104958
      6      O    -0.72410499    -1.25598501    -1.71024975
      7      H    -0.92923866    -1.53946955    -2.60386019
      8      O    -0.49338410    -1.86620222     1.37555898
      9      H    -1.09669389    -1.46890796     2.01488095
     10      O     2.07992406    -1.97637023    -0.51459778
     11      O     2.67650761    -0.28823177     0.73586745
     12      N     2.96483970    -1.46613600     0.28314317
     13      O     3.98063324    -2.03294132     0.56709984
 
Total System Charge             0.00000
Bonding info available!
 
 *** GO1_GOStep17 ***



 ======================
 RI Hartree-Fock Scheme
 ======================
  
 Fit Set Quality     : GOOD
 Threshold Quality   : GOOD
 Integration Quality : GOOD
 Response Quality    : DEFAULT
 Is Range Separated  :  F
 
 RIHartreeFock Dependency: number of modified vectors:           4
  
 Hartree-Fock exchange energy:   -531.737484496635     

 Energy gradients wrt nuclear displacements
 ==========================================

     Atom      Cartesian (a.u./angstrom)
                 X         Y         Z
 ----------------------------------------
     1 Pa    0.013663 -0.004846  0.001109
     2 O    -0.002602  0.002720  0.002527
     3 H     0.000262 -0.000550 -0.000251
     4 O    -0.001007 -0.001031  0.000134
     5 H    -0.000788  0.001138 -0.000165
     6 O    -0.005931 -0.004671 -0.003535
     7 H     0.001297  0.001377 -0.000564
     8 O    -0.002900  0.002711  0.000065
     9 H     0.000967 -0.000963  0.001087
    10 O    -0.005157 -0.004417 -0.007890
    11 O     0.003911  0.012430  0.001765
    12 N    -0.001687 -0.006269  0.006505
    13 O    -0.000026  0.002370 -0.000787
 ----------------------------------------
 Mulliken charges used for AMS results%charges...

 dE(predicted):    -0.20654E-03, dE(actual):    -0.32215E-03, Trust radius:    1.000000, all in a.u.
 
----------------------------------------------------------------------
Geometry Convergence after Step  17       (Hartree/Angstrom,Angstrom)
----------------------------------------------------------------------
current energy                               -3.69773913 Hartree
energy change                      -0.00032215     0.00001300    F
constrained gradient max            0.01364700     0.00010000    F
constrained gradient rms            0.00423793     0.00006667    F
gradient max                        0.01364700
gradient rms                        0.00423793
cart. step max                      0.02302440     0.00100000    F
cart. step rms                      0.00796216     0.00066667    F
 
 
--------
Geometry
--------
Formula: H4NO7Pa
Atoms
  Index Symbol   x (angstrom)   y (angstrom)   z (angstrom)
      1     Pa     0.41739699    -0.09965168    -0.31487844
      2      O     1.13693401     1.29931690    -1.70582383
      3      H     1.34695604     2.06131426    -2.24753994
      4      O    -0.60093516     0.88041510     0.88115753
      5      H    -0.84766405    -2.72278500     1.10501380
      6      O    -0.71659919    -1.25751201    -1.69948529
      7      H    -0.92275386    -1.54740340    -2.59086896
      8      O    -0.49967932    -1.86515199     1.37530755
      9      H    -1.11971829    -1.46843915     1.99897751
     10      O     2.07279280    -1.98228075    -0.49850415
     11      O     2.68099256    -0.29193683     0.73146044
     12      N     2.96806203    -1.46738097     0.27898941
     13      O     3.99029945    -2.03053566     0.54802902
 
Total System Charge             0.00000
Bonding info available!
 
 *** GO1_GOStep18 ***



 ======================
 RI Hartree-Fock Scheme
 ======================
  
 Fit Set Quality     : GOOD
 Threshold Quality   : GOOD
 Integration Quality : GOOD
 Response Quality    : DEFAULT
 Is Range Separated  :  F
 
 RIHartreeFock Dependency: number of modified vectors:           4
  
 Hartree-Fock exchange energy:   -531.742821301239     

 Energy gradients wrt nuclear displacements
 ==========================================

     Atom      Cartesian (a.u./angstrom)
                 X         Y         Z
 ----------------------------------------
     1 Pa    0.012285 -0.005059  0.000234
     2 O    -0.002634  0.002659  0.002591
     3 H     0.000267 -0.000380 -0.000317
     4 O    -0.000692 -0.000534 -0.000217
     5 H    -0.000640  0.000513 -0.000393
     6 O    -0.004840 -0.003956 -0.002167
     7 H     0.001217  0.001346 -0.000618
     8 O    -0.002869  0.002035  0.000060
     9 H     0.000893 -0.000331  0.000997
    10 O    -0.002431 -0.001573 -0.003485
    11 O     0.002789  0.007483 -0.000539
    12 N    -0.002443 -0.004047  0.005013
    13 O    -0.000902  0.001845 -0.001159
 ----------------------------------------
 Mulliken charges used for AMS results%charges...

 dE(predicted):    -0.11215E-03, dE(actual):    -0.16892E-03, Trust radius:    1.000000, all in a.u.
 
----------------------------------------------------------------------
Geometry Convergence after Step  18       (Hartree/Angstrom,Angstrom)
----------------------------------------------------------------------
current energy                               -3.69790805 Hartree
energy change                      -0.00016892     0.00001300    F
constrained gradient max            0.01226901     0.00010000    F
constrained gradient rms            0.00319642     0.00006667    F
gradient max                        0.01226901
gradient rms                        0.00319642
cart. step max                      0.07635897     0.00100000    F
cart. step rms                      0.03177880     0.00066667    F
 
 
--------
Geometry
--------
Formula: H4NO7Pa
Atoms
  Index Symbol   x (angstrom)   y (angstrom)   z (angstrom)
      1     Pa     0.40563195    -0.09489613    -0.32924308
      2      O     1.15325385     1.31562321    -1.69622051
      3      H     1.38808707     2.07099799    -2.23699081
      4      O    -0.63196971     0.88343222     0.85248111
      5      H    -0.77443245    -2.74505963     1.17903023
      6      O    -0.70661211    -1.24810196    -1.71494499
      7      H    -0.94423705    -1.58043302    -2.58337228
      8      O    -0.48070884    -1.84975751     1.38255602
      9      H    -1.12797767    -1.44037485     1.96965828
     10      O     2.07524973    -1.95051876    -0.54786319
     11      O     2.61625247    -0.35159475     0.80781941
     12      N     2.95020838    -1.47205718     0.26881515
     13      O     3.98333840    -2.02929080     0.51010929
 
Total System Charge             0.00000
Bonding info available!
 
 *** GO1_GOStep19 ***



 ======================
 RI Hartree-Fock Scheme
 ======================
  
 Fit Set Quality     : GOOD
 Threshold Quality   : GOOD
 Integration Quality : GOOD
 Response Quality    : DEFAULT
 Is Range Separated  :  F
 
 RIHartreeFock Dependency: number of modified vectors:           4
  
 Hartree-Fock exchange energy:   -531.753419835474     

 Energy gradients wrt nuclear displacements
 ==========================================

     Atom      Cartesian (a.u./angstrom)
                 X         Y         Z
 ----------------------------------------
     1 Pa    0.009032 -0.008970 -0.004584
     2 O    -0.003680  0.002814  0.002544
     3 H     0.000596 -0.000307 -0.000423
     4 O     0.000592 -0.000136 -0.000455
     5 H    -0.000333  0.000040 -0.000109
     6 O    -0.000902 -0.000263  0.002809
     7 H     0.001065  0.001118 -0.000871
     8 O    -0.002220  0.001582 -0.000259
     9 H     0.000422  0.000426  0.000414
    10 O    -0.000895  0.004517  0.004921
    11 O    -0.002148 -0.001473 -0.002595
    12 N    -0.000039  0.000694 -0.001351
    13 O    -0.001489 -0.000041 -0.000043
 ----------------------------------------
 Mulliken charges used for AMS results%charges...

 dE(predicted):    -0.43126E-03, dE(actual):    -0.51816E-03, Trust radius:    1.000000, all in a.u.
 
----------------------------------------------------------------------
Geometry Convergence after Step  19       (Hartree/Angstrom,Angstrom)
----------------------------------------------------------------------
current energy                               -3.69842621 Hartree
energy change                      -0.00051816     0.00001300    F
constrained gradient max            0.00901962     0.00010000    F
constrained gradient rms            0.00275300     0.00006667    F
gradient max                        0.00901962
gradient rms                        0.00275300
cart. step max                      0.06926284     0.00100000    F
cart. step rms                      0.02958113     0.00066667    F
 
 
--------
Geometry
--------
Formula: H4NO7Pa
Atoms
  Index Symbol   x (angstrom)   y (angstrom)   z (angstrom)
      1     Pa     0.39671279    -0.09267923    -0.34377256
      2      O     1.17015096     1.33127482    -1.68386731
      3      H     1.42709797     2.08200577    -2.22081343
      4      O    -0.67800077     0.87679148     0.81345988
      5      H    -0.71210543    -2.75327531     1.24829307
      6      O    -0.70045681    -1.24177087    -1.73591048
      7      H    -0.96573548    -1.60553341    -2.58327778
      8      O    -0.45529943    -1.83559829     1.39259827
      9      H    -1.11380397    -1.41729520     1.96080283
     10      O     2.08347151    -1.91855042    -0.60756260
     11      O     2.55887880    -0.40531171     0.86666149
     12      N     2.92883724    -1.47872531     0.26237579
     13      O     3.96633663    -2.03336350     0.49284747
 
Total System Charge             0.00000
Bonding info available!
 
 *** GO1_GOStep20 ***



 ======================
 RI Hartree-Fock Scheme
 ======================
  
 Fit Set Quality     : GOOD
 Threshold Quality   : GOOD
 Integration Quality : GOOD
 Response Quality    : DEFAULT
 Is Range Separated  :  F
 
 RIHartreeFock Dependency: number of modified vectors:           4
  
 Hartree-Fock exchange energy:   -531.754523841427     

 Energy gradients wrt nuclear displacements
 ==========================================

     Atom      Cartesian (a.u./angstrom)
                 X         Y         Z
 ----------------------------------------
     1 Pa    0.010023 -0.011143 -0.005571
     2 O    -0.004427  0.003095  0.001988
     3 H     0.000890 -0.000463 -0.000285
     4 O     0.000068  0.000387 -0.000247
     5 H    -0.000248 -0.000125  0.000238
     6 O     0.000448  0.001115  0.004188
     7 H     0.000869  0.000925 -0.000878
     8 O    -0.001551  0.001946 -0.000536
     9 H     0.000295  0.000625  0.000182
    10 O    -0.002361  0.003798  0.004347
    11 O    -0.003067 -0.003249 -0.002315
    12 N    -0.000400  0.003818 -0.001138
    13 O    -0.000539 -0.000730  0.000027
 ----------------------------------------
 Mulliken charges used for AMS results%charges...

 dE(predicted):    -0.14412E-03, dE(actual):    -0.13592E-03, Trust radius:    1.000000, all in a.u.
 
----------------------------------------------------------------------
Geometry Convergence after Step  20       (Hartree/Angstrom,Angstrom)
----------------------------------------------------------------------
current energy                               -3.69856212 Hartree
energy change                      -0.00013592     0.00001300    F
constrained gradient max            0.01113826     0.00010000    F
constrained gradient rms            0.00320062     0.00006667    F
gradient max                        0.01113826
gradient rms                        0.00320062
cart. step max                      0.01955924     0.00100000    F
cart. step rms                      0.00689738     0.00066667    F
 
 
--------
Geometry
--------
Formula: H4NO7Pa
Atoms
  Index Symbol   x (angstrom)   y (angstrom)   z (angstrom)
      1     Pa     0.39703742    -0.08720841    -0.34078906
      2      O     1.17452837     1.33333554    -1.68355325
      3      H     1.42899335     2.08592266    -2.21909738
      4      O    -0.68337602     0.88049465     0.81277786
      5      H    -0.69566745    -2.75299192     1.25666592
      6      O    -0.69408706    -1.24116954    -1.73361744
      7      H    -0.96782544    -1.61714700    -2.57283237
      8      O    -0.45661970    -1.82986429     1.39644198
      9      H    -1.13336322    -1.41632997     1.94642909
     10      O     2.08560330    -1.91427209    -0.61840968
     11      O     2.55497315    -0.41637337     0.87515946
     12      N     2.92819125    -1.48169343     0.25847493
     13      O     3.96769608    -2.03473401     0.48418457
 
Total System Charge             0.00000
Bonding info available!
 
 *** GO1_GOStep21 ***



 ======================
 RI Hartree-Fock Scheme
 ======================
  
 Fit Set Quality     : GOOD
 Threshold Quality   : GOOD
 Integration Quality : GOOD
 Response Quality    : DEFAULT
 Is Range Separated  :  F
 
 RIHartreeFock Dependency: number of modified vectors:           4
  
 Hartree-Fock exchange energy:   -531.752585521268     

 Energy gradients wrt nuclear displacements
 ==========================================

     Atom      Cartesian (a.u./angstrom)
                 X         Y         Z
 ----------------------------------------
     1 Pa    0.009274 -0.009862 -0.004572
     2 O    -0.004106  0.003275  0.001164
     3 H     0.000873 -0.000437 -0.000219
     4 O    -0.000107  0.000480  0.000213
     5 H    -0.000077 -0.000103  0.000305
     6 O     0.000514  0.000588  0.003352
     7 H     0.000622  0.000798 -0.000799
     8 O    -0.001524  0.001822 -0.000322
     9 H     0.000088  0.000652 -0.000030
    10 O    -0.002478  0.002635  0.003075
    11 O    -0.002133 -0.003439 -0.001733
    12 N    -0.000699  0.003899 -0.000654
    13 O    -0.000248 -0.000309  0.000221
 ----------------------------------------
 Mulliken charges used for AMS results%charges...

 dE(predicted):    -0.54247E-04, dE(actual):    -0.62137E-04, Trust radius:    1.000000, all in a.u.
 
----------------------------------------------------------------------
Geometry Convergence after Step  21       (Hartree/Angstrom,Angstrom)
----------------------------------------------------------------------
current energy                               -3.69862426 Hartree
energy change                      -0.00006214     0.00001300    F
constrained gradient max            0.00985625     0.00010000    F
constrained gradient rms            0.00282974     0.00006667    F
gradient max                        0.00985625
gradient rms                        0.00282974
cart. step max                      0.05346082     0.00100000    F
cart. step rms                      0.01690988     0.00066667    F
 
 
--------
Geometry
--------
Formula: H4NO7Pa
Atoms
  Index Symbol   x (angstrom)   y (angstrom)   z (angstrom)
      1     Pa     0.40059422    -0.07007961    -0.32723454
      2      O     1.18571077     1.33786726    -1.68094661
      3      H     1.42403402     2.10056846    -2.20970535
      4      O    -0.70055794     0.89671382     0.80659657
      5      H    -0.66391181    -2.74723732     1.26058152
      6      O    -0.67504092    -1.24446003    -1.71980134
      7      H    -0.96555693    -1.64989278    -2.53903737
      8      O    -0.46467798    -1.81574700     1.40737810
      9      H    -1.18682404    -1.42274788     1.91268922
     10      O     2.08788353    -1.90974813    -0.63680315
     11      O     2.56485347    -0.42715065     0.87479959
     12      N     2.93071932    -1.49092424     0.24637198
     13      O     3.96885830    -2.04919309     0.46694602
 
Total System Charge             0.00000
Bonding info available!
 
 *** GO1_GOStep22 ***



 ======================
 RI Hartree-Fock Scheme
 ======================
  
 Fit Set Quality     : GOOD
 Threshold Quality   : GOOD
 Integration Quality : GOOD
 Response Quality    : DEFAULT
 Is Range Separated  :  F
 
 RIHartreeFock Dependency: number of modified vectors:           4
  
 Hartree-Fock exchange energy:   -531.746140692044     

 Energy gradients wrt nuclear displacements
 ==========================================

     Atom      Cartesian (a.u./angstrom)
                 X         Y         Z
 ----------------------------------------
     1 Pa    0.007914 -0.004539  0.000198
     2 O    -0.003142  0.003401 -0.000649
     3 H     0.000765 -0.000287  0.000005
     4 O    -0.000683  0.000455  0.000663
     5 H     0.000347 -0.000030  0.000395
     6 O    -0.000228 -0.002162 -0.000288
     7 H    -0.000029  0.000579 -0.000344
     8 O    -0.002030  0.001317  0.000212
     9 H    -0.000160  0.000648 -0.000498
    10 O    -0.001688  0.000009 -0.000213
    11 O    -0.000198 -0.001347 -0.000098
    12 N    -0.001573  0.001951  0.000431
    13 O     0.000706  0.000005  0.000186
 ----------------------------------------
 Mulliken charges used for AMS results%charges...

 dE(predicted):    -0.13404E-03, dE(actual):    -0.51671E-04, Trust radius:    1.000000, all in a.u.
 
----------------------------------------------------------------------
Geometry Convergence after Step  22       (Hartree/Angstrom,Angstrom)
----------------------------------------------------------------------
current energy                               -3.69867593 Hartree
energy change                      -0.00005167     0.00001300    F
constrained gradient max            0.00790820     0.00010000    F
constrained gradient rms            0.00183034     0.00006667    F
gradient max                        0.00790820
gradient rms                        0.00183034
cart. step max                      0.00684632     0.00100000    F
cart. step rms                      0.00302690     0.00066667    F
 
 
--------
Geometry
--------
Formula: H4NO7Pa
Atoms
  Index Symbol   x (angstrom)   y (angstrom)   z (angstrom)
      1     Pa     0.40025599    -0.06815706    -0.32659292
      2      O     1.18853610     1.33734864    -1.68008580
      3      H     1.42238678     2.10349403    -2.20592911
      4      O    -0.70259818     0.89984404     0.80351176
      5      H    -0.65919003    -2.74562310     1.25890949
      6      O    -0.67408480    -1.24406279    -1.71950989
      7      H    -0.96864427    -1.65492408    -2.53449825
      8      O    -0.46532266    -1.81364858     1.41001888
      9      H    -1.19367036    -1.42700687     1.91120898
     10      O     2.09090271    -1.90871709    -0.64113441
     11      O     2.56900338    -0.42417676     0.87002784
     12      N     2.93193691    -1.49200532     0.24486305
     13      O     3.96657244    -2.05439624     0.47104502
 
Total System Charge             0.00000
Bonding info available!
 
 *** GO1_GOStep23 ***



 ======================
 RI Hartree-Fock Scheme
 ======================
  
 Fit Set Quality     : GOOD
 Threshold Quality   : GOOD
 Integration Quality : GOOD
 Response Quality    : DEFAULT
 Is Range Separated  :  F
 
 RIHartreeFock Dependency: number of modified vectors:           4
  
 Hartree-Fock exchange energy:   -531.745086397727     

 Energy gradients wrt nuclear displacements
 ==========================================

     Atom      Cartesian (a.u./angstrom)
                 X         Y         Z
 ----------------------------------------
     1 Pa    0.006783 -0.003216  0.000845
     2 O    -0.002998  0.003034 -0.000517
     3 H     0.000712 -0.000238  0.000036
     4 O    -0.000332  0.000044  0.000312
     5 H     0.000252  0.000067  0.000416
     6 O    -0.000274 -0.002387 -0.000806
     7 H    -0.000108  0.000536 -0.000219
     8 O    -0.002007  0.001524  0.000381
     9 H    -0.000218  0.000363 -0.000542
    10 O    -0.001459 -0.000576 -0.001151
    11 O     0.000187 -0.000096  0.000506
    12 N    -0.001176  0.000873  0.000507
    13 O     0.000639  0.000071  0.000233
 ----------------------------------------
 Mulliken charges used for AMS results%charges...

 dE(predicted):    -0.19386E-04, dE(actual):    -0.16197E-04, Trust radius:    1.000000, all in a.u.
 
----------------------------------------------------------------------
Geometry Convergence after Step  23       (Hartree/Angstrom,Angstrom)
----------------------------------------------------------------------
current energy                               -3.69869213 Hartree
energy change                      -0.00001620     0.00001300    F
constrained gradient max            0.00677732     0.00010000    F
constrained gradient rms            0.00157783     0.00006667    F
gradient max                        0.00677732
gradient rms                        0.00157783
cart. step max                      0.01536117     0.00100000    F
cart. step rms                      0.00668233     0.00066667    F
 
 
--------
Geometry
--------
Formula: H4NO7Pa
Atoms
  Index Symbol   x (angstrom)   y (angstrom)   z (angstrom)
      1     Pa     0.39731373    -0.06725126    -0.32978297
      2      O     1.19676577     1.33601242    -1.67593689
      3      H     1.42320359     2.10989948    -2.19379427
      4      O    -0.71088201     0.90666511     0.78815059
      5      H    -0.64751412    -2.74353197     1.25864240
      6      O    -0.67554296    -1.24106886    -1.72391178
      7      H    -0.98070705    -1.66331783    -2.52902272
      8      O    -0.46213114    -1.81063732     1.41565609
      9      H    -1.19747698    -1.43571968     1.91548272
     10      O     2.09778426    -1.90649618    -0.64963195
     11      O     2.57257518    -0.41921682     0.86042369
     12      N     2.93260096    -1.49373447     0.24310234
     13      O     3.96009480    -2.06363380     0.48245740
 
Total System Charge             0.00000
Bonding info available!
 
 *** GO1_GOStep24 ***



 ======================
 RI Hartree-Fock Scheme
 ======================
  
 Fit Set Quality     : GOOD
 Threshold Quality   : GOOD
 Integration Quality : GOOD
 Response Quality    : DEFAULT
 Is Range Separated  :  F
 
 RIHartreeFock Dependency: number of modified vectors:           4
  
 Hartree-Fock exchange energy:   -531.745317852918     

 Energy gradients wrt nuclear displacements
 ==========================================

     Atom      Cartesian (a.u./angstrom)
                 X         Y         Z
 ----------------------------------------
     1 Pa    0.004256 -0.001830  0.000598
     2 O    -0.002959  0.002026  0.000381
     3 H     0.000609 -0.000142  0.000082
     4 O     0.000340 -0.000481 -0.000587
     5 H    -0.000009  0.000091  0.000346
     6 O     0.000152 -0.001759 -0.000728
     7 H    -0.000205  0.000407 -0.000053
     8 O    -0.001692  0.002002  0.000710
     9 H    -0.000352 -0.000114 -0.000476
    10 O    -0.000258 -0.000588 -0.001484
    11 O     0.000529  0.001217  0.000543
    12 N    -0.000693 -0.000969  0.000471
    13 O     0.000282  0.000140  0.000197
 ----------------------------------------
 Mulliken charges used for AMS results%charges...

 dE(predicted):    -0.39536E-04, dE(actual):    -0.39228E-04, Trust radius:    1.000000, all in a.u.
 
----------------------------------------------------------------------
Geometry Convergence after Step  24       (Hartree/Angstrom,Angstrom)
----------------------------------------------------------------------
current energy                               -3.69873136 Hartree
energy change                      -0.00003923     0.00001300    F
constrained gradient max            0.00424986     0.00010000    F
constrained gradient rms            0.00117598     0.00006667    F
gradient max                        0.00424986
gradient rms                        0.00117598
cart. step max                      0.01112156     0.00100000    F
cart. step rms                      0.00390382     0.00066667    F
 
 
--------
Geometry
--------
Formula: H4NO7Pa
Atoms
  Index Symbol   x (angstrom)   y (angstrom)   z (angstrom)
      1     Pa     0.39460397    -0.06915741    -0.33437091
      2      O     1.20203928     1.33383481    -1.67434110
      3      H     1.42528933     2.11162205    -2.18781307
      4      O    -0.71309465     0.90963710     0.77949019
      5      H    -0.64265633    -2.74376298     1.25861370
      6      O    -0.67963919    -1.23715151    -1.72970366
      7      H    -0.99182861    -1.66465882    -2.52935996
      8      O    -0.45916337    -1.81071599     1.41745321
      9      H    -1.19387982    -1.44025494     1.92155837
     10      O     2.10242057    -1.90610077    -0.65169924
     11      O     2.57071992    -0.41771186     0.85801482
     12      N     2.93300318    -1.49319113     0.24410751
     13      O     3.95826973    -2.06441972     0.48988477
 
Total System Charge             0.00000
Bonding info available!
 
 *** GO1_GOStep25 ***



 ======================
 RI Hartree-Fock Scheme
 ======================
  
 Fit Set Quality     : GOOD
 Threshold Quality   : GOOD
 Integration Quality : GOOD
 Response Quality    : DEFAULT
 Is Range Separated  :  F
 
 RIHartreeFock Dependency: number of modified vectors:           4
  
 Hartree-Fock exchange energy:   -531.746282625938     

 Energy gradients wrt nuclear displacements
 ==========================================

     Atom      Cartesian (a.u./angstrom)
                 X         Y         Z
 ----------------------------------------
     1 Pa    0.002747 -0.002182 -0.000822
     2 O    -0.002958  0.001530  0.000994
     3 H     0.000536 -0.000097  0.000078
     4 O     0.000516 -0.000402 -0.000744
     5 H    -0.000113  0.000064  0.000212
     6 O     0.000689 -0.000725 -0.000004
     7 H    -0.000211  0.000282 -0.000043
     8 O    -0.001465  0.002198  0.000950
     9 H    -0.000437 -0.000262 -0.000371
    10 O     0.000601 -0.000226 -0.000752
    11 O     0.000454  0.000980  0.000155
    12 N    -0.000281 -0.001231  0.000143
    13 O    -0.000079  0.000071  0.000204
 ----------------------------------------
 Mulliken charges used for AMS results%charges...

 dE(predicted):    -0.16658E-04, dE(actual):    -0.34495E-04, Trust radius:    1.000000, all in a.u.
 
----------------------------------------------------------------------
Geometry Convergence after Step  25       (Hartree/Angstrom,Angstrom)
----------------------------------------------------------------------
[...]
     5     H      -0.358197   0.114436  -0.163220
     6     O       0.035139  -0.000707  -0.019773
     7     H      -0.330456   0.023496   0.110003
     8     O       0.056327   0.076789  -0.129547
     9     H       0.489033   0.268359   0.317365
    10     O      -0.033791  -0.005036   0.008432
    11     O      -0.020161   0.021272  -0.018219
    12     N      -0.028605   0.009719  -0.007592
    13     O      -0.024682   0.018993  -0.009995
 
 Mode:    21      Frequency (cm-1):      265.6904     Intensity (km/mol):      151.0080
 Index  Atom      ---- Displacements (x/y/z) ----
     1    Pa      -0.005713  -0.008158   0.000852
     2     O      -0.026528   0.042515   0.051355
     3     H       0.146307  -0.352124  -0.327438
     4     O       0.056995   0.040954   0.018693
     5     H       0.125778   0.114451  -0.267189
     6     O       0.026100  -0.012297  -0.037593
     7     H      -0.130363   0.017549   0.006445
     8     O       0.055935   0.054432   0.036187
     9     H      -0.501433  -0.021576  -0.597724
    10     O       0.005145   0.007110  -0.013481
    11     O      -0.007743  -0.003720   0.002613
    12     N      -0.000659   0.003770   0.000649
    13     O      -0.004142   0.000776   0.004082
 
 Mode:    22      Frequency (cm-1):      305.4746     Intensity (km/mol):      213.6881
 Index  Atom      ---- Displacements (x/y/z) ----
     1    Pa       0.009756  -0.009152  -0.003038
     2     O      -0.025507   0.063835   0.044585
     3     H       0.094897  -0.268910  -0.287153
     4     O       0.008490   0.009328  -0.029578
     5     H       0.046127  -0.032677   0.093470
     6     O      -0.132289   0.039041   0.027701
     7     H       0.818862  -0.306340  -0.147377
     8     O      -0.010072  -0.004960  -0.015442
     9     H       0.054917  -0.003662   0.061127
    10     O      -0.025077   0.026980   0.011790
    11     O       0.005846   0.014293   0.022373
    12     N      -0.011007   0.020257   0.012501
    13     O      -0.016610   0.004475  -0.010849
 
 Mode:    23      Frequency (cm-1):      326.5732     Intensity (km/mol):      127.0356
 Index  Atom      ---- Displacements (x/y/z) ----
     1    Pa      -0.008354  -0.000205  -0.000431
     2     O       0.076007  -0.034468   0.016657
     3     H      -0.724097   0.170452  -0.145621
     4     O       0.014343   0.008747   0.017549
     5     H      -0.108102   0.031841  -0.096916
     6     O      -0.000588   0.052035  -0.040429
     7     H       0.053307  -0.538613   0.276707
     8     O       0.025411   0.001082  -0.000323
     9     H      -0.048150   0.070245  -0.111845
    10     O       0.010213   0.004545   0.005677
    11     O       0.019959  -0.001391   0.002586
    12     N       0.016497  -0.000631   0.006161
    13     O       0.012996  -0.010272   0.004008
 
 Mode:    24      Frequency (cm-1):      370.0777     Intensity (km/mol):      125.4484
 Index  Atom      ---- Displacements (x/y/z) ----
     1    Pa       0.002830  -0.004987   0.005073
     2     O      -0.079462  -0.016491  -0.045193
     3     H       0.554052   0.055871   0.361407
     4     O      -0.008800   0.016120  -0.018277
     5     H      -0.090232  -0.002338   0.014688
     6     O       0.017624   0.086382  -0.041692
     7     H      -0.082910  -0.593319   0.387691
     8     O       0.017968  -0.003654  -0.014412
     9     H      -0.014146   0.113724  -0.094467
    10     O      -0.005640   0.006509   0.002696
    11     O       0.003108   0.005985   0.005734
    12     N      -0.004041   0.003959   0.001240
    13     O      -0.005247   0.000559  -0.005395
 
 Mode:    25      Frequency (cm-1):      450.7376     Intensity (km/mol):       20.5603
 Index  Atom      ---- Displacements (x/y/z) ----
     1    Pa       0.003514  -0.001666   0.000122
     2     O      -0.004690   0.001651  -0.007253
     3     H       0.043044   0.000352   0.015269
     4     O      -0.001512  -0.041684   0.003944
     5     H       0.151620   0.212022  -0.636356
     6     O      -0.015422   0.010684  -0.031140
     7     H      -0.018714  -0.122583   0.046564
     8     O      -0.042491   0.072561   0.052590
     9     H       0.051466  -0.575445   0.400597
    10     O       0.002703   0.004538  -0.011136
    11     O      -0.001754  -0.000457  -0.000241
    12     N       0.001034   0.005109  -0.000625
    13     O      -0.002832   0.002900   0.002987
 
 Mode:    26      Frequency (cm-1):      565.6377     Intensity (km/mol):      211.2846
 Index  Atom      ---- Displacements (x/y/z) ----
     1    Pa       0.034536   0.043644   0.006022
     2     O      -0.191724  -0.275477   0.259217
     3     H      -0.180512  -0.217709   0.334140
     4     O      -0.018206  -0.011524   0.000359
     5     H       0.035263  -0.060457   0.196109
     6     O      -0.256740  -0.282328  -0.348698
     7     H      -0.343818  -0.312690  -0.297724
     8     O      -0.001560  -0.010979  -0.015804
     9     H       0.034416   0.084554  -0.009426
    10     O       0.003852   0.004620   0.014967
    11     O      -0.009683   0.003144   0.002220
    12     N      -0.001116  -0.017270  -0.002520
    13     O       0.004834  -0.010850  -0.011091
 
 Mode:    27      Frequency (cm-1):      610.4935     Intensity (km/mol):      200.0967
 Index  Atom      ---- Displacements (x/y/z) ----
     1    Pa      -0.005870  -0.002803   0.049852
     2     O       0.213755   0.314639  -0.350913
     3     H       0.274329   0.329092  -0.310759
     4     O       0.027515  -0.021484  -0.049036
     5     H      -0.034645  -0.060116   0.166853
     6     O      -0.197453  -0.209108  -0.295759
     7     H      -0.314693  -0.279574  -0.213924
     8     O       0.000420  -0.023714   0.001174
     9     H      -0.000819   0.110066  -0.047661
    10     O       0.003401   0.024946   0.020094
    11     O      -0.017613  -0.007394  -0.023442
    12     N       0.035134  -0.020990  -0.003220
    13     O       0.028782  -0.025286   0.006165
 
 Mode:    28      Frequency (cm-1):      702.5473     Intensity (km/mol):        1.7388
 Index  Atom      ---- Displacements (x/y/z) ----
     1    Pa      -0.000012  -0.000356   0.000288
     2     O       0.005458   0.004127   0.001193
     3     H      -0.012436   0.003482  -0.008758
     4     O      -0.000646   0.000640   0.002794
     5     H       0.017270   0.011899  -0.030687
     6     O       0.007867   0.015105   0.016595
     7     H       0.013152   0.024269   0.008996
     8     O      -0.001025   0.005614   0.003611
     9     H      -0.011852  -0.034585   0.005557
    10     O       0.486218  -0.110379   0.243395
    11     O      -0.383454   0.384153   0.027330
    12     N       0.036862   0.137123   0.122422
    13     O      -0.146901  -0.414490  -0.404692
 
 Mode:    29      Frequency (cm-1):      745.4945     Intensity (km/mol):       54.7164
 Index  Atom      ---- Displacements (x/y/z) ----
     1    Pa       0.008122  -0.007495  -0.007296
     2     O      -0.025504  -0.022915   0.028919
     3     H       0.014781  -0.045237   0.026227
     4     O      -0.052100   0.048117   0.047277
     5     H       0.037665   0.010076  -0.026920
     6     O       0.019147   0.036409   0.038357
     7     H       0.045117   0.036351   0.030366
     8     O      -0.001734   0.006174  -0.002337
     9     H       0.009639  -0.045245   0.029690
    10     O      -0.172147   0.526138   0.277913
    11     O      -0.413117  -0.190611  -0.413333
    12     N       0.234005  -0.120209   0.054117
    13     O       0.316518  -0.187036   0.077473
 
 Mode:    30      Frequency (cm-1):      822.0938     Intensity (km/mol):       11.5020
 Index  Atom      ---- Displacements (x/y/z) ----
     1    Pa      -0.000070  -0.001493   0.000657
     2     O       0.007303   0.004232  -0.006550
     3     H      -0.004896   0.009950  -0.006379
     4     O      -0.008872   0.008558   0.009526
     5     H       0.036977  -0.003435   0.013744
     6     O      -0.000614  -0.000948  -0.000472
     7     H      -0.001211  -0.002250   0.000462
     8     O      -0.002893   0.003074  -0.000978
     9     H      -0.007929  -0.019703   0.002123
    10     O       0.122003   0.140410  -0.183564
    11     O       0.116965   0.134604  -0.187260
    12     N      -0.417862  -0.465102   0.630374
    13     O       0.131500   0.139795  -0.192695
 
 Mode:    31      Frequency (cm-1):      857.9117     Intensity (km/mol):      286.9082
 Index  Atom      ---- Displacements (x/y/z) ----
     1    Pa      -0.038270   0.034434   0.033422
     2     O      -0.034865  -0.062081   0.057631
     3     H      -0.058648  -0.040969   0.079922
     4     O       0.563222  -0.515323  -0.572663
     5     H      -0.090636  -0.009953   0.101040
     6     O       0.047597   0.042422   0.054085
     7     H       0.018165   0.065533   0.058460
     8     O       0.017124   0.010651  -0.021677
     9     H      -0.002799   0.118691  -0.089415
    10     O      -0.005305   0.056294   0.033014
    11     O      -0.035199  -0.020529  -0.048279
    12     N      -0.013681  -0.011411   0.004091
    13     O       0.020623  -0.007223   0.002104
 
 Mode:    32      Frequency (cm-1):     1032.6267     Intensity (km/mol):       66.2712
 Index  Atom      ---- Displacements (x/y/z) ----
     1    Pa       0.000654  -0.000807  -0.000499
     2     O       0.002740   0.006503  -0.006684
     3     H       0.001008   0.010255  -0.006102
     4     O      -0.014465   0.013222   0.014195
     5     H      -0.005075   0.001487  -0.008744
     6     O      -0.005940  -0.003893  -0.006301
     7     H      -0.001691  -0.010565  -0.005435
     8     O      -0.000826   0.000188   0.002414
     9     H      -0.008844  -0.010579  -0.001634
    10     O       0.409855   0.166583   0.397156
    11     O       0.199656  -0.501967  -0.238264
    12     N      -0.217854   0.105521  -0.065877
    13     O      -0.408820   0.239240  -0.096261
 
 Mode:    33      Frequency (cm-1):     1240.4061     Intensity (km/mol):      287.2933
 Index  Atom      ---- Displacements (x/y/z) ----
     1    Pa      -0.001534  -0.004569  -0.003986
     2     O       0.005274   0.006025   0.003983
     3     H      -0.011479  -0.005975  -0.019213
     4     O       0.000514   0.004121   0.005993
     5     H       0.005812   0.011929  -0.009735
     6     O       0.001551   0.012990   0.010499
     7     H       0.025187  -0.000262   0.007832
     8     O       0.003659   0.009636   0.002072
     9     H      -0.036578  -0.088182  -0.006753
    10     O       0.137947   0.195492   0.236352
    11     O       0.007514   0.285354   0.215732
    12     N      -0.200458  -0.599722  -0.575608
    13     O       0.042265   0.082610   0.088631
 
 Mode:    34      Frequency (cm-1):     1592.6126     Intensity (km/mol):      170.3294
 Index  Atom      ---- Displacements (x/y/z) ----
     1    Pa       0.000274  -0.000251   0.000008
     2     O       0.000178   0.000471  -0.000386
     3     H      -0.000104   0.000674  -0.000479
     4     O      -0.002299   0.000840   0.003112
     5     H      -0.554986  -0.050624   0.431931
     6     O      -0.000012  -0.000661  -0.000189
     7     H      -0.001564   0.000627  -0.000400
     8     O       0.047899   0.048045  -0.028934
     9     H      -0.206178  -0.671476  -0.010589
    10     O       0.002931  -0.002186   0.001313
    11     O       0.003552  -0.005038  -0.001558
    12     N      -0.042618   0.027996  -0.007805
    13     O       0.029163  -0.016931   0.006874
 
 Mode:    35      Frequency (cm-1):     1600.2401     Intensity (km/mol):      629.6633
 Index  Atom      ---- Displacements (x/y/z) ----
     1    Pa       0.001934  -0.000997   0.000493
     2     O       0.001298   0.003872  -0.004041
     3     H       0.001257   0.009182  -0.004614
     4     O      -0.005104   0.004943   0.003774
     5     H       0.352288   0.032704  -0.289780
     6     O      -0.003863  -0.002616  -0.003804
     7     H      -0.000879  -0.007052  -0.006468
     8     O      -0.031553  -0.031301   0.020611
     9     H       0.124785   0.429572   0.003448
    10     O       0.052240  -0.008626   0.028943
    11     O       0.040669  -0.047705  -0.007453
    12     N      -0.538101   0.308258  -0.131838
    13     O       0.359387  -0.203301   0.089014
 
 Mode:    36      Frequency (cm-1):     3776.2459     Intensity (km/mol):       74.6651
 Index  Atom      ---- Displacements (x/y/z) ----
     1    Pa       0.000018   0.000034  -0.000021
     2     O      -0.000032  -0.000016   0.000032
     3     H      -0.000585  -0.001127   0.001038
     4     O       0.000112  -0.000196  -0.000111
     5     H      -0.018676  -0.659378  -0.166166
     6     O      -0.000167  -0.000274  -0.000344
     7     H       0.003089   0.004192   0.008028
     8     O       0.034505   0.028811  -0.018297
     9     H      -0.533318   0.198701   0.459239
    10     O      -0.000051   0.000044  -0.000000
    11     O      -0.000098   0.000058   0.000052
    12     N       0.000181  -0.000162  -0.000049
    13     O      -0.000067   0.000061  -0.000022
 
 Mode:    37      Frequency (cm-1):     3875.8966     Intensity (km/mol):      123.5941
 Index  Atom      ---- Displacements (x/y/z) ----
     1    Pa       0.000005  -0.000006  -0.000007
     2     O      -0.000447  -0.001020   0.000881
     3     H       0.006869   0.016205  -0.013699
     4     O      -0.000115   0.000093   0.000095
     5     H      -0.049712  -0.710860  -0.159524
     6     O      -0.000841  -0.001173  -0.002143
     7     H       0.013649   0.019441   0.034914
     8     O      -0.028690   0.054322   0.036650
     9     H       0.506498  -0.152743  -0.423653
    10     O      -0.000017   0.000038   0.000025
    11     O      -0.000036   0.000048   0.000033
    12     N       0.000036  -0.000099  -0.000036
    13     O      -0.000025   0.000029   0.000000
 
 Mode:    38      Frequency (cm-1):     3881.0672     Intensity (km/mol):      195.2425
 Index  Atom      ---- Displacements (x/y/z) ----
     1    Pa      -0.000002   0.000006   0.000001
     2     O       0.002699   0.006367  -0.005439
     3     H      -0.044278  -0.103762   0.087849
     4     O       0.000049  -0.000167  -0.000158
     5     H      -0.002297  -0.037692  -0.008502
     6     O       0.020171   0.029428   0.051198
     7     H      -0.317752  -0.464416  -0.810485
     8     O      -0.000949   0.002730   0.001386
     9     H       0.017479  -0.005046  -0.014467
    10     O      -0.000090   0.000065  -0.000025
    11     O      -0.000066   0.000009  -0.000030
    12     N       0.000176  -0.000069   0.000072
    13     O      -0.000088   0.000042  -0.000028
 
 Mode:    39      Frequency (cm-1):     3889.7720     Intensity (km/mol):      205.7655
 Index  Atom      ---- Displacements (x/y/z) ----
     1    Pa       0.000008  -0.000006  -0.000011
     2     O      -0.019617  -0.045285   0.038549
     3     H       0.306417   0.716643  -0.606392
     4     O       0.000238  -0.000115  -0.000274
     5     H       0.000716   0.009299   0.002352
     6     O       0.003091   0.004438   0.007573
     7     H      -0.046182  -0.067765  -0.117589
     8     O       0.000541  -0.000731  -0.000671
     9     H      -0.009492   0.002868   0.008184
    10     O      -0.000166   0.000087  -0.000043
    11     O      -0.000138   0.000075  -0.000051
    12     N       0.000284  -0.000128   0.000078
    13     O      -0.000156   0.000080  -0.000043

PES point character: Geometry corresponds to a local minimum on the PES.




 ============================
 Statistical Thermal Analysis  ***  ideal gas assumed  ***
 ============================
  
 Pressure:                  1.000000 atm.
 Temperature:             298.150000 K



 Moments of Inertia [amu*bohr^2] and principal axis
 ==================================================

        1222.2017       2382.7597       2649.8409
 ------------------------------------------------
           0.8363          0.5271         -0.1506
          -0.4950          0.6081         -0.6207
           0.2356         -0.5936         -0.7695


 The rotational contribution to the molecular entropy includes
 a term, dependent on the symmetry number sigma. The results 
 reported below were computed using sigma = 1, determined from
 the point group symmetry of the input geometry (NOSYM). 
 If this is not the correct symmetry, try symmetrizing the molecule before
 running the calculation (note: linear molecules should be aligned along one
 of the Cartesian axes).
 Contributions from frequencies below 20 1/cm are not included in vibrational sums.
 Their contributions, if any, are reported separately.


     Temp                                                        Transl      Rotat     Vibrat     Total
     ----                                                        ------      -----     ------     -----

     298.15   Entropy (cal/mol-K):                               43.545     30.424     50.190    124.159
              Nuclear Internal Energy (kcal/mol):                 0.889      0.889     48.800     50.577
              Constant Volume Heat Capacity (cal/mol-K):          2.981      2.981     39.920     45.882
          (c) Constant Volume Heat Capacity (cal/mol-K):          2.981      2.981     34.946     40.907

       Summary of energy terms
                                                   hartree              eV         kcal/mol           kJ/mol
                                      --------------------     -----------       ----------      -----------
      Energy from Engine:               -3.698825842067054       -100.6502         -2321.05         -9711.27
      Nuclear Internal Energy:           0.080599705231847          2.1932            50.58           211.61
  (c) Nuclear Internal Energy:           0.078050395435381          2.1239            48.98           204.92
      Internal Energy U:                -3.618226136835207        -98.4569         -2270.47         -9499.65
      pV/n = RT:                         0.000944186013486          0.0257             0.59             2.48
      Enthalpy H:                       -3.617281950821721        -98.4313         -2269.88         -9497.17
      -T*S:                             -0.058991831216435         -1.6052           -37.02          -154.88
  (c) -T*S:                             -0.057024867257437         -1.5517           -35.78          -149.72
      Gibbs free energy:                -3.676273782038156       -100.0365         -2306.90         -9652.06
 
 
 
  (c) The properties marked with this symbol have been corrected using 'low vibrational frequency free rotor
      interpolation corrections'. For those terms all positive frequencies are used (also ones below 20 1/cm),
      but the contribution to the partition function of small vibrational frequencies is modified as described
      in the following paper:
      S. Grimme, 'Supramolecular Binding Thermodynamics by Dispersion-Corrected Density Functional Theory'
      (Chem. Eur. J. 2012, 18, 9955-9964)
      Configuration: Dampener Frequency          :   100.000 1/cm
                     Dampener Alpha              :     4.000
                     Averaging Moment of Inertia : 1.000E-44 kg m2

--------------
Atomic charges
--------------
  Index   Atom    Charge
      1     Pa    2.4668
      2      O   -0.6109
      3      H    0.0148
      4      O   -0.7215
      5      H    0.2184
      6      O   -0.6248
      7      H    0.0360
      8      O   -0.3917
      9      H    0.2288
     10      O   -0.5662
     11      O   -0.5692
     12      N    0.9078
     13      O   -0.3883


Dipole moment vector    (Debye):    -3.54238288   -1.92376116   -0.67378991
              magnitude (Debye):     4.08697031


Final PES point is a local minimum. Geometry optimization successful!


AMS application finished. Exiting.
NORMAL TERMINATION
     Total cpu time:   55782.32
  Total system time:    1373.71
 Total elapsed time:   57170.08
