

 Parallel Execution: Process Information
 ==============================================================================
 Rank   Node Name                              NodeID   MyNodeRank  NodeMaster
    0   don-0-0.local                             0          0          0
    1   don-0-0.local                             1          0          1
    2   don-0-0.local                             2          0          2
    3   don-0-0.local                             3          0          3
    4   don-0-0.local                             4          0          4
    5   don-0-0.local                             5          0          5
    6   don-0-0.local                             6          0          6
    7   don-0-0.local                             7          0          7
 ==============================================================================


May use up to 7811MB of RAM as shared memory on node 0
May use up to 7812MB of RAM as shared memory on node 2
May use up to 7812MB of RAM as shared memory on node 6
May use up to 7812MB of RAM as shared memory on node 1
May use up to 7812MB of RAM as shared memory on node 7
May use up to 7812MB of RAM as shared memory on node 3
May use up to 7812MB of RAM as shared memory on node 4
May use up to 7812MB of RAM as shared memory on node 5

 *******************************************************************************
 *                                                                             *
 *  --------------------------------                                           *
 *   Amsterdam Modeling Suite (AMS)              2022.103                      *
 *  --------------------------------                                           *
 *                                               r104886 2022-06-17            *
 *                                                                             *
 *                                                                             *
 *                              =================                              *
 *                              |               |                              *
 *                              |     A M S     |                              *
 *                              |               |                              *
 *                              =================                              *
 *                                                                             *
 *                                                                             *
 *   Online information and documentation:  https://www.scm.com/support/       *
 *   E-mail:  support@scm.com   info@scm.com                                   *
 *                                                                             *
 *   Scientific publications using AMS results must be properly referenced     *
 *   See the User Manuals (or the web site) for recommended citations          *
 *   The terms and conditions of the End User License Agreement apply to       *
 *   the use of AMS, https://www.scm.com/license-terms/                        *
 *                                                                             *
 **********************  x86_64_linux_intel / intelmpi  ************************
 
 Licensed to: Dr. Val?rie Vallet / Laboratoire PhLAM UMR 8523 / Villeneuve d'Ascq Cedex / FRANCE 2023-02-21 11:49:39
 SCM User ID: u10325
  
 AMS 2022.103  RunTime: Mar14-2023 00:28:13  ShM Nodes: 8  Procs: 8

 AMS jobname: pao_oh2_cl_h2o.SR.b3lyp.tz2p.opt-freq-A2-solvation
 AMS jobid  : 2132280065

 Start   directory: /home/shaaban/ams/PhD/chloride/pao_oh2_cl_h2o/solvation/
 Results directory: /home/shaaban/ams/PhD/chloride/pao_oh2_cl_h2o/solvation/pao_oh2_cl_h2o.SR.b3lyp.tz2p.opt-freq-A2-solvation.results/
 Scratch directory: /state/partition1/shaaban/934970.phlam-s-sakura/amstmp_pao_oh2_cl_h2o.SR.b3lyp.tz2p.opt-freq-A2-solvation_kid0.2132280065/


 Communication costs MPI_COMM_WORLD:      4.594 usec per message,   0.1215 usec per 8-byte item
 Communication costs for intra-node:      0.261 usec per message,   0.0020 usec per 8-byte item

 RNG seed: 60652444 -1594228046 1339398001 -987958 2057188504 -243565958 1873503846 1309066820



                      ************************************************************************
                      *  ADF 2022.103  RunTime: Mar14-2023 00:28:14  ShM Nodes: 8  Procs: 8  *
                      ************************************************************************
  
       ***************************
       *  GEOMETRY OPTIMIZATION  *
       ***************************

Optimization Method                    Quasi Newton
Optimization Coordinates               Delocalized Coordinates
Optimize lattice                       F
 
 ------------------------------------------------------
 Convergence criteria (Hartree,Angstrom)
 ------------------------------------------------------
 Maximum gradient               0.000100000000
 Maximum rms gradient           0.000066666667
 Maximum step allowed           0.001000000000
 Maximum rms step allowed       0.000666666667
 Maximum energy change allowe   0.000010000000
 Maximum stress energy allowe   0.000500000000
 
Initial model Hessian                  Automatic Hessian
 
------------------------------------
Quasi-Newton Optimizer Parameters
------------------------------------
Hessian Update Method                  BFGS
Maximum number of steps                  250
First GDIIS cycle                          0
Maximum GDIIS vectors                      0
Trust radius (bohr)                        0.200000
Trust radius varies                        T
Constraints converged at all steps         T
Use projector                              T
 
 Rigid motions settings for: old optimizer
 Atomic rotations (x,y,z):     T T T
 Atomic translations (x,y,z):  T T T
 Tolerance:                   1.000000000000000E-006
 
--------
Geometry
--------
Formula: H4ClO4Pa
Atoms
  Index Symbol   x (angstrom)   y (angstrom)   z (angstrom)
      1     Pa    -0.19696929     0.06054024     0.82872573       adf.R=2.200
      2      O     1.11258836     1.46961294    -0.14218011       adf.R=1.517
      3      O    -1.79432074     0.80735024    -0.34577190       adf.R=1.517
      4     Cl    -0.83707511     1.61102103     2.84135432       adf.R=1.725
      5      H    -1.93978192     1.62812553    -0.83441570       adf.R=1.350
      6      O     0.05930024    -1.64719568    -1.00859677       adf.R=1.517
      7      H    -0.36448826    -1.61424860    -1.87613364       adf.R=1.350
      8      H     0.76748299    -2.30185692    -1.06225282       adf.R=1.350
      9      H     2.06441769     1.55221237    -0.01218808       adf.R=1.350
     10      O     1.14039643    -0.88479193     1.73322065       adf.R=1.517
 
Total System Charge             0.00000
Bonding info available!
 
 
----------------
ADF Engine Input
----------------
 
 Basis
 Type TZ2P
 Core None
 End
 XC
 Hybrid B3LYP
 End
 Solvation
 Surf Delley
 Solv name=Water cav0=0.0 cav1=0.0067639
 Charged method=CONJ
 C-Mat POT
 SCF VAR ALL
 CSMRSP
 End
 NumericalQuality Good
 

 Title: *** (NO TITLE) ***

 Using automatic Hessian for delocalized coordinates.
 *** GO1_GOStep1 ***

 SOLVATION
-------------------------------------------

  The Delley construction of COSMO surface surface is calculated

       Division Level for Surface Triangles (NDIV)                  3
       Final Division Level for Triangles (NFDIV)                   1
       Radius of the Solvent (RSOL)                           1.93000 angstr
  Dielectric Constant (EPSL)                                 78.39000

       COSMO equation is solved iteratively-               conjugate-gradient

       Maximun of Iterations for Charges (NCIX)                  1000
       Criterion for Charge convergence (CCNV)                1.0E-08

  COSMO charges included variationally in SCF

       COSMO included at every SCF cycle

  Geometry-dependent empirical factor                         0.00000

  C-Matrix calculated in cspmtx

  In cspmtx, C-Matrix calculated using fitted potential

-------------------------------------------



 -------------------------------------------
  COSMO surface
  Area             =          508.639
  Volume           =          821.344
  Number of Points =         1250
 -------------------------------------------



 ======================
 RI Hartree-Fock Scheme
 ======================
  
 Fit Set Quality     : GOOD
 Threshold Quality   : GOOD
 Integration Quality : GOOD
 Response Quality    : DEFAULT
 Is Range Separated  :  F
 
 RIHartreeFock Dependency: number of modified vectors:           5
 cosmo_calcen: 0.5 (esolb+esolc) (Hartrees) =   -0.065486

 Solvation energy (screening term,uncorrected) =    -41.092890 kcal/mol

 Solvation energy (dispersion and cavitation terms) =      0.951115 kcal/mol
 Solvation Energy Contributions (Hartrees)
          esola   esolb+esolc
     0.06548568   -0.13097136
 esol last cycle   -0.06548568
  
 Hartree-Fock exchange energy:   -528.289467965527     
 cosmo_calcen: 0.5 (esolb+esolc) (Hartrees) =   -0.065486

 Solvation energy (screening term,uncorrected) =    -41.092891 kcal/mol

 Solvation energy (dispersion and cavitation terms) =      0.951115 kcal/mol
 Solvation Energy Contributions (Hartrees)
          esola   esolb+esolc
     0.06548568   -0.13097137
 esol last cycle   -0.06548568

 Energy gradients wrt nuclear displacements
 ==========================================

     Atom      Cartesian (a.u./angstrom)
                 X         Y         Z
 ----------------------------------------
     1 Pa   -0.014045  0.013222  0.024146
     2 O     0.006145  0.005238 -0.004124
     3 O    -0.007429  0.004819 -0.005451
     4 Cl    0.005877 -0.014926 -0.020485
     5 H    -0.000450 -0.000347  0.000576
     6 O     0.000490 -0.001302 -0.001456
     7 H     0.000245 -0.000025  0.000245
     8 H    -0.000324  0.000287 -0.000094
     9 H    -0.000634  0.000178 -0.000138
    10 O     0.010126 -0.007144  0.006781
 ----------------------------------------
 Mulliken charges used for AMS results%charges...
 
----------------------------------------------------------------------
Geometry Convergence after Step   1       (Hartree/Angstrom,Angstrom)
----------------------------------------------------------------------
current energy                               -2.68531402 Hartree
energy change                      -2.68531402     0.00001000    F
constrained gradient max            0.02414374     0.00010000    F
constrained gradient rms            0.00822070     0.00006667    F
gradient max                        0.02414374
gradient rms                        0.00822070
cart. step max                      0.01837103     0.00100000    F
cart. step rms                      0.00561660     0.00066667    F
 
 
--------
Geometry
--------
Formula: H4ClO4Pa
Atoms
  Index Symbol   x (angstrom)   y (angstrom)   z (angstrom)
      1     Pa    -0.19503364     0.06314310     0.82660978       adf.R=2.200
      2      O     1.10950486     1.47347038    -0.13920871       adf.R=1.517
      3      O    -1.78739957     0.80262820    -0.34997009       adf.R=1.517
      4     Cl    -0.83647758     1.61102140     2.85972535       adf.R=1.725
      5      H    -1.92980489     1.62040781    -0.84502767       adf.R=1.350
      6      O     0.05629179    -1.64668416    -1.00804295       adf.R=1.517
      7      H    -0.37039907    -1.61555145    -1.87441459       adf.R=1.350
      8      H     0.76343045    -2.30278619    -1.06169635       adf.R=1.350
      9      H     2.06180824     1.55550039    -0.00989285       adf.R=1.350
     10      O     1.13962979    -0.88038027     1.72367974       adf.R=1.517
 
Total System Charge             0.00000
Bonding info available!
 
 *** GO1_GOStep2 ***

 SOLVATION
-------------------------------------------

  The Delley construction of COSMO surface surface is calculated

       Division Level for Surface Triangles (NDIV)                  3
       Final Division Level for Triangles (NFDIV)                   1
       Radius of the Solvent (RSOL)                           1.93000 angstr
  Dielectric Constant (EPSL)                                 78.39000

       COSMO equation is solved iteratively-               conjugate-gradient

       Maximun of Iterations for Charges (NCIX)                  1000
       Criterion for Charge convergence (CCNV)                1.0E-08

  COSMO charges included variationally in SCF

       COSMO included at every SCF cycle

  Geometry-dependent empirical factor                         0.00000

  C-Matrix calculated in cspmtx

  In cspmtx, C-Matrix calculated using fitted potential

-------------------------------------------



 -------------------------------------------
  COSMO surface
  Area             =          509.658
  Volume           =          822.544
  Number of Points =         1252
 -------------------------------------------



 ======================
 RI Hartree-Fock Scheme
 ======================
  
 Fit Set Quality     : GOOD
 Threshold Quality   : GOOD
 Integration Quality : GOOD
 Response Quality    : DEFAULT
 Is Range Separated  :  F
 
 RIHartreeFock Dependency: number of modified vectors:           5
 cosmo_calcen: 0.5 (esolb+esolc) (Hartrees) =   -0.065584

 Solvation energy (screening term,uncorrected) =    -41.154491 kcal/mol

 Solvation energy (dispersion and cavitation terms) =      0.953020 kcal/mol
 Solvation Energy Contributions (Hartrees)
          esola   esolb+esolc
     0.06558385   -0.13116770
 esol last cycle   -0.06558385
  
 Hartree-Fock exchange energy:   -528.294912968524     
 cosmo_calcen: 0.5 (esolb+esolc) (Hartrees) =   -0.065584

 Solvation energy (screening term,uncorrected) =    -41.154522 kcal/mol

 Solvation energy (dispersion and cavitation terms) =      0.953020 kcal/mol
 Solvation Energy Contributions (Hartrees)
          esola   esolb+esolc
     0.06558390   -0.13116780
 esol last cycle   -0.06558390

 Energy gradients wrt nuclear displacements
 ==========================================

     Atom      Cartesian (a.u./angstrom)
                 X         Y         Z
 ----------------------------------------
     1 Pa   -0.008247  0.010743  0.022081
     2 O     0.003733  0.003440 -0.003027
     3 O    -0.005136  0.002985 -0.004042
     4 Cl    0.005166 -0.012734 -0.017478
     5 H    -0.000368 -0.000030  0.000527
     6 O     0.000256 -0.001094 -0.001087
     7 H    -0.000020  0.000005  0.000014
     8 H     0.000083  0.000045 -0.000097
     9 H    -0.000124  0.000071  0.000072
    10 O     0.004657 -0.003431  0.003036
 ----------------------------------------
 Mulliken charges used for AMS results%charges...

 dE(predicted):    -0.29632E-03, dE(actual):    -0.50309E-03, Trust radius:    0.200000, all in a.u.
 
----------------------------------------------------------------------
Geometry Convergence after Step   2       (Hartree/Angstrom,Angstrom)
----------------------------------------------------------------------
current energy                               -2.68581712 Hartree
energy change                      -0.00050309     0.00001000    F
constrained gradient max            0.02207733     0.00010000    F
constrained gradient rms            0.00657630     0.00006667    F
gradient max                        0.02207733
gradient rms                        0.00657630
cart. step max                      0.06755445     0.00100000    F
cart. step rms                      0.02030770     0.00066667    F
 
 
--------
Geometry
--------
Formula: H4ClO4Pa
Atoms
  Index Symbol   x (angstrom)   y (angstrom)   z (angstrom)
      1     Pa    -0.18773624     0.06959275     0.81827626       adf.R=2.200
      2      O     1.09803860     1.48841032    -0.12858843       adf.R=1.517
      3      O    -1.76316955     0.79001414    -0.36224743       adf.R=1.517
      4     Cl    -0.84085119     1.61032200     2.92727981       adf.R=1.725
      5      H    -1.89114568     1.59353477    -0.88502588       adf.R=1.350
      6      O     0.04486824    -1.64563690    -1.00770822       adf.R=1.517
      7      H    -0.38922695    -1.61910292    -1.87063699       adf.R=1.350
      8      H     0.74334630    -2.31111785    -1.05876387       adf.R=1.350
      9      H     2.05155130     1.57018547    -0.00542013       adf.R=1.350
     10      O     1.14587555    -0.86543257     1.69459657       adf.R=1.517
 
Total System Charge             0.00000
Bonding info available!
 
 *** GO1_GOStep3 ***

 SOLVATION
-------------------------------------------

  The Delley construction of COSMO surface surface is calculated

       Division Level for Surface Triangles (NDIV)                  3
       Final Division Level for Triangles (NFDIV)                   1
       Radius of the Solvent (RSOL)                           1.93000 angstr
  Dielectric Constant (EPSL)                                 78.39000

       COSMO equation is solved iteratively-               conjugate-gradient

       Maximun of Iterations for Charges (NCIX)                  1000
       Criterion for Charge convergence (CCNV)                1.0E-08

  COSMO charges included variationally in SCF

       COSMO included at every SCF cycle

  Geometry-dependent empirical factor                         0.00000

  C-Matrix calculated in cspmtx

  In cspmtx, C-Matrix calculated using fitted potential

-------------------------------------------



 -------------------------------------------
  COSMO surface
  Area             =          511.505
  Volume           =          823.726
  Number of Points =         1256
 -------------------------------------------



 ======================
 RI Hartree-Fock Scheme
 ======================
  
 Fit Set Quality     : GOOD
 Threshold Quality   : GOOD
 Integration Quality : GOOD
 Response Quality    : DEFAULT
 Is Range Separated  :  F
 
 RIHartreeFock Dependency: number of modified vectors:           5
 cosmo_calcen: 0.5 (esolb+esolc) (Hartrees) =   -0.066911

 Solvation energy (screening term,uncorrected) =    -41.987247 kcal/mol

 Solvation energy (dispersion and cavitation terms) =      0.956475 kcal/mol
 Solvation Energy Contributions (Hartrees)
          esola   esolb+esolc
     0.06691093   -0.13382186
 esol last cycle   -0.06691093
  
 Hartree-Fock exchange energy:   -528.308236684801     
 cosmo_calcen: 0.5 (esolb+esolc) (Hartrees) =   -0.066911

 Solvation energy (screening term,uncorrected) =    -41.987277 kcal/mol

 Solvation energy (dispersion and cavitation terms) =      0.956475 kcal/mol
 Solvation Energy Contributions (Hartrees)
          esola   esolb+esolc
     0.06691098   -0.13382196
 esol last cycle   -0.06691098

 Energy gradients wrt nuclear displacements
 ==========================================

     Atom      Cartesian (a.u./angstrom)
                 X         Y         Z
 ----------------------------------------
     1 Pa    0.005582  0.003987  0.011198
     2 O    -0.002254 -0.001753  0.000486
     3 O     0.002120 -0.002045  0.000485
     4 Cl    0.002427 -0.004895 -0.006529
     5 H     0.000012  0.000535  0.000524
     6 O     0.000177 -0.000997 -0.000879
     7 H    -0.000120  0.000057 -0.000195
     8 H     0.000073  0.000020  0.000073
     9 H     0.000300 -0.000349  0.000461
    10 O    -0.008319  0.005442 -0.005623
 ----------------------------------------
 Mulliken charges used for AMS results%charges...

 dE(predicted):    -0.83141E-03, dE(actual):    -0.88341E-03, Trust radius:    0.200000, all in a.u.
 
----------------------------------------------------------------------
Geometry Convergence after Step   3       (Hartree/Angstrom,Angstrom)
----------------------------------------------------------------------
current energy                               -2.68670053 Hartree
energy change                      -0.00088341     0.00001000    F
constrained gradient max            0.01119624     0.00010000    F
constrained gradient rms            0.00363093     0.00006667    F
gradient max                        0.01119624
gradient rms                        0.00363093
cart. step max                      0.01789068     0.00100000    F
cart. step rms                      0.00612702     0.00066667    F
 
 
--------
Geometry
--------
Formula: H4ClO4Pa
Atoms
  Index Symbol   x (angstrom)   y (angstrom)   z (angstrom)
      1     Pa    -0.18435270     0.06956549     0.81526849       adf.R=2.200
      2      O     1.09700576     1.49403234    -0.12566843       adf.R=1.517
      3      O    -1.75769137     0.79057859    -0.36354722       adf.R=1.517
      4     Cl    -0.84869014     1.60801560     2.94517048       adf.R=1.725
      5      H    -1.87989813     1.58737479    -0.89801276       adf.R=1.350
      6      O     0.04067311    -1.64678384    -1.00802613       adf.R=1.517
      7      H    -0.39724218    -1.62195233    -1.86899767       adf.R=1.350
      8      H     0.73642731    -2.31513251    -1.05946817       adf.R=1.350
      9      H     2.05075125     1.57763944    -0.00582992       adf.R=1.350
     10      O     1.15456746    -0.86256837     1.69087300       adf.R=1.517
 
Total System Charge             0.00000
Bonding info available!
 
 *** GO1_GOStep4 ***

 SOLVATION
-------------------------------------------

  The Delley construction of COSMO surface surface is calculated

       Division Level for Surface Triangles (NDIV)                  3
       Final Division Level for Triangles (NFDIV)                   1
       Radius of the Solvent (RSOL)                           1.93000 angstr
  Dielectric Constant (EPSL)                                 78.39000

       COSMO equation is solved iteratively-               conjugate-gradient

       Maximun of Iterations for Charges (NCIX)                  1000
       Criterion for Charge convergence (CCNV)                1.0E-08

  COSMO charges included variationally in SCF

       COSMO included at every SCF cycle

  Geometry-dependent empirical factor                         0.00000

  C-Matrix calculated in cspmtx

  In cspmtx, C-Matrix calculated using fitted potential

-------------------------------------------



 -------------------------------------------
  COSMO surface
  Area             =          513.375
  Volume           =          826.827
  Number of Points =         1258
 -------------------------------------------



 ======================
 RI Hartree-Fock Scheme
 ======================
  
 Fit Set Quality     : GOOD
 Threshold Quality   : GOOD
 Integration Quality : GOOD
 Response Quality    : DEFAULT
 Is Range Separated  :  F
 
 RIHartreeFock Dependency: number of modified vectors:           5
 cosmo_calcen: 0.5 (esolb+esolc) (Hartrees) =   -0.067841

 Solvation energy (screening term,uncorrected) =    -42.570730 kcal/mol

 Solvation energy (dispersion and cavitation terms) =      0.959972 kcal/mol
 Solvation Energy Contributions (Hartrees)
          esola   esolb+esolc
     0.06784077   -0.13568154
 esol last cycle   -0.06784077
  
 Hartree-Fock exchange energy:   -528.305055904554     
 cosmo_calcen: 0.5 (esolb+esolc) (Hartrees) =   -0.067841

 Solvation energy (screening term,uncorrected) =    -42.570726 kcal/mol

 Solvation energy (dispersion and cavitation terms) =      0.959972 kcal/mol
 Solvation Energy Contributions (Hartrees)
          esola   esolb+esolc
     0.06784076   -0.13568152
 esol last cycle   -0.06784076

 Energy gradients wrt nuclear displacements
 ==========================================

     Atom      Cartesian (a.u./angstrom)
                 X         Y         Z
 ----------------------------------------
     1 Pa    0.003715  0.003750  0.006079
     2 O    -0.002189 -0.001777  0.000636
     3 O     0.002546 -0.002219  0.000771
     4 Cl    0.001466 -0.002537 -0.003227
     5 H     0.000038  0.000541  0.000488
     6 O    -0.000074 -0.001214 -0.001161
     7 H    -0.000023  0.000036 -0.000080
     8 H     0.000068 -0.000008  0.000043
     9 H     0.000216 -0.000344  0.000396
    10 O    -0.005763  0.003772 -0.003945
 ----------------------------------------
 Mulliken charges used for AMS results%charges...

 dE(predicted):    -0.92230E-04, dE(actual):    -0.13262E-03, Trust radius:    0.200000, all in a.u.
 
----------------------------------------------------------------------
Geometry Convergence after Step   4       (Hartree/Angstrom,Angstrom)
----------------------------------------------------------------------
current energy                               -2.68683315 Hartree
energy change                      -0.00013262     0.00001000    F
constrained gradient max            0.00607637     0.00010000    F
constrained gradient rms            0.00238636     0.00006667    F
gradient max                        0.00607637
gradient rms                        0.00238636
cart. step max                      0.01564645     0.00100000    F
cart. step rms                      0.00655873     0.00066667    F
 
 
--------
Geometry
--------
Formula: H4ClO4Pa
Atoms
  Index Symbol   x (angstrom)   y (angstrom)   z (angstrom)
      1     Pa    -0.17986767     0.06742878     0.81216586       adf.R=2.200
      2      O     1.09825107     1.49958077    -0.12273444       adf.R=1.517
      3      O    -1.75469142     0.79459817    -0.36090437       adf.R=1.517
      4     Cl    -0.86097684     1.60539789     2.96081693       adf.R=1.725
      5      H    -1.86950819     1.58058378    -0.91269796       adf.R=1.350
      6      O     0.03707241    -1.64747463    -1.00890396       adf.R=1.517
      7      H    -0.40679170    -1.62480008    -1.86685856       adf.R=1.350
      8      H     0.72941739    -2.31927155    -1.06158901       adf.R=1.350
      9      H     2.05231774     1.58617416    -0.00848425       adf.R=1.350
     10      O     1.16632760    -0.86144808     1.69095144       adf.R=1.517
 
Total System Charge             0.00000
Bonding info available!
 
 *** GO1_GOStep5 ***

 SOLVATION
-------------------------------------------

  The Delley construction of COSMO surface surface is calculated

       Division Level for Surface Triangles (NDIV)                  3
       Final Division Level for Triangles (NFDIV)                   1
       Radius of the Solvent (RSOL)                           1.93000 angstr
  Dielectric Constant (EPSL)                                 78.39000

       COSMO equation is solved iteratively-               conjugate-gradient

       Maximun of Iterations for Charges (NCIX)                  1000
       Criterion for Charge convergence (CCNV)                1.0E-08

  COSMO charges included variationally in SCF

       COSMO included at every SCF cycle

  Geometry-dependent empirical factor                         0.00000

  C-Matrix calculated in cspmtx

  In cspmtx, C-Matrix calculated using fitted potential

-------------------------------------------



 -------------------------------------------
  COSMO surface
  Area             =          514.029
  Volume           =          827.656
  Number of Points =         1260
 -------------------------------------------



 ======================
 RI Hartree-Fock Scheme
 ======================
  
 Fit Set Quality     : GOOD
 Threshold Quality   : GOOD
 Integration Quality : GOOD
 Response Quality    : DEFAULT
 Is Range Separated  :  F
 
 RIHartreeFock Dependency: number of modified vectors:           5
 cosmo_calcen: 0.5 (esolb+esolc) (Hartrees) =   -0.069173

 Solvation energy (screening term,uncorrected) =    -43.406967 kcal/mol

 Solvation energy (dispersion and cavitation terms) =      0.961195 kcal/mol
 Solvation Energy Contributions (Hartrees)
          esola   esolb+esolc
     0.06917340   -0.13834680
 esol last cycle   -0.06917340
  
 Hartree-Fock exchange energy:   -528.297780302450     
 cosmo_calcen: 0.5 (esolb+esolc) (Hartrees) =   -0.069173

 Solvation energy (screening term,uncorrected) =    -43.406986 kcal/mol

 Solvation energy (dispersion and cavitation terms) =      0.961195 kcal/mol
 Solvation Energy Contributions (Hartrees)
          esola   esolb+esolc
     0.06917343   -0.13834686
 esol last cycle   -0.06917343

 Energy gradients wrt nuclear displacements
 ==========================================

     Atom      Cartesian (a.u./angstrom)
                 X         Y         Z
 ----------------------------------------
     1 Pa   -0.000925  0.003113  0.000432
     2 O    -0.000895 -0.000685  0.000176
     3 O     0.001570 -0.001274  0.000205
     4 Cl    0.000309 -0.000016  0.000129
     5 H    -0.000009  0.000375  0.000402
     6 O    -0.000125 -0.001402 -0.001380
     7 H     0.000039  0.000025 -0.000017
     8 H     0.000005  0.000020  0.000015
     9 H     0.000075 -0.000244  0.000206
    10 O    -0.000045  0.000087 -0.000168
 ----------------------------------------
 Mulliken charges used for AMS results%charges...

 dE(predicted):    -0.79367E-04, dE(actual):    -0.91180E-04, Trust radius:    0.200000, all in a.u.
 
----------------------------------------------------------------------
Geometry Convergence after Step   5       (Hartree/Angstrom,Angstrom)
----------------------------------------------------------------------
current energy                               -2.68692433 Hartree
energy change                      -0.00009118     0.00001000    F
constrained gradient max            0.00310573     0.00010000    F
constrained gradient rms            0.00082844     0.00006667    F
gradient max                        0.00310573
gradient rms                        0.00082844
cart. step max                      0.00452995     0.00100000    F
cart. step rms                      0.00202078     0.00066667    F
 
 
--------
Geometry
--------
Formula: H4ClO4Pa
Atoms
  Index Symbol   x (angstrom)   y (angstrom)   z (angstrom)
      1     Pa    -0.17769179     0.06648277     0.81138893       adf.R=2.200
      2      O     1.10030138     1.50101634    -0.12206989       adf.R=1.517
      3      O    -1.75544020     0.79684485    -0.35772627       adf.R=1.517
      4     Cl    -0.86540058     1.60374193     2.96226980       adf.R=1.725
      5      H    -1.86798646     1.57764462    -0.91722790       adf.R=1.350
      6      O     0.03671999    -1.64670021    -1.00897742       adf.R=1.517
      7      H    -0.40986867    -1.62496053    -1.86554774       adf.R=1.350
      8      H     0.72763497    -2.31992020    -1.06227258       adf.R=1.350
      9      H     2.05447140     1.58884525    -0.01003359       adf.R=1.350
     10      O     1.16881036    -0.86222561     1.69195832       adf.R=1.517
 
Total System Charge             0.00000
Bonding info available!
 
 *** GO1_GOStep6 ***

 SOLVATION
-------------------------------------------

  The Delley construction of COSMO surface surface is calculated

       Division Level for Surface Triangles (NDIV)                  3
       Final Division Level for Triangles (NFDIV)                   1
       Radius of the Solvent (RSOL)                           1.93000 angstr
  Dielectric Constant (EPSL)                                 78.39000

       COSMO equation is solved iteratively-               conjugate-gradient

       Maximun of Iterations for Charges (NCIX)                  1000
       Criterion for Charge convergence (CCNV)                1.0E-08

  COSMO charges included variationally in SCF

       COSMO included at every SCF cycle

  Geometry-dependent empirical factor                         0.00000

  C-Matrix calculated in cspmtx

  In cspmtx, C-Matrix calculated using fitted potential

-------------------------------------------



 -------------------------------------------
  COSMO surface
  Area             =          514.184
  Volume           =          827.846
  Number of Points =         1261
 -------------------------------------------



 ======================
 RI Hartree-Fock Scheme
 ======================
  
 Fit Set Quality     : GOOD
 Threshold Quality   : GOOD
 Integration Quality : GOOD
 Response Quality    : DEFAULT
 Is Range Separated  :  F
 
 RIHartreeFock Dependency: number of modified vectors:           5
 cosmo_calcen: 0.5 (esolb+esolc) (Hartrees) =   -0.069498

 Solvation energy (screening term,uncorrected) =    -43.610604 kcal/mol

 Solvation energy (dispersion and cavitation terms) =      0.961485 kcal/mol
 Solvation Energy Contributions (Hartrees)
          esola   esolb+esolc
     0.06949791   -0.13899583
 esol last cycle   -0.06949791
  
 Hartree-Fock exchange energy:   -528.295910103199     
 cosmo_calcen: 0.5 (esolb+esolc) (Hartrees) =   -0.069498

 Solvation energy (screening term,uncorrected) =    -43.610602 kcal/mol

 Solvation energy (dispersion and cavitation terms) =      0.961485 kcal/mol
 Solvation Energy Contributions (Hartrees)
          esola   esolb+esolc
     0.06949791   -0.13899582
 esol last cycle   -0.06949791

 Energy gradients wrt nuclear displacements
 ==========================================

     Atom      Cartesian (a.u./angstrom)
                 X         Y         Z
 ----------------------------------------
     1 Pa   -0.001560  0.002230 -0.000228
     2 O    -0.000277 -0.000139 -0.000083
     3 O     0.000835 -0.000696 -0.000126
     4 Cl    0.000042  0.000424  0.000616
     5 H    -0.000054  0.000292  0.000339
     6 O    -0.000047 -0.001330 -0.001372
     7 H     0.000039  0.000043  0.000000
     8 H    -0.000088  0.000012  0.000098
     9 H     0.000032 -0.000187  0.000137
    10 O     0.001079 -0.000649  0.000620
 ----------------------------------------
 Mulliken charges used for AMS results%charges...

 dE(predicted):    -0.88744E-05, dE(actual):    -0.15617E-04, Trust radius:    0.200000, all in a.u.
 
----------------------------------------------------------------------
Geometry Convergence after Step   6       (Hartree/Angstrom,Angstrom)
----------------------------------------------------------------------
current energy                               -2.68693995 Hartree
energy change                      -0.00001562     0.00001000    F
constrained gradient max            0.00222049     0.00010000    F
constrained gradient rms            0.00071166     0.00006667    F
gradient max                        0.00222049
gradient rms                        0.00071166
cart. step max                      0.00763330     0.00100000    F
cart. step rms                      0.00316183     0.00066667    F
 
 
--------
Geometry
--------
Formula: H4ClO4Pa
Atoms
  Index Symbol   x (angstrom)   y (angstrom)   z (angstrom)
      1     Pa    -0.17458658     0.06525074     0.81103874       adf.R=2.200
      2      O     1.10371689     1.50221001    -0.12115659       adf.R=1.517
      3      O    -1.75720132     0.80009556    -0.35193903       adf.R=1.517
      4     Cl    -0.87083144     1.60084727     2.96243015       adf.R=1.725
      5      H    -1.86592984     1.57157117    -0.92486120       adf.R=1.350
      6      O     0.03647312    -1.64428018    -1.00829125       adf.R=1.517
      7      H    -0.41523950    -1.62432253    -1.86223981       adf.R=1.350
      8      H     0.72665390    -2.31812668    -1.06400738       adf.R=1.350
      9      H     2.05810835     1.59158746    -0.01275073       adf.R=1.350
     10      O     1.17038682    -0.86406361     1.69353879       adf.R=1.517
 
Total System Charge             0.00000
Bonding info available!
 
 *** GO1_GOStep7 ***

 SOLVATION
-------------------------------------------

  The Delley construction of COSMO surface surface is calculated

       Division Level for Surface Triangles (NDIV)                  3
       Final Division Level for Triangles (NFDIV)                   1
       Radius of the Solvent (RSOL)                           1.93000 angstr
  Dielectric Constant (EPSL)                                 78.39000

       COSMO equation is solved iteratively-               conjugate-gradient

       Maximun of Iterations for Charges (NCIX)                  1000
       Criterion for Charge convergence (CCNV)                1.0E-08

  COSMO charges included variationally in SCF

       COSMO included at every SCF cycle

  Geometry-dependent empirical factor                         0.00000

  C-Matrix calculated in cspmtx

  In cspmtx, C-Matrix calculated using fitted potential

-------------------------------------------



 -------------------------------------------
  COSMO surface
  Area             =          514.372
  Volume           =          828.179
  Number of Points =         1263
 -------------------------------------------



 ======================
 RI Hartree-Fock Scheme
 ======================
  
 Fit Set Quality     : GOOD
 Threshold Quality   : GOOD
 Integration Quality : GOOD
 Response Quality    : DEFAULT
 Is Range Separated  :  F
 
 RIHartreeFock Dependency: number of modified vectors:           5
 cosmo_calcen: 0.5 (esolb+esolc) (Hartrees) =   -0.069812

 Solvation energy (screening term,uncorrected) =    -43.807553 kcal/mol

 Solvation energy (dispersion and cavitation terms) =      0.961835 kcal/mol
 Solvation Energy Contributions (Hartrees)
          esola   esolb+esolc
     0.06981177   -0.13962354
 esol last cycle   -0.06981177
  
 Hartree-Fock exchange energy:   -528.294724384311     
 cosmo_calcen: 0.5 (esolb+esolc) (Hartrees) =   -0.069812

 Solvation energy (screening term,uncorrected) =    -43.807555 kcal/mol

 Solvation energy (dispersion and cavitation terms) =      0.961835 kcal/mol
 Solvation Energy Contributions (Hartrees)
          esola   esolb+esolc
     0.06981178   -0.13962355
 esol last cycle   -0.06981178

 Energy gradients wrt nuclear displacements
 ==========================================

     Atom      Cartesian (a.u./angstrom)
                 X         Y         Z
 ----------------------------------------
     1 Pa   -0.001036  0.000511 -0.000190
     2 O     0.000409  0.000483 -0.000367
     3 O    -0.000260  0.000076 -0.000472
     4 Cl   -0.000198  0.000683  0.000769
     5 H    -0.000122  0.000172  0.000241
     6 O    -0.000111 -0.001023 -0.001015
     7 H     0.000040  0.000053  0.000015
     8 H    -0.000056 -0.000004  0.000088
     9 H     0.000008 -0.000112  0.000054
    10 O     0.001325 -0.000839  0.000877
 ----------------------------------------
 Mulliken charges used for AMS results%charges...

 dE(predicted):    -0.10133E-04, dE(actual):    -0.15693E-04, Trust radius:    0.200000, all in a.u.
 
----------------------------------------------------------------------
Geometry Convergence after Step   7       (Hartree/Angstrom,Angstrom)
----------------------------------------------------------------------
current energy                               -2.68695564 Hartree
energy change                      -0.00001569     0.00001000    F
constrained gradient max            0.00132265     0.00010000    F
constrained gradient rms            0.00053928     0.00006667    F
gradient max                        0.00132265
gradient rms                        0.00053928
cart. step max                      0.00781033     0.00100000    F
cart. step rms                      0.00271375     0.00066667    F
 
 
--------
Geometry
--------
Formula: H4ClO4Pa
Atoms
  Index Symbol   x (angstrom)   y (angstrom)   z (angstrom)
      1     Pa    -0.17290798     0.06473911     0.81158920       adf.R=2.200
      2      O     1.10509367     1.50288250    -0.12025060       adf.R=1.517
      3      O    -1.75774161     0.80220411    -0.34826154       adf.R=1.517
      4     Cl    -0.87313530     1.59740817     2.96333105       adf.R=1.725
      5      H    -1.86250960     1.56551482    -0.93267154       adf.R=1.350
      6      O     0.03634270    -1.64125105    -1.00710277       adf.R=1.517
      7      H    -0.42004529    -1.62325982    -1.85864493       adf.R=1.350
      8      H     0.72604736    -2.31543322    -1.06488909       adf.R=1.350
      9      H     2.05970359     1.59334563    -0.01502003       adf.R=1.350
     10      O     1.17070285    -0.86538106     1.69368193       adf.R=1.517
 
Total System Charge             0.00000
Bonding info available!
 
 *** GO1_GOStep8 ***

 SOLVATION
-------------------------------------------

  The Delley construction of COSMO surface surface is calculated

       Division Level for Surface Triangles (NDIV)                  3
       Final Division Level for Triangles (NFDIV)                   1
       Radius of the Solvent (RSOL)                           1.93000 angstr
  Dielectric Constant (EPSL)                                 78.39000

       COSMO equation is solved iteratively-               conjugate-gradient

       Maximun of Iterations for Charges (NCIX)                  1000
       Criterion for Charge convergence (CCNV)                1.0E-08

  COSMO charges included variationally in SCF

       COSMO included at every SCF cycle

  Geometry-dependent empirical factor                         0.00000

  C-Matrix calculated in cspmtx

  In cspmtx, C-Matrix calculated using fitted potential

-------------------------------------------



 -------------------------------------------
  COSMO surface
  Area             =          513.064
  Volume           =          826.115
  Number of Points =         1261
 -------------------------------------------



 ======================
 RI Hartree-Fock Scheme
 ======================
  
 Fit Set Quality     : GOOD
 Threshold Quality   : GOOD
 Integration Quality : GOOD
 Response Quality    : DEFAULT
 Is Range Separated  :  F
 
 RIHartreeFock Dependency: number of modified vectors:           5
 cosmo_calcen: 0.5 (esolb+esolc) (Hartrees) =   -0.069934

 Solvation energy (screening term,uncorrected) =    -43.884487 kcal/mol

 Solvation energy (dispersion and cavitation terms) =      0.959391 kcal/mol
 Solvation Energy Contributions (Hartrees)
          esola   esolb+esolc
     0.06993437   -0.13986875
 esol last cycle   -0.06993437
  
 Hartree-Fock exchange energy:   -528.295232102080     
 cosmo_calcen: 0.5 (esolb+esolc) (Hartrees) =   -0.069934

 Solvation energy (screening term,uncorrected) =    -43.884492 kcal/mol

 Solvation energy (dispersion and cavitation terms) =      0.959391 kcal/mol
 Solvation Energy Contributions (Hartrees)
          esola   esolb+esolc
     0.06993438   -0.13986876
 esol last cycle   -0.06993438

 Energy gradients wrt nuclear displacements
 ==========================================

     Atom      Cartesian (a.u./angstrom)
                 X         Y         Z
 ----------------------------------------
     1 Pa   -0.000036 -0.000735  0.000261
     2 O     0.000574  0.000632 -0.000425
     3 O    -0.000595  0.000454 -0.000512
     4 Cl   -0.000236  0.000619  0.000575
     5 H    -0.000148  0.000086  0.000174
     6 O    -0.000166 -0.000711 -0.000527
     7 H     0.000063  0.000078 -0.000058
     8 H    -0.000043  0.000007  0.000074
     9 H     0.000013 -0.000066  0.000017
    10 O     0.000573 -0.000364  0.000420
 ----------------------------------------
 Mulliken charges used for AMS results%charges...

 dE(predicted):    -0.53059E-05, dE(actual):    -0.11156E-04, Trust radius:    0.200000, all in a.u.
 
----------------------------------------------------------------------
Geometry Convergence after Step   8       (Hartree/Angstrom,Angstrom)
----------------------------------------------------------------------
current energy                               -2.68696680 Hartree
energy change                      -0.00001116     0.00001000    F
constrained gradient max            0.00074522     0.00010000    F
constrained gradient rms            0.00039246     0.00006667    F
gradient max                        0.00074522
gradient rms                        0.00039246
cart. step max                      0.01303813     0.00100000    F
cart. step rms                      0.00437659     0.00066667    F
 
 
--------
Geometry
--------
Formula: H4ClO4Pa
Atoms
  Index Symbol   x (angstrom)   y (angstrom)   z (angstrom)
      1     Pa    -0.17125723     0.06508079     0.81294827       adf.R=2.200
      2      O     1.10592888     1.50420861    -0.11839416       adf.R=1.517
      3      O    -1.75713335     0.80392315    -0.34530593       adf.R=1.517
      4     Cl    -0.87456582     1.59153864     2.96650388       adf.R=1.725
      5      H    -1.85572559     1.55553517    -0.94570967       adf.R=1.350
      6      O     0.03604713    -1.63583449    -1.00527029       adf.R=1.517
      7      H    -0.42870569    -1.62212361    -1.85236771       adf.R=1.350
      8      H     0.72493138    -2.31061443    -1.06609226       adf.R=1.350
      9      H     2.06085417     1.59575706    -0.01738396       adf.R=1.350
     10      O     1.17117652    -0.86670168     1.69283351       adf.R=1.517
 
Total System Charge             0.00000
Bonding info available!
 
 *** GO1_GOStep9 ***

 SOLVATION
-------------------------------------------

  The Delley construction of COSMO surface surface is calculated

       Division Level for Surface Triangles (NDIV)                  3
       Final Division Level for Triangles (NFDIV)                   1
       Radius of the Solvent (RSOL)                           1.93000 angstr
  Dielectric Constant (EPSL)                                 78.39000

       COSMO equation is solved iteratively-               conjugate-gradient

       Maximun of Iterations for Charges (NCIX)                  1000
       Criterion for Charge convergence (CCNV)                1.0E-08

  COSMO charges included variationally in SCF

       COSMO included at every SCF cycle

  Geometry-dependent empirical factor                         0.00000

  C-Matrix calculated in cspmtx

  In cspmtx, C-Matrix calculated using fitted potential

-------------------------------------------



 -------------------------------------------
  COSMO surface
  Area             =          512.482
  Volume           =          825.274
  Number of Points =         1257
 -------------------------------------------



 ======================
 RI Hartree-Fock Scheme
 ======================
  
 Fit Set Quality     : GOOD
 Threshold Quality   : GOOD
 Integration Quality : GOOD
 Response Quality    : DEFAULT
 Is Range Separated  :  F
 
 RIHartreeFock Dependency: number of modified vectors:           5
 cosmo_calcen: 0.5 (esolb+esolc) (Hartrees) =   -0.070018

 Solvation energy (screening term,uncorrected) =    -43.936953 kcal/mol

 Solvation energy (dispersion and cavitation terms) =      0.958302 kcal/mol
 Solvation Energy Contributions (Hartrees)
          esola   esolb+esolc
     0.07001798   -0.14003597
 esol last cycle   -0.07001798
  
 Hartree-Fock exchange energy:   -528.296607780991     
 cosmo_calcen: 0.5 (esolb+esolc) (Hartrees) =   -0.070018

 Solvation energy (screening term,uncorrected) =    -43.936960 kcal/mol

 Solvation energy (dispersion and cavitation terms) =      0.958302 kcal/mol
 Solvation Energy Contributions (Hartrees)
          esola   esolb+esolc
     0.07001799   -0.14003599
 esol last cycle   -0.07001799

 Energy gradients wrt nuclear displacements
 ==========================================

     Atom      Cartesian (a.u./angstrom)
                 X         Y         Z
 ----------------------------------------
     1 Pa    0.001169 -0.001778  0.000704
     2 O     0.000488  0.000522 -0.000323
     3 O    -0.000592  0.000627 -0.000355
     4 Cl   -0.000171  0.000382  0.000204
     5 H    -0.000142  0.000027  0.000081
     6 O    -0.000211 -0.000216  0.000020
     7 H     0.000049  0.000083 -0.000043
     8 H    -0.000018  0.000016  0.000072
     9 H     0.000018 -0.000032 -0.000028
    10 O    -0.000590  0.000370 -0.000333
 ----------------------------------------
 Mulliken charges used for AMS results%charges...

 dE(predicted):    -0.57706E-05, dE(actual):    -0.21225E-05, Trust radius:    0.200000, all in a.u.
 
----------------------------------------------------------------------
Geometry Convergence after Step   9       (Hartree/Angstrom,Angstrom)
----------------------------------------------------------------------
current energy                               -2.68696892 Hartree
energy change                      -0.00000212     0.00001000    T
constrained gradient max            0.00178715     0.00010000    F
constrained gradient rms            0.00049755     0.00006667    F
gradient max                        0.00178715
gradient rms                        0.00049755
cart. step max                      0.00888893     0.00100000    F
cart. step rms                      0.00301973     0.00066667    F
 
 
--------
Geometry
--------
Formula: H4ClO4Pa
Atoms
  Index Symbol   x (angstrom)   y (angstrom)   z (angstrom)
      1     Pa    -0.17095604     0.06621312     0.81420978       adf.R=2.200
      2      O     1.10564577     1.50525111    -0.11691116       adf.R=1.517
      3      O    -1.75593320     0.80355121    -0.34551243       adf.R=1.517
      4     Cl    -0.87382789     1.58778079     2.96990981       adf.R=1.725
      5      H    -1.85055371     1.54868070    -0.95459859       adf.R=1.350
      6      O     0.03565397    -1.63195415    -1.00424450       adf.R=1.517
      7      H    -0.43479499    -1.62151064    -1.84825309       adf.R=1.350
      8      H     0.72384418    -2.30728417    -1.06684100       adf.R=1.350
      9      H     2.06075370     1.59701123    -0.01786084       adf.R=1.350
     10      O     1.17171859    -0.86696998     1.69186370       adf.R=1.517
 
Total System Charge             0.00000
Bonding info available!
 
 *** GO1_GOStep10 ***

 SOLVATION
-------------------------------------------

  The Delley construction of COSMO surface surface is calculated

       Division Level for Surface Triangles (NDIV)                  3
       Final Division Level for Triangles (NFDIV)                   1
       Radius of the Solvent (RSOL)                           1.93000 angstr
  Dielectric Constant (EPSL)                                 78.39000

       COSMO equation is solved iteratively-               conjugate-gradient

       Maximun of Iterations for Charges (NCIX)                  1000
       Criterion for Charge convergence (CCNV)                1.0E-08

  COSMO charges included variationally in SCF

       COSMO included at every SCF cycle

  Geometry-dependent empirical factor                         0.00000

  C-Matrix calculated in cspmtx

  In cspmtx, C-Matrix calculated using fitted potential

-------------------------------------------



 -------------------------------------------
  COSMO surface
  Area             =          512.713
  Volume           =          825.118
  Number of Points =         1257
 -------------------------------------------



 ======================
 RI Hartree-Fock Scheme
 ======================
  
 Fit Set Quality     : GOOD
 Threshold Quality   : GOOD
 Integration Quality : GOOD
 Response Quality    : DEFAULT
 Is Range Separated  :  F
 
 RIHartreeFock Dependency: number of modified vectors:           5
 cosmo_calcen: 0.5 (esolb+esolc) (Hartrees) =   -0.070006

 Solvation energy (screening term,uncorrected) =    -43.929508 kcal/mol

 Solvation energy (dispersion and cavitation terms) =      0.958734 kcal/mol
 Solvation Energy Contributions (Hartrees)
          esola   esolb+esolc
     0.07000612   -0.14001224
 esol last cycle   -0.07000612
  
 Hartree-Fock exchange energy:   -528.297471644515     
 cosmo_calcen: 0.5 (esolb+esolc) (Hartrees) =   -0.070006

 Solvation energy (screening term,uncorrected) =    -43.929513 kcal/mol

 Solvation energy (dispersion and cavitation terms) =      0.958734 kcal/mol
 Solvation Energy Contributions (Hartrees)
          esola   esolb+esolc
     0.07000613   -0.14001226
 esol last cycle   -0.07000613

 Energy gradients wrt nuclear displacements
 ==========================================

     Atom      Cartesian (a.u./angstrom)
                 X         Y         Z
 ----------------------------------------
     1 Pa    0.001249 -0.001601  0.000573
     2 O     0.000243  0.000268 -0.000168
     3 O    -0.000256  0.000434 -0.000087
     4 Cl   -0.000052  0.000195 -0.000021
     5 H    -0.000091  0.000007  0.000011
     6 O    -0.000221  0.000053  0.000320
     7 H     0.000027  0.000077 -0.000068
     8 H    -0.000009  0.000020  0.000057
     9 H     0.000040 -0.000029 -0.000034
    10 O    -0.000930  0.000576 -0.000583
 ----------------------------------------
 Mulliken charges used for AMS results%charges...

 dE(predicted):    -0.27487E-05, dE(actual):     0.23581E-05, Trust radius:    0.020000, all in a.u.
 
----------------------------------------------------------------------
Geometry Convergence after Step  10       (Hartree/Angstrom,Angstrom)
----------------------------------------------------------------------
current energy                               -2.68696656 Hartree
energy change                       0.00000236     0.00001000    T
constrained gradient max            0.00161144     0.00010000    F
constrained gradient rms            0.00046909     0.00006667    F
gradient max                        0.00161144
gradient rms                        0.00046909
cart. step max                      0.00645525     0.00100000    F
cart. step rms                      0.00250304     0.00066667    F
 
 
--------
Geometry
--------
Formula: H4ClO4Pa
Atoms
  Index Symbol   x (angstrom)   y (angstrom)   z (angstrom)
      1     Pa    -0.17118830     0.06803899     0.81522032       adf.R=2.200
      2      O     1.10491350     1.50655905    -0.11569800       adf.R=1.517
      3      O    -1.75418842     0.80214478    -0.34791330       adf.R=1.517
      4     Cl    -0.87258106     1.58422989     2.97368257       adf.R=1.725
      5      H    -1.84600329     1.54433285    -0.96105384       adf.R=1.350
      6      O     0.03528276    -1.62909657    -1.00373165       adf.R=1.517
      7      H    -0.44016389    -1.62204747    -1.84495076       adf.R=1.350
      8      H     0.72254071    -2.30527651    -1.06730753       adf.R=1.350
      9      H     2.06011688     1.59808731    -0.01728558       adf.R=1.350
     10      O     1.17282150    -0.86620311     1.69079945       adf.R=1.517
 
Total System Charge             0.00000
Bonding info available!
 
 *** GO1_GOStep11 ***

 SOLVATION
-------------------------------------------

  The Delley construction of COSMO surface surface is calculated

       Division Level for Surface Triangles (NDIV)                  3
       Final Division Level for Triangles (NFDIV)                   1
       Radius of the Solvent (RSOL)                           1.93000 angstr
  Dielectric Constant (EPSL)                                 78.39000

       COSMO equation is solved iteratively-               conjugate-gradient

       Maximun of Iterations for Charges (NCIX)                  1000
       Criterion for Charge convergence (CCNV)                1.0E-08

  COSMO charges included variationally in SCF

       COSMO included at every SCF cycle

  Geometry-dependent empirical factor                         0.00000

  C-Matrix calculated in cspmtx

  In cspmtx, C-Matrix calculated using fitted potential

-------------------------------------------



 -------------------------------------------
  COSMO surface
  Area             =          513.795
  Volume           =          826.081
  Number of Points =         1262
 -------------------------------------------



 ======================
 RI Hartree-Fock Scheme
 ======================
  
 Fit Set Quality     : GOOD
 Threshold Quality   : GOOD
 Integration Quality : GOOD
 Response Quality    : DEFAULT
 Is Range Separated  :  F
 
 RIHartreeFock Dependency: number of modified vectors:           5
 cosmo_calcen: 0.5 (esolb+esolc) (Hartrees) =   -0.069933

 Solvation energy (screening term,uncorrected) =    -43.883902 kcal/mol

 Solvation energy (dispersion and cavitation terms) =      0.960756 kcal/mol
 Solvation Energy Contributions (Hartrees)
          esola   esolb+esolc
     0.06993344   -0.13986688
 esol last cycle   -0.06993344
  
 Hartree-Fock exchange energy:   -528.297830836035     
 cosmo_calcen: 0.5 (esolb+esolc) (Hartrees) =   -0.069933

 Solvation energy (screening term,uncorrected) =    -43.883903 kcal/mol

 Solvation energy (dispersion and cavitation terms) =      0.960756 kcal/mol
 Solvation Energy Contributions (Hartrees)
          esola   esolb+esolc
     0.06993344   -0.13986689
 esol last cycle   -0.06993344

 Energy gradients wrt nuclear displacements
 ==========================================

     Atom      Cartesian (a.u./angstrom)
                 X         Y         Z
 ----------------------------------------
     1 Pa    0.000565 -0.000640  0.000172
     2 O    -0.000033 -0.000053 -0.000005
     3 O     0.000198  0.000069  0.000146
     4 Cl    0.000093 -0.000003 -0.000170
     5 H    -0.000024  0.000019 -0.000017
     6 O    -0.000242  0.000248  0.000353
     7 H     0.000021  0.000045 -0.000065
     8 H    -0.000016 -0.000003  0.000036
     9 H     0.000049 -0.000040 -0.000029
    10 O    -0.000610  0.000357 -0.000420
 ----------------------------------------
 Mulliken charges used for AMS results%charges...

 dE(predicted):    -0.25687E-05, dE(actual):     0.34570E-05, Trust radius:    0.020000, all in a.u.
 
----------------------------------------------------------------------
Geometry Convergence after Step  11       (Hartree/Angstrom,Angstrom)
----------------------------------------------------------------------
current energy                               -2.68696310 Hartree
energy change                       0.00000346     0.00001000    T
constrained gradient max            0.00064810     0.00010000    F
constrained gradient rms            0.00024273     0.00006667    F
gradient max                        0.00064810
gradient rms                        0.00024273
cart. step max                      0.00273504     0.00100000    F
cart. step rms                      0.00113310     0.00066667    F
 
 
--------
Geometry
--------
Formula: H4ClO4Pa
Atoms
  Index Symbol   x (angstrom)   y (angstrom)   z (angstrom)
      1     Pa    -0.17106947     0.06913591     0.81502475       adf.R=2.200
      2      O     1.10490818     1.50777258    -0.11525531       adf.R=1.517
      3      O    -1.75327632     0.80182916    -0.34963397       adf.R=1.517
      4     Cl    -0.87285044     1.58210369     2.97561473       adf.R=1.725
      5      H    -1.84436704     1.54412309    -0.96277475       adf.R=1.350
      6      O     0.03524150    -1.62876606    -1.00381921       adf.R=1.517
      7      H    -0.44289893    -1.62383994    -1.84350497       adf.R=1.350
      8      H     0.72186352    -2.30555533    -1.06755879       adf.R=1.350
      9      H     2.06010012     1.59915361    -0.01655705       adf.R=1.350
     10      O     1.17389927    -0.86518750     1.69022625       adf.R=1.517
 
Total System Charge             0.00000
Bonding info available!
 
 *** GO1_GOStep12 ***

 SOLVATION
-------------------------------------------

  The Delley construction of COSMO surface surface is calculated

       Division Level for Surface Triangles (NDIV)                  3
       Final Division Level for Triangles (NFDIV)                   1
       Radius of the Solvent (RSOL)                           1.93000 angstr
  Dielectric Constant (EPSL)                                 78.39000

       COSMO equation is solved iteratively-               conjugate-gradient

       Maximun of Iterations for Charges (NCIX)                  1000
       Criterion for Charge convergence (CCNV)                1.0E-08

  COSMO charges included variationally in SCF

       COSMO included at every SCF cycle

  Geometry-dependent empirical factor                         0.00000

  C-Matrix calculated in cspmtx

  In cspmtx, C-Matrix calculated using fitted potential

-------------------------------------------



 -------------------------------------------
  COSMO surface
  Area             =          515.018
  Volume           =          828.184
  Number of Points =         1263
 -------------------------------------------



 ======================
 RI Hartree-Fock Scheme
 ======================
  
 Fit Set Quality     : GOOD
 Threshold Quality   : GOOD
 Integration Quality : GOOD
 Response Quality    : DEFAULT
 Is Range Separated  :  F
 
 RIHartreeFock Dependency: number of modified vectors:           5
 cosmo_calcen: 0.5 (esolb+esolc) (Hartrees) =   -0.069916

 Solvation energy (screening term,uncorrected) =    -43.873111 kcal/mol

 Solvation energy (dispersion and cavitation terms) =      0.963044 kcal/mol
 Solvation Energy Contributions (Hartrees)
          esola   esolb+esolc
     0.06991625   -0.13983249
 esol last cycle   -0.06991625
  
 Hartree-Fock exchange energy:   -528.297515999134     
 cosmo_calcen: 0.5 (esolb+esolc) (Hartrees) =   -0.069916

 Solvation energy (screening term,uncorrected) =    -43.873111 kcal/mol

 Solvation energy (dispersion and cavitation terms) =      0.963044 kcal/mol
 Solvation Energy Contributions (Hartrees)
          esola   esolb+esolc
     0.06991625   -0.13983249
 esol last cycle   -0.06991625

 Energy gradients wrt nuclear displacements
 ==========================================

     Atom      Cartesian (a.u./angstrom)
                 X         Y         Z
 ----------------------------------------
     1 Pa   -0.000069  0.000021 -0.000176
     2 O    -0.000089 -0.000152  0.000012
     3 O     0.000311 -0.000064  0.000154
     4 Cl    0.000132 -0.000035 -0.000102
     5 H     0.000000  0.000032 -0.000005
     6 O    -0.000217  0.000193  0.000257
     7 H     0.000011  0.000030 -0.000043
     8 H    -0.000024  0.000004  0.000027
     9 H     0.000047 -0.000054 -0.000019
    10 O    -0.000101  0.000025 -0.000104
 ----------------------------------------
 Mulliken charges used for AMS results%charges...
 
----------------------------------------------------------------------
Geometry Convergence after Step  12       (Hartree/Angstrom,Angstrom)
----------------------------------------------------------------------
current energy                               -2.68696233 Hartree
energy change                       0.00000077     0.00001000    T
constrained gradient max            0.00029468     0.00010000    F
constrained gradient rms            0.00011110     0.00006667    F
gradient max                        0.00029468
gradient rms                        0.00011110
cart. step max                      0.00270021     0.00100000    F
cart. step rms                      0.00109443     0.00066667    F
 
 
--------
Geometry
--------
Formula: H4ClO4Pa
Atoms
  Index Symbol   x (angstrom)   y (angstrom)   z (angstrom)
      1     Pa    -0.17032475     0.06979159     0.81441358       adf.R=2.200
      2      O     1.10551693     1.50923718    -0.11477148       adf.R=1.517
      3      O    -1.75264267     0.80217183    -0.35044569       adf.R=1.517
      4     Cl    -0.87428085     1.58018892     2.97660266       adf.R=1.725
      5      H    -1.84336228     1.54449043    -0.96361867       adf.R=1.350
      6      O     0.03535400    -1.62895773    -1.00416609       adf.R=1.517
      7      H    -0.44559914    -1.62609253    -1.84223912       adf.R=1.350
      8      H     0.72108649    -2.30661919    -1.06803251       adf.R=1.350
      9      H     2.06067007     1.60077594    -0.01587000       adf.R=1.350
     10      O     1.17513260    -0.86421724     1.68988901       adf.R=1.517
 
Total System Charge             0.00000
Bonding info available!
 
 *** GO1_GOStep13 ***

 SOLVATION
-------------------------------------------

  The Delley construction of COSMO surface surface is calculated

       Division Level for Surface Triangles (NDIV)                  3
       Final Division Level for Triangles (NFDIV)                   1
       Radius of the Solvent (RSOL)                           1.93000 angstr
  Dielectric Constant (EPSL)                                 78.39000

       COSMO equation is solved iteratively-               conjugate-gradient

       Maximun of Iterations for Charges (NCIX)                  1000
       Criterion for Charge convergence (CCNV)                1.0E-08

  COSMO charges included variationally in SCF

       COSMO included at every SCF cycle

  Geometry-dependent empirical factor                         0.00000

  C-Matrix calculated in cspmtx

  In cspmtx, C-Matrix calculated using fitted potential

-------------------------------------------



 -------------------------------------------
  COSMO surface
  Area             =          514.446
  Volume           =          827.064
  Number of Points =         1263
 -------------------------------------------



 ======================
 RI Hartree-Fock Scheme
 ======================
  
 Fit Set Quality     : GOOD
 Threshold Quality   : GOOD
 Integration Quality : GOOD
 Response Quality    : DEFAULT
 Is Range Separated  :  F
 
 RIHartreeFock Dependency: number of modified vectors:           5
 cosmo_calcen: 0.5 (esolb+esolc) (Hartrees) =   -0.069931

 Solvation energy (screening term,uncorrected) =    -43.882302 kcal/mol

 Solvation energy (dispersion and cavitation terms) =      0.961974 kcal/mol
 Solvation Energy Contributions (Hartrees)
          esola   esolb+esolc
     0.06993089   -0.13986178
 esol last cycle   -0.06993089
  
 Hartree-Fock exchange energy:   -528.297128927217     
 cosmo_calcen: 0.5 (esolb+esolc) (Hartrees) =   -0.069931

 Solvation energy (screening term,uncorrected) =    -43.882302 kcal/mol

 Solvation energy (dispersion and cavitation terms) =      0.961974 kcal/mol
 Solvation Energy Contributions (Hartrees)
          esola   esolb+esolc
     0.06993089   -0.13986178
 esol last cycle   -0.06993089

 Energy gradients wrt nuclear displacements
 ==========================================

     Atom      Cartesian (a.u./angstrom)
                 X         Y         Z
 ----------------------------------------
     1 Pa   -0.000355  0.000181 -0.000365
     2 O    -0.000033 -0.000123 -0.000001
     3 O     0.000236 -0.000038  0.000103
     4 Cl    0.000093  0.000040  0.000006
     5 H     0.000005  0.000032 -0.000007
     6 O    -0.000194  0.000116  0.000166
     7 H     0.000000  0.000029 -0.000026
     8 H    -0.000030  0.000010  0.000024
     9 H     0.000040 -0.000055 -0.000025
    10 O     0.000236 -0.000191  0.000123
 ----------------------------------------
 Mulliken charges used for AMS results%charges...
 
----------------------------------------------------------------------
Geometry Convergence after Step  13       (Hartree/Angstrom,Angstrom)
----------------------------------------------------------------------
current energy                               -2.68696158 Hartree
energy change                       0.00000075     0.00001000    T
constrained gradient max            0.00036625     0.00010000    F
constrained gradient rms            0.00013513     0.00006667    F
gradient max                        0.00036625
gradient rms                        0.00013513
cart. step max                      0.00605478     0.00100000    F
cart. step rms                      0.00255093     0.00066667    F
 
 
--------
Geometry
--------
Formula: H4ClO4Pa
Atoms
  Index Symbol   x (angstrom)   y (angstrom)   z (angstrom)
      1     Pa    -0.16846678     0.07129865     0.81289635       adf.R=2.200
      2      O     1.10699526     1.51277517    -0.11371708       adf.R=1.517
      3      O    -1.75126364     0.80320394    -0.35211990       adf.R=1.517
      4     Cl    -0.87751771     1.57534150     2.97820295       adf.R=1.725
      5      H    -1.84123558     1.54575631    -0.96512816       adf.R=1.350
      6      O     0.03583649    -1.62945720    -1.00492652       adf.R=1.517
      7      H    -0.45165392    -1.63152391    -1.83918876       adf.R=1.350
      8      H     0.71926251    -2.30940456    -1.06883729       adf.R=1.350
      9      H     2.06204155     1.60478906    -0.01425936       adf.R=1.350
     10      O     1.17755220    -0.86200975     1.68883946       adf.R=1.517
 
Total System Charge             0.00000
Bonding info available!
 
 *** GO1_GOStep14 ***

 SOLVATION
-------------------------------------------

  The Delley construction of COSMO surface surface is calculated

       Division Level for Surface Triangles (NDIV)                  3
       Final Division Level for Triangles (NFDIV)                   1
       Radius of the Solvent (RSOL)                           1.93000 angstr
  Dielectric Constant (EPSL)                                 78.39000

       COSMO equation is solved iteratively-               conjugate-gradient

       Maximun of Iterations for Charges (NCIX)                  1000
       Criterion for Charge convergence (CCNV)                1.0E-08

  COSMO charges included variationally in SCF

       COSMO included at every SCF cycle

  Geometry-dependent empirical factor                         0.00000

  C-Matrix calculated in cspmtx

  In cspmtx, C-Matrix calculated using fitted potential

-------------------------------------------



 -------------------------------------------
  COSMO surface
  Area             =          515.176
  Volume           =          828.125
  Number of Points =         1268
 -------------------------------------------



 ======================
 RI Hartree-Fock Scheme
 ======================
  
 Fit Set Quality     : GOOD
 Threshold Quality   : GOOD
 Integration Quality : GOOD
 Response Quality    : DEFAULT
 Is Range Separated  :  F
 
 RIHartreeFock Dependency: number of modified vectors:           5
 cosmo_calcen: 0.5 (esolb+esolc) (Hartrees) =   -0.069921

 Solvation energy (screening term,uncorrected) =    -43.876313 kcal/mol

 Solvation energy (dispersion and cavitation terms) =      0.963339 kcal/mol
 Solvation Energy Contributions (Hartrees)
          esola   esolb+esolc
     0.06992135   -0.13984270
 esol last cycle   -0.06992135
  
 Hartree-Fock exchange energy:   -528.296666337481     
 cosmo_calcen: 0.5 (esolb+esolc) (Hartrees) =   -0.069921

 Solvation energy (screening term,uncorrected) =    -43.876314 kcal/mol

 Solvation energy (dispersion and cavitation terms) =      0.963339 kcal/mol
 Solvation Energy Contributions (Hartrees)
          esola   esolb+esolc
     0.06992135   -0.13984270
 esol last cycle   -0.06992135

 Energy gradients wrt nuclear displacements
 ==========================================

     Atom      Cartesian (a.u./angstrom)
                 X         Y         Z
 ----------------------------------------
     1 Pa   -0.000611  0.000407 -0.000444
     2 O     0.000060 -0.000080 -0.000025
     3 O     0.000071  0.000008 -0.000011
     4 Cl    0.000066  0.000081  0.000119
     5 H     0.000018  0.000031  0.000006
     6 O    -0.000055 -0.000004 -0.000063
     7 H    -0.000052  0.000094  0.000096
     8 H    -0.000085 -0.000085 -0.000002
     9 H     0.000029 -0.000057 -0.000033
    10 O     0.000559 -0.000395  0.000358
 ----------------------------------------
 Mulliken charges used for AMS results%charges...

 dE(predicted):    -0.69098E-06, dE(actual):     0.12793E-05, Trust radius:    0.020000, all in a.u.
 
----------------------------------------------------------------------
Geometry Convergence after Step  14       (Hartree/Angstrom,Angstrom)
----------------------------------------------------------------------
current energy                               -2.68696030 Hartree
energy change                       0.00000128     0.00001000    T
constrained gradient max            0.00061945     0.00010000    F
constrained gradient rms            0.00021461     0.00006667    F
gradient max                        0.00061945
gradient rms                        0.00021461
cart. step max                      0.00142752     0.00100000    F
cart. step rms                      0.00052549     0.00066667    T
 
 
--------
Geometry
--------
Formula: H4ClO4Pa
Atoms
  Index Symbol   x (angstrom)   y (angstrom)   z (angstrom)
      1     Pa    -0.16824512     0.07121587     0.81248333       adf.R=2.200
      2      O     1.10721597     1.51310715    -0.11373069       adf.R=1.517
      3      O    -1.75132949     0.80375105    -0.35199721       adf.R=1.517
      4     Cl    -0.87805466     1.57509292     2.97749161       adf.R=1.725
      5      H    -1.84155885     1.54714513    -0.96394824       adf.R=1.350
      6      O     0.03599765    -1.63014359    -1.00509539       adf.R=1.517
      7      H    -0.45184143    -1.63295143    -1.83919229       adf.R=1.350
      8      H     0.71964533    -2.30984297    -1.06889396       adf.R=1.350
      9      H     2.06223085     1.60518876    -0.01399320       adf.R=1.350
     10      O     1.17749015    -0.86179370     1.68863772       adf.R=1.517
 
Total System Charge             0.00000
Bonding info available!
 
 *** GO1_GOStep15 ***

 SOLVATION
-------------------------------------------

  The Delley construction of COSMO surface surface is calculated

       Division Level for Surface Triangles (NDIV)                  3
       Final Division Level for Triangles (NFDIV)                   1
       Radius of the Solvent (RSOL)                           1.93000 angstr
  Dielectric Constant (EPSL)                                 78.39000

       COSMO equation is solved iteratively-               conjugate-gradient

       Maximun of Iterations for Charges (NCIX)                  1000
       Criterion for Charge convergence (CCNV)                1.0E-08

  COSMO charges included variationally in SCF

       COSMO included at every SCF cycle

  Geometry-dependent empirical factor                         0.00000

  C-Matrix calculated in cspmtx

  In cspmtx, C-Matrix calculated using fitted potential

-------------------------------------------



 -------------------------------------------
  COSMO surface
  Area             =          515.294
  Volume           =          828.221
  Number of Points =         1269
 -------------------------------------------



 ======================
 RI Hartree-Fock Scheme
 ======================
  
 Fit Set Quality     : GOOD
 Threshold Quality   : GOOD
 Integration Quality : GOOD
 Response Quality    : DEFAULT
 Is Range Separated  :  F
 
 RIHartreeFock Dependency: number of modified vectors:           5
 cosmo_calcen: 0.5 (esolb+esolc) (Hartrees) =   -0.069905

 Solvation energy (screening term,uncorrected) =    -43.865964 kcal/mol

 Solvation energy (dispersion and cavitation terms) =      0.963560 kcal/mol
 Solvation Energy Contributions (Hartrees)
          esola   esolb+esolc
     0.06990486   -0.13980971
 esol last cycle   -0.06990486
  
 Hartree-Fock exchange energy:   -528.296773745779     
 cosmo_calcen: 0.5 (esolb+esolc) (Hartrees) =   -0.069905

 Solvation energy (screening term,uncorrected) =    -43.865966 kcal/mol

 Solvation energy (dispersion and cavitation terms) =      0.963560 kcal/mol
 Solvation Energy Contributions (Hartrees)
          esola   esolb+esolc
     0.06990486   -0.13980972
 esol last cycle   -0.06990486

 Energy gradients wrt nuclear displacements
 ==========================================

     Atom      Cartesian (a.u./angstrom)
                 X         Y         Z
 ----------------------------------------
     1 Pa   -0.000344  0.000225 -0.000222
     2 O     0.000071 -0.000053 -0.000037
     3 O     0.000008  0.000053 -0.000031
     4 Cl    0.000062  0.000071  0.000085
     5 H     0.000012  0.000034  0.000004
     6 O     0.000003 -0.000067 -0.000027
     7 H    -0.000081  0.000083  0.000038
     8 H    -0.000109 -0.000042 -0.000005
     9 H     0.000037 -0.000056 -0.000032
    10 O     0.000341 -0.000249  0.000227
 ----------------------------------------
 Mulliken charges used for AMS results%charges...

 dE(predicted):    -0.21492E-06, dE(actual):    -0.13660E-05, Trust radius:    0.020000, all in a.u.
 
----------------------------------------------------------------------
Geometry Convergence after Step  15       (Hartree/Angstrom,Angstrom)
----------------------------------------------------------------------
current energy                               -2.68696167 Hartree
energy change                      -0.00000137     0.00001000    T
constrained gradient max            0.00035157     0.00010000    F
constrained gradient rms            0.00012623     0.00006667    F
gradient max                        0.00035157
gradient rms                        0.00012623
cart. step max                      0.00352135     0.00100000    F
cart. step rms                      0.00110588     0.00066667    F
 
 
--------
Geometry
--------
Formula: H4ClO4Pa
Atoms
  Index Symbol   x (angstrom)   y (angstrom)   z (angstrom)
      1     Pa    -0.16774121     0.07129692     0.81157596       adf.R=2.200
      2      O     1.10751196     1.51426784    -0.11349135       adf.R=1.517
      3      O    -1.75107921     0.80490199    -0.35213112       adf.R=1.517
      4     Cl    -0.87917070     1.57379488     2.97666768       adf.R=1.725
      5      H    -1.84129621     1.54963770    -0.96245562       adf.R=1.350
      6      O     0.03621575    -1.63127425    -1.00538647       adf.R=1.517
      7      H    -0.45320050    -1.63647278    -1.83856969       adf.R=1.350
      8      H     0.72016511    -2.31068407    -1.06892784       adf.R=1.350
      9      H     2.06246118     1.60655003    -0.01326579       adf.R=1.350
     10      O     1.17768422    -0.86124905     1.68774592       adf.R=1.517
 
Total System Charge             0.00000
Bonding info available!
 
 *** GO1_GOStep16 ***

 SOLVATION
-------------------------------------------

  The Delley construction of COSMO surface surface is calculated

       Division Level for Surface Triangles (NDIV)                  3
       Final Division Level for Triangles (NFDIV)                   1
       Radius of the Solvent (RSOL)                           1.93000 angstr
  Dielectric Constant (EPSL)                                 78.39000

       COSMO equation is solved iteratively-               conjugate-gradient

       Maximun of Iterations for Charges (NCIX)                  1000
       Criterion for Charge convergence (CCNV)                1.0E-08

  COSMO charges included variationally in SCF

       COSMO included at every SCF cycle

  Geometry-dependent empirical factor                         0.00000

  C-Matrix calculated in cspmtx

  In cspmtx, C-Matrix calculated using fitted potential

-------------------------------------------



 -------------------------------------------
  COSMO surface
  Area             =          515.315
  Volume           =          828.201
  Number of Points =         1270
 -------------------------------------------



 ======================
 RI Hartree-Fock Scheme
 ======================
  
 Fit Set Quality     : GOOD
 Threshold Quality   : GOOD
 Integration Quality : GOOD
 Response Quality    : DEFAULT
 Is Range Separated  :  F
 
 RIHartreeFock Dependency: number of modified vectors:           5
 cosmo_calcen: 0.5 (esolb+esolc) (Hartrees) =   -0.069871

 Solvation energy (screening term,uncorrected) =    -43.844854 kcal/mol

 Solvation energy (dispersion and cavitation terms) =      0.963599 kcal/mol
 Solvation Energy Contributions (Hartrees)
          esola   esolb+esolc
     0.06987121   -0.13974243
 esol last cycle   -0.06987121
  
 Hartree-Fock exchange energy:   -528.297053846626     
 cosmo_calcen: 0.5 (esolb+esolc) (Hartrees) =   -0.069871

 Solvation energy (screening term,uncorrected) =    -43.844857 kcal/mol

 Solvation energy (dispersion and cavitation terms) =      0.963599 kcal/mol
 Solvation Energy Contributions (Hartrees)
          esola   esolb+esolc
     0.06987122   -0.13974244
 esol last cycle   -0.06987122

 Energy gradients wrt nuclear displacements
 ==========================================

     Atom      Cartesian (a.u./angstrom)
                 X         Y         Z
 ----------------------------------------
     1 Pa    0.000106 -0.000024  0.000125
     2 O     0.000058 -0.000038 -0.000034
     3 O    -0.000044  0.000096 -0.000039
     4 Cl    0.000064  0.000043  0.000017
     5 H     0.000009  0.000043  0.000005
     6 O     0.000025 -0.000098 -0.000008
[...]
    30          3833.7534             268.4710

 Zero-point energy (Hartree):     0.0503

 ------------
 Normal Modes
 ------------

 Number of removed rigid normal modes: 6
 
 Mode:     7      Frequency (cm-1):       31.2673     Intensity (km/mol):        0.3693
 Index  Atom      ---- Displacements (x/y/z) ----
     1    Pa      -0.033898  -0.036154   0.020613
     2     O      -0.039816  -0.028467   0.029689
     3     O      -0.044904  -0.046052   0.027823
     4    Cl       0.132361   0.164009  -0.061774
     5     H      -0.079882  -0.023200   0.060986
     6     O       0.284330   0.240261  -0.213396
     7     H       0.371508   0.341826  -0.265751
     8     H       0.417813   0.383232  -0.303597
     9     H      -0.038351  -0.028575   0.016458
    10     O      -0.041631  -0.044514   0.024193
 
 Mode:     8      Frequency (cm-1):       77.8043     Intensity (km/mol):        1.1944
 Index  Atom      ---- Displacements (x/y/z) ----
     1    Pa      -0.046119   0.019078  -0.026858
     2     O      -0.001261  -0.005746  -0.007876
     3     O       0.018792   0.083002  -0.077767
     4    Cl       0.160990  -0.088497   0.112347
     5     H       0.094104   0.098927  -0.069640
     6     O       0.296969  -0.164183   0.189266
     7     H       0.478278  -0.374477   0.084706
     8     H       0.340682  -0.147529   0.491900
     9     H      -0.003001  -0.030290   0.035082
    10     O      -0.057647   0.033397   0.004553
 
 Mode:     9      Frequency (cm-1):       91.5549     Intensity (km/mol):       14.8895
 Index  Atom      ---- Displacements (x/y/z) ----
     1    Pa      -0.003433  -0.027047  -0.014128
     2     O      -0.105485   0.297046   0.358557
     3     O       0.041068  -0.000403  -0.060275
     4    Cl       0.082436   0.079348  -0.064266
     5     H       0.021391   0.147988   0.124025
     6     O      -0.074964  -0.089961   0.042805
     7     H      -0.141264  -0.168639   0.082673
     8     H      -0.193013  -0.216300   0.124291
     9     H      -0.141577   0.473641   0.540505
    10     O       0.037384  -0.004388  -0.051428
 
 Mode:    10      Frequency (cm-1):      113.3475     Intensity (km/mol):       19.4740
 Index  Atom      ---- Displacements (x/y/z) ----
     1    Pa       0.000168  -0.033405  -0.008578
     2     O      -0.028406  -0.013256  -0.034812
     3     O      -0.002202   0.336384   0.244779
     4    Cl      -0.067887   0.024708  -0.069027
     5     H       0.035212   0.617368   0.582207
     6     O       0.069150  -0.050195   0.007171
     7     H       0.093895  -0.151312  -0.006754
     8     H       0.062294  -0.066506   0.107801
     9     H      -0.025307  -0.068378  -0.008839
    10     O       0.096990   0.134688   0.015179
 
 Mode:    11      Frequency (cm-1):      124.2221     Intensity (km/mol):       16.3295
 Index  Atom      ---- Displacements (x/y/z) ----
     1    Pa       0.026408   0.025508  -0.026843
     2     O       0.082142   0.032789   0.077904
     3     O      -0.245053  -0.100921   0.260526
     4    Cl      -0.027711   0.004666  -0.044006
     5     H      -0.601460  -0.011943   0.421891
     6     O       0.074705  -0.045854   0.052613
     7     H       0.167209  -0.138732  -0.000958
     8     H      -0.050326  -0.193067   0.287439
     9     H       0.086123   0.089092  -0.022798
    10     O      -0.207545  -0.248616   0.049701
 
 Mode:    12      Frequency (cm-1):      145.8348     Intensity (km/mol):       26.4809
 Index  Atom      ---- Displacements (x/y/z) ----
     1    Pa       0.007871  -0.013106  -0.039682
     2     O       0.011165   0.014293   0.007375
     3     O      -0.055935  -0.050766   0.025628
     4    Cl       0.109156  -0.081043   0.028281
     5     H      -0.127669   0.002392   0.100041
     6     O      -0.091488   0.057522  -0.117042
     7     H      -0.308094   0.106925   0.009547
     8     H      -0.339626  -0.185731  -0.198838
     9     H      -0.040830   0.286511   0.246181
    10     O      -0.164647   0.332205   0.585506
 
 Mode:    13      Frequency (cm-1):      163.6779     Intensity (km/mol):       85.5497
 Index  Atom      ---- Displacements (x/y/z) ----
     1    Pa      -0.008035   0.004055  -0.007469
     2     O       0.115290  -0.042784   0.088864
     3     O      -0.045516  -0.032801   0.029468
     4    Cl       0.006103  -0.003870  -0.002828
     5     H      -0.164458  -0.038407   0.039911
     6     O      -0.050520  -0.080088   0.030815
     7     H       0.042362   0.103016  -0.026968
     8     H       0.564001   0.580360  -0.431857
     9     H       0.115749  -0.151650   0.183032
    10     O       0.048333   0.074479  -0.020213
 
 Mode:    14      Frequency (cm-1):      177.3017     Intensity (km/mol):      303.0237
 Index  Atom      ---- Displacements (x/y/z) ----
     1    Pa       0.013981  -0.000136   0.003900
     2     O      -0.145725   0.076519  -0.083138
     3     O       0.045252   0.058255  -0.013104
     4    Cl       0.001782  -0.007335  -0.008478
     5     H       0.171504   0.072259  -0.014261
     6     O      -0.057887  -0.089661   0.032757
     7     H       0.329438   0.336273  -0.201025
     8     H       0.445137   0.446947  -0.306907
     9     H      -0.156109   0.282862  -0.173720
    10     O      -0.097256  -0.098835   0.069535
 
 Mode:    15      Frequency (cm-1):      210.7995     Intensity (km/mol):       45.1568
 Index  Atom      ---- Displacements (x/y/z) ----
     1    Pa      -0.002696   0.001341   0.001964
     2     O       0.022293  -0.012439   0.007533
     3     O       0.001637  -0.032737  -0.018568
     4    Cl       0.003736  -0.004632  -0.003705
     5     H      -0.132529   0.117522   0.185032
     6     O      -0.042209  -0.021429  -0.000729
     7     H       0.611881   0.507304  -0.391554
     8     H      -0.204170  -0.206438   0.228654
     9     H       0.023928  -0.062026   0.039974
    10     O       0.030200   0.034915  -0.012421
 
 Mode:    16      Frequency (cm-1):      222.7533     Intensity (km/mol):      156.9681
 Index  Atom      ---- Displacements (x/y/z) ----
     1    Pa       0.037943  -0.072179  -0.116274
     2     O      -0.019716  -0.013207   0.027028
     3     O       0.037529  -0.032908   0.045550
     4    Cl      -0.233566   0.502887   0.731548
     5     H      -0.047020  -0.014750   0.075940
     6     O      -0.022253  -0.040675   0.002726
     7     H       0.227916   0.178167  -0.148794
     8     H       0.042842   0.022094   0.007570
     9     H      -0.025774   0.098574  -0.010656
    10     O      -0.045455   0.012033   0.009641
 
 Mode:    17      Frequency (cm-1):      242.0982     Intensity (km/mol):      220.6422
 Index  Atom      ---- Displacements (x/y/z) ----
     1    Pa      -0.000589   0.002202   0.002726
     2     O      -0.005214  -0.005446  -0.029842
     3     O       0.043389  -0.058622  -0.086574
     4    Cl       0.001100  -0.002164   0.008150
     5     H      -0.281411   0.557962   0.715283
     6     O       0.004757   0.020441   0.014706
     7     H      -0.193447  -0.094438   0.132587
     8     H       0.052877   0.079001  -0.087289
     9     H      -0.002185  -0.022244  -0.043723
    10     O      -0.010096  -0.016236  -0.000656
 
 Mode:    18      Frequency (cm-1):      280.9042     Intensity (km/mol):       49.2453
 Index  Atom      ---- Displacements (x/y/z) ----
     1    Pa       0.002571  -0.028680  -0.026765
     2     O       0.006213   0.021744  -0.001569
     3     O      -0.025479   0.024922   0.000353
     4    Cl       0.008207  -0.015166  -0.027634
     5     H       0.013181  -0.060232  -0.108196
     6     O      -0.058568   0.350893   0.397336
     7     H       0.057566   0.500771   0.324591
     8     H       0.042026   0.453293   0.349932
     9     H       0.018165  -0.063886  -0.039871
    10     O       0.014508  -0.002433   0.017719
 
 Mode:    19      Frequency (cm-1):      337.2030     Intensity (km/mol):      230.9403
 Index  Atom      ---- Displacements (x/y/z) ----
     1    Pa      -0.000433   0.001598   0.001738
     2     O       0.018854  -0.065591  -0.064258
     3     O      -0.005933   0.000693   0.004929
     4    Cl      -0.003265   0.000476   0.000798
     5     H       0.005007   0.011287   0.016012
     6     O      -0.000663   0.012880   0.005346
     7     H       0.015667  -0.023280  -0.003627
     8     H       0.012123   0.022351   0.042675
     9     H      -0.135096   0.642450   0.745316
    10     O       0.007585  -0.013246  -0.023291
 
 Mode:    20      Frequency (cm-1):      365.7324     Intensity (km/mol):      390.1057
 Index  Atom      ---- Displacements (x/y/z) ----
     1    Pa      -0.005920  -0.002981   0.000401
     2     O       0.003126   0.061265  -0.051659
     3     O       0.141941   0.025211   0.041378
     4    Cl       0.000689  -0.001087  -0.001447
     5     H      -0.884294  -0.288339  -0.179374
     6     O       0.002317  -0.001629  -0.000432
     7     H      -0.016440  -0.014553   0.010857
     8     H       0.002906  -0.000327  -0.005489
     9     H       0.002715  -0.180817   0.200544
    10     O      -0.006987  -0.008916   0.006405
 
 Mode:    21      Frequency (cm-1):      430.3823     Intensity (km/mol):      255.7310
 Index  Atom      ---- Displacements (x/y/z) ----
     1    Pa      -0.003343  -0.004116   0.002243
     2     O       0.052774   0.145235  -0.106820
     3     O      -0.006408  -0.046002   0.033006
     4    Cl      -0.000520   0.002628   0.003128
     5     H       0.475543   0.073064   0.098803
     6     O       0.001857  -0.005237  -0.002365
     7     H      -0.007790   0.018962   0.002810
     8     H      -0.002655  -0.007550  -0.030347
     9     H       0.064974  -0.617863   0.575891
    10     O      -0.032194  -0.006686  -0.003835
 
 Mode:    22      Frequency (cm-1):      459.5724     Intensity (km/mol):       41.6802
 Index  Atom      ---- Displacements (x/y/z) ----
     1    Pa       0.000331  -0.001285   0.000613
     2     O       0.006872   0.009726  -0.001075
     3     O       0.024193  -0.022518   0.006393
     4    Cl       0.000601  -0.000572  -0.000974
     5     H       0.045648   0.000566   0.031056
     6     O      -0.074729   0.044612  -0.047902
     7     H       0.256803  -0.608178  -0.234442
     8     H       0.252555   0.315201   0.572886
     9     H       0.013181   0.000369  -0.056562
    10     O       0.001763   0.006397   0.016141
 
 Mode:    23      Frequency (cm-1):      507.6278     Intensity (km/mol):      161.8816
 Index  Atom      ---- Displacements (x/y/z) ----
     1    Pa      -0.022076  -0.005365  -0.000997
     2     O       0.161868   0.096343  -0.044886
     3     O       0.134644  -0.081917   0.113524
     4    Cl       0.001665  -0.001710  -0.002952
     5     H       0.305478  -0.045576   0.127712
     6     O       0.010661  -0.003713   0.010147
     7     H      -0.030241   0.101668   0.032893
     8     H      -0.038729  -0.044643  -0.082860
     9     H       0.147700   0.684432  -0.545501
    10     O      -0.016143   0.026678  -0.028463
 
 Mode:    24      Frequency (cm-1):      559.5989     Intensity (km/mol):      307.9969
 Index  Atom      ---- Displacements (x/y/z) ----
     1    Pa       0.009042  -0.031044   0.028412
     2     O       0.213058   0.207807  -0.127642
     3     O      -0.277215   0.166030  -0.230187
     4    Cl      -0.006198   0.012133   0.016106
     5     H      -0.565720   0.093142  -0.271700
     6     O      -0.006428  -0.014791  -0.026216
     7     H       0.029780  -0.092822  -0.047689
     8     H       0.035211   0.018423   0.051895
     9     H       0.208518   0.422881  -0.301526
    10     O      -0.028061   0.035012  -0.025706
 
 Mode:    25      Frequency (cm-1):      795.0022     Intensity (km/mol):      520.0480
 Index  Atom      ---- Displacements (x/y/z) ----
     1    Pa       0.051485  -0.024391   0.026290
     2     O      -0.090273  -0.095791   0.059791
     3     O       0.052877  -0.020292   0.031857
     4    Cl       0.006008  -0.013426  -0.020553
     5     H      -0.069749  -0.053725   0.019236
     6     O      -0.006977   0.026504   0.022359
     7     H       0.022362  -0.026905   0.008086
     8     H       0.006375   0.040115   0.052472
     9     H      -0.097469  -0.087954   0.060089
    10     O      -0.703707   0.479341  -0.457623
 
 Mode:    26      Frequency (cm-1):     1588.0373     Intensity (km/mol):      131.1721
 Index  Atom      ---- Displacements (x/y/z) ----
     1    Pa      -0.000042  -0.000091  -0.000079
     2     O       0.000190   0.000133  -0.000199
     3     O      -0.000268  -0.000211  -0.000842
     4    Cl      -0.000045   0.000084   0.000155
     5     H      -0.001963   0.000202  -0.000068
     6     O      -0.011274   0.045471   0.056730
     7     H       0.411789  -0.525114  -0.226262
     8     H      -0.233825  -0.163758  -0.645430
     9     H       0.000361   0.000721  -0.000533
    10     O       0.000951  -0.000919   0.000082
 
 Mode:    27      Frequency (cm-1):     3753.0757     Intensity (km/mol):      168.1365
 Index  Atom      ---- Displacements (x/y/z) ----
     1    Pa      -0.000001   0.000031   0.000028
     2     O       0.000554  -0.000051   0.000097
     3     O      -0.000109   0.001814  -0.001500
     4    Cl       0.000010  -0.000021  -0.000030
     5     H       0.003911  -0.030214   0.024966
     6     O      -0.008578   0.029675   0.038083
     7     H      -0.374369   0.016483  -0.592949
     8     H       0.511813  -0.491628  -0.016411
     9     H      -0.010216  -0.001058  -0.000888
    10     O      -0.000141   0.000067  -0.000148
 
 Mode:    28      Frequency (cm-1):     3775.5317     Intensity (km/mol):      293.4064
 Index  Atom      ---- Displacements (x/y/z) ----
     1    Pa       0.000039  -0.000015   0.000035
     2     O       0.001257  -0.000066   0.000273
     3     O       0.006231  -0.047911   0.039348
     4    Cl       0.000014  -0.000044  -0.000075
     5     H      -0.099360   0.766427  -0.629740
     6     O      -0.000267   0.001195   0.001634
     7     H      -0.015546   0.000549  -0.024691
     8     H       0.019651  -0.018702  -0.000413
     9     H      -0.025580  -0.002243  -0.003014
    10     O      -0.000205   0.000088  -0.000143
 
 Mode:    29      Frequency (cm-1):     3802.8691     Intensity (km/mol):      200.9670
 Index  Atom      ---- Displacements (x/y/z) ----
     1    Pa       0.000031   0.000005   0.000002
     2     O       0.061768   0.006608   0.005988
     3     O      -0.000383   0.001334  -0.001168
     4    Cl      -0.000009   0.000039   0.000058
     5     H       0.002904  -0.019109   0.015654
     6     O       0.000547  -0.000657  -0.000206
     7     H       0.001603  -0.000345   0.001745
     8     H      -0.009888   0.009479   0.000405
     9     H      -0.987502  -0.103005  -0.097562
    10     O       0.000201  -0.000328   0.000263
 
 Mode:    30      Frequency (cm-1):     3833.7534     Intensity (km/mol):      268.4710
 Index  Atom      ---- Displacements (x/y/z) ----
     1    Pa       0.000004  -0.000003   0.000005
     2     O      -0.000494  -0.000058  -0.000051
     3     O       0.000007   0.000049  -0.000067
     4    Cl      -0.000001  -0.000002  -0.000002
     5     H       0.000292  -0.001294   0.000794
     6     O       0.053782  -0.030546   0.035557
     7     H      -0.359319  -0.007397  -0.611926
     8     H      -0.495965   0.493038   0.046410
     9     H       0.008098   0.000846   0.000871
    10     O       0.000012   0.000026   0.000027

PES point character: Geometry corresponds to a local minimum on the PES.




 ============================
 Statistical Thermal Analysis  ***  ideal gas assumed  ***
 ============================
  
 Pressure:                  1.000000 atm.
 Temperature:             298.150000 K



 Moments of Inertia [amu*bohr^2] and principal axis
 ==================================================

         776.3298       1621.3514       1803.3803
 ------------------------------------------------
          -0.2153         -0.7073         -0.6734
           0.5723          0.4673         -0.6738
           0.7913         -0.5305          0.3041


 The rotational contribution to the molecular entropy includes
 a term, dependent on the symmetry number sigma. The results 
 reported below were computed using sigma = 1, determined from
 the point group symmetry of the input geometry (NOSYM). 
 If this is not the correct symmetry, try symmetrizing the molecule before
 running the calculation (note: linear molecules should be aligned along one
 of the Cartesian axes).
 Contributions from frequencies below 20 1/cm are not included in vibrational sums.
 Their contributions, if any, are reported separately.


     Temp                                                        Transl      Rotat     Vibrat     Total
     ----                                                        ------      -----     ------     -----

     298.15   Entropy (cal/mol-K):                               43.313     29.208     39.773    112.294
              Nuclear Internal Energy (kcal/mol):                 0.889      0.889     37.493     39.270
              Constant Volume Heat Capacity (cal/mol-K):          2.981      2.981     31.503     37.465
          (c) Constant Volume Heat Capacity (cal/mol-K):          2.981      2.981     28.144     34.106

       Summary of energy terms
                                                   hartree              eV         kcal/mol           kJ/mol
                                      --------------------     -----------       ----------      -----------
      Energy from Engine:               -2.686961167923790        -73.1159         -1686.09         -7054.62
      Nuclear Internal Energy:           0.062581378326030          1.7029            39.27           164.31
  (c) Nuclear Internal Energy:           0.060841953476312          1.6556            38.18           159.74
      Internal Energy U:                -2.624379789597760        -71.4130         -1646.82         -6890.31
      pV/n = RT:                         0.000944186013486          0.0257             0.59             2.48
      Enthalpy H:                       -2.623435603584274        -71.3873         -1646.23         -6887.83
      -T*S:                             -0.053354715710018         -1.4519           -33.48          -140.08
  (c) -T*S:                             -0.051892897876820         -1.4121           -32.56          -136.24
      Gibbs free energy:                -2.676790319294292        -72.8392         -1679.71         -7027.91
 
 
 
  (c) The properties marked with this symbol have been corrected using 'low vibrational frequency free rotor
      interpolation corrections'. For those terms all positive frequencies are used (also ones below 20 1/cm),
      but the contribution to the partition function of small vibrational frequencies is modified as described
      in the following paper:
      S. Grimme, 'Supramolecular Binding Thermodynamics by Dispersion-Corrected Density Functional Theory'
      (Chem. Eur. J. 2012, 18, 9955-9964)
      Configuration: Dampener Frequency          :   100.000 1/cm
                     Dampener Alpha              :     4.000
                     Averaging Moment of Inertia : 1.000E-44 kg m2

--------------
Atomic charges
--------------
  Index   Atom    Charge
      1     Pa    2.4661
      2      O   -0.7399
      3      O   -0.6660
      4     Cl   -0.6270
      5      H    0.1459
      6      O   -0.4046
      7      H    0.2409
      8      H    0.2441
      9      H    0.1521
     10      O   -0.8116


Dipole moment vector    (Debye):    -0.86458563   -7.41325464  -10.42722619
              magnitude (Debye):    12.82306121


Final PES point is a local minimum. Geometry optimization successful!


AMS application finished. Exiting.
NORMAL TERMINATION
     Total cpu time:  127251.82
  Total system time:    2353.71
 Total elapsed time:  129921.60
