

 Parallel Execution: Process Information
 ==============================================================================
 Rank   Node Name                              NodeID   MyNodeRank  NodeMaster
    0   don-0-0.local                             0          0          0
    1   don-0-0.local                             1          0          1
    2   don-0-0.local                             2          0          2
    3   don-0-0.local                             3          0          3
    4   don-0-0.local                             4          0          4
    5   don-0-0.local                             5          0          5
    6   don-0-0.local                             6          0          6
    7   don-0-0.local                             7          0          7
 ==============================================================================


May use up to 7811MB of RAM as shared memory on node 0
May use up to 7812MB of RAM as shared memory on node 3
May use up to 7812MB of RAM as shared memory on node 2
May use up to 7812MB of RAM as shared memory on node 1
May use up to 7812MB of RAM as shared memory on node 6
May use up to 7812MB of RAM as shared memory on node 7
May use up to 7812MB of RAM as shared memory on node 4
May use up to 7812MB of RAM as shared memory on node 5

 *******************************************************************************
 *                                                                             *
 *  --------------------------------                                           *
 *   Amsterdam Modeling Suite (AMS)              2022.103                      *
 *  --------------------------------                                           *
 *                                               r104886 2022-06-17            *
 *                                                                             *
 *                                                                             *
 *                              =================                              *
 *                              |               |                              *
 *                              |     A M S     |                              *
 *                              |               |                              *
 *                              =================                              *
 *                                                                             *
 *                                                                             *
 *   Online information and documentation:  https://www.scm.com/support/       *
 *   E-mail:  support@scm.com   info@scm.com                                   *
 *                                                                             *
 *   Scientific publications using AMS results must be properly referenced     *
 *   See the User Manuals (or the web site) for recommended citations          *
 *   The terms and conditions of the End User License Agreement apply to       *
 *   the use of AMS, https://www.scm.com/license-terms/                        *
 *                                                                             *
 **********************  x86_64_linux_intel / intelmpi  ************************
 
 Licensed to: Dr. Val?rie Vallet / Laboratoire PhLAM UMR 8523 / Villeneuve d'Ascq Cedex / FRANCE 2023-02-21 11:49:39
 SCM User ID: u10325
  
 AMS 2022.103  RunTime: Mar14-2023 00:28:13  ShM Nodes: 8  Procs: 8

 AMS jobname: pao_oh2_br_h2o.SR.b3lyp.tz2p.opt-freq-A2-solvation
 AMS jobid  : 1429054988

 Start   directory: /home/shaaban/ams/PhD/bromide/pao_oh2_br_h2o/solvation/
 Results directory: /home/shaaban/ams/PhD/bromide/pao_oh2_br_h2o/solvation/pao_oh2_br_h2o.SR.b3lyp.tz2p.opt-freq-A2-solvation.results/
 Scratch directory: /state/partition1/shaaban/934972.phlam-s-sakura/amstmp_pao_oh2_br_h2o.SR.b3lyp.tz2p.opt-freq-A2-solvation_kid0.1429054988/


 Communication costs MPI_COMM_WORLD:      4.781 usec per message,   0.1052 usec per 8-byte item
 Communication costs for intra-node:      0.305 usec per message,   0.0021 usec per 8-byte item

 RNG seed: -1530880271 -1294526672 -1248437715 -466061547 80611104 -697410878 1141399034 -778454660



                      ************************************************************************
                      *  ADF 2022.103  RunTime: Mar14-2023 00:28:14  ShM Nodes: 8  Procs: 8  *
                      ************************************************************************
  
       ***************************
       *  GEOMETRY OPTIMIZATION  *
       ***************************

Optimization Method                    Quasi Newton
Optimization Coordinates               Delocalized Coordinates
Optimize lattice                       F
 
 ------------------------------------------------------
 Convergence criteria (Hartree,Angstrom)
 ------------------------------------------------------
 Maximum gradient               0.000100000000
 Maximum rms gradient           0.000066666667
 Maximum step allowed           0.001000000000
 Maximum rms step allowed       0.000666666667
 Maximum energy change allowe   0.000010000000
 Maximum stress energy allowe   0.000500000000
 
Initial model Hessian                  Automatic Hessian
 
------------------------------------
Quasi-Newton Optimizer Parameters
------------------------------------
Hessian Update Method                  BFGS
Maximum number of steps                  250
First GDIIS cycle                          0
Maximum GDIIS vectors                      0
Trust radius (bohr)                        0.200000
Trust radius varies                        T
Constraints converged at all steps         T
Use projector                              T
 
 Rigid motions settings for: old optimizer
 Atomic rotations (x,y,z):     T T T
 Atomic translations (x,y,z):  T T T
 Tolerance:                   1.000000000000000E-006
 
--------
Geometry
--------
Formula: H4BrO4Pa
Atoms
  Index Symbol   x (angstrom)   y (angstrom)   z (angstrom)
      1     Pa    -0.19696929     0.06054024     0.82872573       adf.R=2.200
      2      O     1.11258836     1.46961294    -0.14218011       adf.R=1.517
      3      O    -1.79432074     0.80735024    -0.34577190       adf.R=1.517
      4     Br    -0.87372239     1.69978901     2.95658115       adf.R=1.850
      5      H    -1.93978192     1.62812553    -0.83441570       adf.R=1.350
      6      O     0.05930024    -1.64719568    -1.00859677       adf.R=1.517
      7      H    -0.36448826    -1.61424860    -1.87613364       adf.R=1.350
      8      H     0.76748299    -2.30185692    -1.06225282       adf.R=1.350
      9      H     2.06441769     1.55221237    -0.01218808       adf.R=1.350
     10      O     1.14039643    -0.88479193     1.73322065       adf.R=1.517
 
Total System Charge             0.00000
Bonding info available!
 
 
----------------
ADF Engine Input
----------------
 
 Basis
 Type TZ2P
 Core None
 End
 XC
 Hybrid B3LYP
 End
 Solvation
 Surf Delley
 Solv name=Water cav0=0.0 cav1=0.0067639
 Charged method=CONJ
 C-Mat POT
 SCF VAR ALL
 CSMRSP
 End
 NumericalQuality Good
 

 Title: *** (NO TITLE) ***

 Using automatic Hessian for delocalized coordinates.
 *** GO1_GOStep1 ***

 SOLVATION
-------------------------------------------

  The Delley construction of COSMO surface surface is calculated

       Division Level for Surface Triangles (NDIV)                  3
       Final Division Level for Triangles (NFDIV)                   1
       Radius of the Solvent (RSOL)                           1.93000 angstr
  Dielectric Constant (EPSL)                                 78.39000

       COSMO equation is solved iteratively-               conjugate-gradient

       Maximun of Iterations for Charges (NCIX)                  1000
       Criterion for Charge convergence (CCNV)                1.0E-08

  COSMO charges included variationally in SCF

       COSMO included at every SCF cycle

  Geometry-dependent empirical factor                         0.00000

  C-Matrix calculated in cspmtx

  In cspmtx, C-Matrix calculated using fitted potential

-------------------------------------------



 -------------------------------------------
  COSMO surface
  Area             =          521.436
  Volume           =          850.369
  Number of Points =         1239
 -------------------------------------------



 ======================
 RI Hartree-Fock Scheme
 ======================
  
 Fit Set Quality     : GOOD
 Threshold Quality   : GOOD
 Integration Quality : GOOD
 Response Quality    : DEFAULT
 Is Range Separated  :  F
 
 RIHartreeFock Dependency: number of modified vectors:           4
 cosmo_calcen: 0.5 (esolb+esolc) (Hartrees) =   -0.064151

 Solvation energy (screening term,uncorrected) =    -40.255313 kcal/mol

 Solvation energy (dispersion and cavitation terms) =      0.975045 kcal/mol
 Solvation Energy Contributions (Hartrees)
          esola   esolb+esolc
     0.06415092   -0.12830184
 esol last cycle   -0.06415092
  
 Hartree-Fock exchange energy:   -591.750050702914     
 cosmo_calcen: 0.5 (esolb+esolc) (Hartrees) =   -0.064151

 Solvation energy (screening term,uncorrected) =    -40.255309 kcal/mol

 Solvation energy (dispersion and cavitation terms) =      0.975045 kcal/mol
 Solvation Energy Contributions (Hartrees)
          esola   esolb+esolc
     0.06415091   -0.12830182
 esol last cycle   -0.06415091

 Energy gradients wrt nuclear displacements
 ==========================================

     Atom      Cartesian (a.u./angstrom)
                 X         Y         Z
 ----------------------------------------
     1 Pa   -0.015958  0.013401  0.025632
     2 O     0.007412  0.006356 -0.005006
     3 O    -0.009004  0.005732 -0.006551
     4 Br    0.006018 -0.015045 -0.020881
     5 H    -0.000514 -0.000389  0.000643
     6 O     0.000611 -0.001745 -0.001943
     7 H     0.000313 -0.000094  0.000229
     8 H    -0.000380  0.000290 -0.000203
     9 H    -0.000756  0.000195 -0.000173
    10 O     0.012259 -0.008700  0.008252
 ----------------------------------------
 Mulliken charges used for AMS results%charges...
 
----------------------------------------------------------------------
Geometry Convergence after Step   1       (Hartree/Angstrom,Angstrom)
----------------------------------------------------------------------
current energy                               -2.65877710 Hartree
energy change                      -2.65877710     0.00001000    F
constrained gradient max            0.02562873     0.00010000    F
constrained gradient rms            0.00888860     0.00006667    F
gradient max                        0.02562873
gradient rms                        0.00888860
cart. step max                      0.02074032     0.00100000    F
cart. step rms                      0.00686461     0.00066667    F
 
 
--------
Geometry
--------
Formula: H4BrO4Pa
Atoms
  Index Symbol   x (angstrom)   y (angstrom)   z (angstrom)
      1     Pa    -0.19406746     0.06422948     0.82574175       adf.R=2.200
      2      O     1.10921201     1.47512620    -0.13884328       adf.R=1.517
      3      O    -1.78521250     0.80256249    -0.35128969       adf.R=1.517
      4     Br    -0.87438662     1.69608919     2.97732147       adf.R=1.850
      5      H    -1.92716679     1.62004239    -0.84703687       adf.R=1.350
      6      O     0.05519744    -1.64704976    -1.00716463       adf.R=1.517
      7      H    -0.37251398    -1.61676991    -1.87307183       adf.R=1.350
      8      H     0.76176695    -2.30382338    -1.06036529       adf.R=1.350
      9      H     2.06158341     1.55728026    -0.00961528       adf.R=1.350
     10      O     1.14049066    -0.87814977     1.72131215       adf.R=1.517
 
Total System Charge             0.00000
Bonding info available!
 
 *** GO1_GOStep2 ***

 SOLVATION
-------------------------------------------

  The Delley construction of COSMO surface surface is calculated

       Division Level for Surface Triangles (NDIV)                  3
       Final Division Level for Triangles (NFDIV)                   1
       Radius of the Solvent (RSOL)                           1.93000 angstr
  Dielectric Constant (EPSL)                                 78.39000

       COSMO equation is solved iteratively-               conjugate-gradient

       Maximun of Iterations for Charges (NCIX)                  1000
       Criterion for Charge convergence (CCNV)                1.0E-08

  COSMO charges included variationally in SCF

       COSMO included at every SCF cycle

  Geometry-dependent empirical factor                         0.00000

  C-Matrix calculated in cspmtx

  In cspmtx, C-Matrix calculated using fitted potential

-------------------------------------------



 -------------------------------------------
  COSMO surface
  Area             =          522.351
  Volume           =          851.238
  Number of Points =         1240
 -------------------------------------------



 ======================
 RI Hartree-Fock Scheme
 ======================
  
 Fit Set Quality     : GOOD
 Threshold Quality   : GOOD
 Integration Quality : GOOD
 Response Quality    : DEFAULT
 Is Range Separated  :  F
 
 RIHartreeFock Dependency: number of modified vectors:           4
 cosmo_calcen: 0.5 (esolb+esolc) (Hartrees) =   -0.064093

 Solvation energy (screening term,uncorrected) =    -40.218742 kcal/mol

 Solvation energy (dispersion and cavitation terms) =      0.976755 kcal/mol
 Solvation Energy Contributions (Hartrees)
          esola   esolb+esolc
     0.06409264   -0.12818528
 esol last cycle   -0.06409264
  
 Hartree-Fock exchange energy:   -591.757378804095     
 cosmo_calcen: 0.5 (esolb+esolc) (Hartrees) =   -0.064093

 Solvation energy (screening term,uncorrected) =    -40.218742 kcal/mol

 Solvation energy (dispersion and cavitation terms) =      0.976755 kcal/mol
 Solvation Energy Contributions (Hartrees)
          esola   esolb+esolc
     0.06409264   -0.12818528
 esol last cycle   -0.06409264

 Energy gradients wrt nuclear displacements
 ==========================================

     Atom      Cartesian (a.u./angstrom)
                 X         Y         Z
 ----------------------------------------
     1 Pa   -0.009054  0.010966  0.023976
     2 O     0.004400  0.004100 -0.003609
     3 O    -0.006123  0.003493 -0.004773
     4 Br    0.005448 -0.013113 -0.018212
     5 H    -0.000401 -0.000029  0.000606
     6 O     0.000339 -0.001463 -0.001495
     7 H    -0.000003 -0.000014 -0.000010
     8 H     0.000080  0.000033 -0.000140
     9 H    -0.000128  0.000069  0.000082
    10 O     0.005443 -0.004041  0.003575
 ----------------------------------------
 Mulliken charges used for AMS results%charges...

 dE(predicted):    -0.35285E-03, dE(actual):    -0.59772E-03, Trust radius:    0.200000, all in a.u.
 
----------------------------------------------------------------------
Geometry Convergence after Step   2       (Hartree/Angstrom,Angstrom)
----------------------------------------------------------------------
current energy                               -2.65937481 Hartree
energy change                      -0.00059772     0.00001000    F
constrained gradient max            0.02397115     0.00010000    F
constrained gradient rms            0.00706123     0.00006667    F
gradient max                        0.02397115
gradient rms                        0.00706123
cart. step max                      0.07297575     0.00100000    F
cart. step rms                      0.02391165     0.00066667    F
 
 
--------
Geometry
--------
Formula: H4BrO4Pa
Atoms
  Index Symbol   x (angstrom)   y (angstrom)   z (angstrom)
      1     Pa    -0.18337429     0.07390935     0.81462902       adf.R=2.200
      2      O     1.09782369     1.49548381    -0.12753055       adf.R=1.517
      3      O    -1.75456899     0.79108926    -0.36733482       adf.R=1.517
      4     Br    -0.88465659     1.68228592     3.05029722       adf.R=1.850
      5      H    -1.88091893     1.59329339    -0.89272614       adf.R=1.350
      6      O     0.04015856    -1.64752970    -1.00386947       adf.R=1.517
      7      H    -0.39860339    -1.62487366    -1.86453598       adf.R=1.350
      8      H     0.73624076    -2.31564010    -1.05344156       adf.R=1.350
      9      H     2.05143848     1.57818923    -0.00488005       adf.R=1.350
     10      O     1.15136380    -0.85667030     1.68638083       adf.R=1.517
 
Total System Charge             0.00000
Bonding info available!
 
 *** GO1_GOStep3 ***

 SOLVATION
-------------------------------------------

  The Delley construction of COSMO surface surface is calculated

       Division Level for Surface Triangles (NDIV)                  3
       Final Division Level for Triangles (NFDIV)                   1
       Radius of the Solvent (RSOL)                           1.93000 angstr
  Dielectric Constant (EPSL)                                 78.39000

       COSMO equation is solved iteratively-               conjugate-gradient

       Maximun of Iterations for Charges (NCIX)                  1000
       Criterion for Charge convergence (CCNV)                1.0E-08

  COSMO charges included variationally in SCF

       COSMO included at every SCF cycle

  Geometry-dependent empirical factor                         0.00000

  C-Matrix calculated in cspmtx

  In cspmtx, C-Matrix calculated using fitted potential

-------------------------------------------



 -------------------------------------------
  COSMO surface
  Area             =          525.848
  Volume           =          855.128
  Number of Points =         1249
 -------------------------------------------



 ======================
 RI Hartree-Fock Scheme
 ======================
  
 Fit Set Quality     : GOOD
 Threshold Quality   : GOOD
 Integration Quality : GOOD
 Response Quality    : DEFAULT
 Is Range Separated  :  F
 
 RIHartreeFock Dependency: number of modified vectors:           4
 cosmo_calcen: 0.5 (esolb+esolc) (Hartrees) =   -0.064950

 Solvation energy (screening term,uncorrected) =    -40.756695 kcal/mol

 Solvation energy (dispersion and cavitation terms) =      0.983295 kcal/mol
 Solvation Energy Contributions (Hartrees)
          esola   esolb+esolc
     0.06494992   -0.12989984
 esol last cycle   -0.06494992
  
 Hartree-Fock exchange energy:   -591.774836840427     
 cosmo_calcen: 0.5 (esolb+esolc) (Hartrees) =   -0.064950

 Solvation energy (screening term,uncorrected) =    -40.756691 kcal/mol

 Solvation energy (dispersion and cavitation terms) =      0.983295 kcal/mol
 Solvation Energy Contributions (Hartrees)
          esola   esolb+esolc
     0.06494991   -0.12989983
 esol last cycle   -0.06494991

 Energy gradients wrt nuclear displacements
 ==========================================

     Atom      Cartesian (a.u./angstrom)
                 X         Y         Z
 ----------------------------------------
     1 Pa    0.006859  0.005197  0.013894
     2 O    -0.002847 -0.002345  0.000648
     3 O     0.002629 -0.002424  0.000804
     4 Br    0.003125 -0.006237 -0.008481
     5 H     0.000048  0.000617  0.000587
     6 O     0.000085 -0.001257 -0.001104
     7 H    -0.000177  0.000140 -0.000176
     8 H     0.000123  0.000030  0.000171
     9 H     0.000384 -0.000405  0.000527
    10 O    -0.010229  0.006683 -0.006871
 ----------------------------------------
 Mulliken charges used for AMS results%charges...

 dE(predicted):    -0.92158E-03, dE(actual):    -0.99291E-03, Trust radius:    0.400000, all in a.u.
 
----------------------------------------------------------------------
Geometry Convergence after Step   3       (Hartree/Angstrom,Angstrom)
----------------------------------------------------------------------
current energy                               -2.66036772 Hartree
energy change                      -0.00099291     0.00001000    F
constrained gradient max            0.01388996     0.00010000    F
constrained gradient rms            0.00453084     0.00006667    F
gradient max                        0.01388996
gradient rms                        0.00453084
cart. step max                      0.02220158     0.00100000    F
cart. step rms                      0.00800531     0.00066667    F
 
 
--------
Geometry
--------
Formula: H4BrO4Pa
Atoms
  Index Symbol   x (angstrom)   y (angstrom)   z (angstrom)
      1     Pa    -0.17874354     0.07466145     0.81042760       adf.R=2.200
      2      O     1.09671437     1.50342812    -0.12386663       adf.R=1.517
      3      O    -1.74674992     0.79190817    -0.37010313       adf.R=1.517
      4     Br    -0.89490545     1.67685774     3.07249881       adf.R=1.850
      5      H    -1.86642595     1.58632540    -0.90892589       adf.R=1.350
      6      O     0.03470561    -1.64905378    -1.00361975       adf.R=1.517
      7      H    -0.40975633    -1.62956429    -1.86137006       adf.R=1.350
      8      H     0.72690424    -2.32122134    -1.05333020       adf.R=1.350
      9      H     2.05064925     1.58818553    -0.00532094       adf.R=1.350
     10      O     1.16251083    -0.85198981     1.68059871       adf.R=1.517
 
Total System Charge             0.00000
Bonding info available!
 
 *** GO1_GOStep4 ***

 SOLVATION
-------------------------------------------

  The Delley construction of COSMO surface surface is calculated

       Division Level for Surface Triangles (NDIV)                  3
       Final Division Level for Triangles (NFDIV)                   1
       Radius of the Solvent (RSOL)                           1.93000 angstr
  Dielectric Constant (EPSL)                                 78.39000

       COSMO equation is solved iteratively-               conjugate-gradient

       Maximun of Iterations for Charges (NCIX)                  1000
       Criterion for Charge convergence (CCNV)                1.0E-08

  COSMO charges included variationally in SCF

       COSMO included at every SCF cycle

  Geometry-dependent empirical factor                         0.00000

  C-Matrix calculated in cspmtx

  In cspmtx, C-Matrix calculated using fitted potential

-------------------------------------------



 -------------------------------------------
  COSMO surface
  Area             =          527.501
  Volume           =          856.948
  Number of Points =         1252
 -------------------------------------------



 ======================
 RI Hartree-Fock Scheme
 ======================
  
 Fit Set Quality     : GOOD
 Threshold Quality   : GOOD
 Integration Quality : GOOD
 Response Quality    : DEFAULT
 Is Range Separated  :  F
 
 RIHartreeFock Dependency: number of modified vectors:           4
 cosmo_calcen: 0.5 (esolb+esolc) (Hartrees) =   -0.065901

 Solvation energy (screening term,uncorrected) =    -41.353427 kcal/mol

 Solvation energy (dispersion and cavitation terms) =      0.986386 kcal/mol
 Solvation Energy Contributions (Hartrees)
          esola   esolb+esolc
     0.06590087   -0.13180175
 esol last cycle   -0.06590087
  
 Hartree-Fock exchange energy:   -591.771908176157     
 cosmo_calcen: 0.5 (esolb+esolc) (Hartrees) =   -0.065901

 Solvation energy (screening term,uncorrected) =    -41.353433 kcal/mol

 Solvation energy (dispersion and cavitation terms) =      0.986386 kcal/mol
 Solvation Energy Contributions (Hartrees)
          esola   esolb+esolc
     0.06590088   -0.13180177
 esol last cycle   -0.06590088

 Energy gradients wrt nuclear displacements
 ==========================================

     Atom      Cartesian (a.u./angstrom)
                 X         Y         Z
 ----------------------------------------
     1 Pa    0.004861  0.005043  0.008106
     2 O    -0.003044 -0.002628  0.000982
     3 O     0.003452 -0.002809  0.001385
     4 Br    0.002074 -0.003729 -0.004951
     5 H     0.000099  0.000645  0.000511
     6 O     0.000000 -0.001280 -0.001350
     7 H    -0.000086  0.000113 -0.000094
     8 H     0.000039 -0.000021  0.000209
     9 H     0.000324 -0.000409  0.000448
    10 O    -0.007720  0.005077 -0.005247
 ----------------------------------------
 Mulliken charges used for AMS results%charges...

 dE(predicted):    -0.13361E-03, dE(actual):    -0.19566E-03, Trust radius:    0.400000, all in a.u.
 
----------------------------------------------------------------------
Geometry Convergence after Step   4       (Hartree/Angstrom,Angstrom)
----------------------------------------------------------------------
current energy                               -2.66056338 Hartree
energy change                      -0.00019566     0.00001000    F
constrained gradient max            0.00810266     0.00010000    F
constrained gradient rms            0.00323472     0.00006667    F
gradient max                        0.00810266
gradient rms                        0.00323472
cart. step max                      0.02566336     0.00100000    F
cart. step rms                      0.01082048     0.00066667    F
 
 
--------
Geometry
--------
Formula: H4BrO4Pa
Atoms
  Index Symbol   x (angstrom)   y (angstrom)   z (angstrom)
      1     Pa    -0.17069823     0.07339438     0.80434084       adf.R=2.200
      2      O     1.09958946     1.51451151    -0.11891717       adf.R=1.517
      3      O    -1.73989082     0.79699042    -0.36975671       adf.R=1.517
      4     Br    -0.91380571     1.66980944     3.09816217       adf.R=1.850
      5      H    -1.85024948     1.57664962    -0.93162460       adf.R=1.350
      6      O     0.02744405    -1.65166132    -1.00366445       adf.R=1.517
      7      H    -0.42756721    -1.63702314    -1.85591324       adf.R=1.350
      8      H     0.71553704    -2.32789692    -1.05637441       adf.R=1.350
      9      H     2.05382941     1.60358793    -0.00727859       adf.R=1.350
     10      O     1.18071460    -0.84882473     1.67801466       adf.R=1.517
 
Total System Charge             0.00000
Bonding info available!
 
 *** GO1_GOStep5 ***

 SOLVATION
-------------------------------------------

  The Delley construction of COSMO surface surface is calculated

       Division Level for Surface Triangles (NDIV)                  3
       Final Division Level for Triangles (NFDIV)                   1
       Radius of the Solvent (RSOL)                           1.93000 angstr
  Dielectric Constant (EPSL)                                 78.39000

       COSMO equation is solved iteratively-               conjugate-gradient

       Maximun of Iterations for Charges (NCIX)                  1000
       Criterion for Charge convergence (CCNV)                1.0E-08

  COSMO charges included variationally in SCF

       COSMO included at every SCF cycle

  Geometry-dependent empirical factor                         0.00000

  C-Matrix calculated in cspmtx

  In cspmtx, C-Matrix calculated using fitted potential

-------------------------------------------



 -------------------------------------------
  COSMO surface
  Area             =          529.112
  Volume           =          859.058
  Number of Points =         1257
 -------------------------------------------



 ======================
 RI Hartree-Fock Scheme
 ======================
  
 Fit Set Quality     : GOOD
 Threshold Quality   : GOOD
 Integration Quality : GOOD
 Response Quality    : DEFAULT
 Is Range Separated  :  F
 
 RIHartreeFock Dependency: number of modified vectors:           4
 cosmo_calcen: 0.5 (esolb+esolc) (Hartrees) =   -0.067634

 Solvation energy (screening term,uncorrected) =    -42.441119 kcal/mol

 Solvation energy (dispersion and cavitation terms) =      0.989399 kcal/mol
 Solvation Energy Contributions (Hartrees)
          esola   esolb+esolc
     0.06763422   -0.13526844
 esol last cycle   -0.06763422
  
 Hartree-Fock exchange energy:   -591.762186920089     
 cosmo_calcen: 0.5 (esolb+esolc) (Hartrees) =   -0.067634

 Solvation energy (screening term,uncorrected) =    -42.441128 kcal/mol

 Solvation energy (dispersion and cavitation terms) =      0.989399 kcal/mol
 Solvation Energy Contributions (Hartrees)
          esola   esolb+esolc
     0.06763424   -0.13526847
 esol last cycle   -0.06763424

 Energy gradients wrt nuclear displacements
 ==========================================

     Atom      Cartesian (a.u./angstrom)
                 X         Y         Z
 ----------------------------------------
     1 Pa   -0.001455  0.004611  0.000157
     2 O    -0.001437 -0.001315  0.000471
     3 O     0.002435 -0.001830  0.000771
     4 Br    0.000501 -0.000397 -0.000274
     5 H     0.000064  0.000452  0.000378
     6 O    -0.000185 -0.001370 -0.001565
     7 H     0.000046  0.000003  0.000027
     8 H    -0.000021 -0.000037  0.000079
     9 H     0.000115 -0.000285  0.000203
    10 O    -0.000063  0.000167 -0.000246
 ----------------------------------------
 Mulliken charges used for AMS results%charges...

 dE(predicted):    -0.15585E-03, dE(actual):    -0.17813E-03, Trust radius:    0.400000, all in a.u.
 
----------------------------------------------------------------------
Geometry Convergence after Step   5       (Hartree/Angstrom,Angstrom)
----------------------------------------------------------------------
current energy                               -2.66074150 Hartree
energy change                      -0.00017813     0.00001000    F
constrained gradient max            0.00460085     0.00010000    F
constrained gradient rms            0.00119276     0.00006667    F
gradient max                        0.00460085
gradient rms                        0.00119276
cart. step max                      0.00521398     0.00100000    F
cart. step rms                      0.00238486     0.00066667    F
 
 
--------
Geometry
--------
Formula: H4BrO4Pa
Atoms
  Index Symbol   x (angstrom)   y (angstrom)   z (angstrom)
      1     Pa    -0.16780903     0.07206444     0.80294047       adf.R=2.200
      2      O     1.10264122     1.51658805    -0.11789988       adf.R=1.517
      3      O    -1.74100698     0.79955539    -0.36632066       adf.R=1.517
      4     Br    -0.91901969     1.66910617     3.09995373       adf.R=1.850
      5      H    -1.84954116     1.57343741    -0.93635541       adf.R=1.350
      6      O     0.02682829    -1.65154563    -1.00382258       adf.R=1.517
      7      H    -0.43154405    -1.63792560    -1.85432613       adf.R=1.350
      8      H     0.71398339    -2.32861047    -1.05800132       adf.R=1.350
      9      H     2.05692465     1.60719202    -0.00840803       adf.R=1.350
     10      O     1.18344648    -0.85032459     1.67922832       adf.R=1.517
 
Total System Charge             0.00000
Bonding info available!
 
 *** GO1_GOStep6 ***

 SOLVATION
-------------------------------------------

  The Delley construction of COSMO surface surface is calculated

       Division Level for Surface Triangles (NDIV)                  3
       Final Division Level for Triangles (NFDIV)                   1
       Radius of the Solvent (RSOL)                           1.93000 angstr
  Dielectric Constant (EPSL)                                 78.39000

       COSMO equation is solved iteratively-               conjugate-gradient

       Maximun of Iterations for Charges (NCIX)                  1000
       Criterion for Charge convergence (CCNV)                1.0E-08

  COSMO charges included variationally in SCF

       COSMO included at every SCF cycle

  Geometry-dependent empirical factor                         0.00000

  C-Matrix calculated in cspmtx

  In cspmtx, C-Matrix calculated using fitted potential

-------------------------------------------



 -------------------------------------------
  COSMO surface
  Area             =          529.207
  Volume           =          859.109
  Number of Points =         1261
 -------------------------------------------



 ======================
 RI Hartree-Fock Scheme
 ======================
  
 Fit Set Quality     : GOOD
 Threshold Quality   : GOOD
 Integration Quality : GOOD
 Response Quality    : DEFAULT
 Is Range Separated  :  F
 
 RIHartreeFock Dependency: number of modified vectors:           4
 cosmo_calcen: 0.5 (esolb+esolc) (Hartrees) =   -0.068059

 Solvation energy (screening term,uncorrected) =    -42.707738 kcal/mol

 Solvation energy (dispersion and cavitation terms) =      0.989577 kcal/mol
 Solvation Energy Contributions (Hartrees)
          esola   esolb+esolc
     0.06805911   -0.13611821
 esol last cycle   -0.06805911
  
 Hartree-Fock exchange energy:   -591.759508970450     
 cosmo_calcen: 0.5 (esolb+esolc) (Hartrees) =   -0.068059

 Solvation energy (screening term,uncorrected) =    -42.707751 kcal/mol

 Solvation energy (dispersion and cavitation terms) =      0.989577 kcal/mol
 Solvation Energy Contributions (Hartrees)
          esola   esolb+esolc
     0.06805913   -0.13611825
 esol last cycle   -0.06805913

 Energy gradients wrt nuclear displacements
 ==========================================

     Atom      Cartesian (a.u./angstrom)
                 X         Y         Z
 ----------------------------------------
     1 Pa   -0.002190  0.003324 -0.000591
     2 O    -0.000551 -0.000489  0.000089
     3 O     0.001342 -0.001013  0.000208
     4 Br    0.000150  0.000214  0.000445
     5 H    -0.000000  0.000323  0.000324
     6 O    -0.000225 -0.001387 -0.001359
     7 H     0.000114  0.000030 -0.000058
     8 H    -0.000062  0.000001  0.000054
     9 H     0.000048 -0.000216  0.000117
    10 O     0.001375 -0.000788  0.000771
 ----------------------------------------
 Mulliken charges used for AMS results%charges...

 dE(predicted):    -0.14813E-04, dE(actual):    -0.26983E-04, Trust radius:    0.400000, all in a.u.
 
----------------------------------------------------------------------
Geometry Convergence after Step   6       (Hartree/Angstrom,Angstrom)
----------------------------------------------------------------------
current energy                               -2.66076849 Hartree
energy change                      -0.00002698     0.00001000    F
constrained gradient max            0.00331439     0.00010000    F
constrained gradient rms            0.00094983     0.00006667    F
gradient max                        0.00331439
gradient rms                        0.00094983
cart. step max                      0.00624482     0.00100000    F
cart. step rms                      0.00312079     0.00066667    F
 
 
--------
Geometry
--------
Formula: H4BrO4Pa
Atoms
  Index Symbol   x (angstrom)   y (angstrom)   z (angstrom)
      1     Pa    -0.16398692     0.07044682     0.80176177       adf.R=2.200
      2      O     1.10700783     1.51857272    -0.11653830       adf.R=1.517
      3      O    -1.74299290     0.80262774    -0.36094867       adf.R=1.517
      4     Br    -0.92458524     1.66797173     3.09947632       adf.R=1.850
      5      H    -1.84923654     1.56817131    -0.94242235       adf.R=1.350
      6      O     0.02717913    -1.64979052    -1.00387968       adf.R=1.517
      7      H    -0.43778887    -1.63882366    -1.85086509       adf.R=1.350
      8      H     0.71326879    -2.32774620    -1.06051824       adf.R=1.350
      9      H     2.06133815     1.61111693    -0.00959967       adf.R=1.350
     10      O     1.18469968    -0.85300968     1.68052241       adf.R=1.517
 
Total System Charge             0.00000
Bonding info available!
 
 *** GO1_GOStep7 ***

 SOLVATION
-------------------------------------------

  The Delley construction of COSMO surface surface is calculated

       Division Level for Surface Triangles (NDIV)                  3
       Final Division Level for Triangles (NFDIV)                   1
       Radius of the Solvent (RSOL)                           1.93000 angstr
  Dielectric Constant (EPSL)                                 78.39000

       COSMO equation is solved iteratively-               conjugate-gradient

       Maximun of Iterations for Charges (NCIX)                  1000
       Criterion for Charge convergence (CCNV)                1.0E-08

  COSMO charges included variationally in SCF

       COSMO included at every SCF cycle

  Geometry-dependent empirical factor                         0.00000

  C-Matrix calculated in cspmtx

  In cspmtx, C-Matrix calculated using fitted potential

-------------------------------------------



 -------------------------------------------
  COSMO surface
  Area             =          529.232
  Volume           =          859.138
  Number of Points =         1262
 -------------------------------------------



 ======================
 RI Hartree-Fock Scheme
 ======================
  
 Fit Set Quality     : GOOD
 Threshold Quality   : GOOD
 Integration Quality : GOOD
 Response Quality    : DEFAULT
 Is Range Separated  :  F
 
 RIHartreeFock Dependency: number of modified vectors:           4
 cosmo_calcen: 0.5 (esolb+esolc) (Hartrees) =   -0.068421

 Solvation energy (screening term,uncorrected) =    -42.934986 kcal/mol

 Solvation energy (dispersion and cavitation terms) =      0.989622 kcal/mol
 Solvation Energy Contributions (Hartrees)
          esola   esolb+esolc
     0.06842125   -0.13684250
 esol last cycle   -0.06842125
  
 Hartree-Fock exchange energy:   -591.757958371774     
 cosmo_calcen: 0.5 (esolb+esolc) (Hartrees) =   -0.068421

 Solvation energy (screening term,uncorrected) =    -42.934996 kcal/mol

 Solvation energy (dispersion and cavitation terms) =      0.989622 kcal/mol
 Solvation Energy Contributions (Hartrees)
          esola   esolb+esolc
     0.06842126   -0.13684253
 esol last cycle   -0.06842126

 Energy gradients wrt nuclear displacements
 ==========================================

     Atom      Cartesian (a.u./angstrom)
                 X         Y         Z
 ----------------------------------------
     1 Pa   -0.001267  0.001077 -0.000329
     2 O     0.000299  0.000349 -0.000304
     3 O    -0.000074 -0.000061 -0.000356
     4 Br   -0.000148  0.000625  0.000800
     5 H    -0.000089  0.000176  0.000237
     6 O    -0.000205 -0.001222 -0.001075
     7 H     0.000080  0.000063 -0.000046
     8 H    -0.000063  0.000032  0.000076
     9 H     0.000020 -0.000135  0.000050
    10 O     0.001447 -0.000905  0.000948
 ----------------------------------------
 Mulliken charges used for AMS results%charges...

 dE(predicted):    -0.12663E-04, dE(actual):    -0.22884E-04, Trust radius:    0.400000, all in a.u.
 
----------------------------------------------------------------------
Geometry Convergence after Step   7       (Hartree/Angstrom,Angstrom)
----------------------------------------------------------------------
current energy                               -2.66079137 Hartree
energy change                      -0.00002288     0.00001000    F
constrained gradient max            0.00144493     0.00010000    F
constrained gradient rms            0.00060468     0.00006667    F
gradient max                        0.00144493
gradient rms                        0.00060468
cart. step max                      0.00489792     0.00100000    F
cart. step rms                      0.00199068     0.00066667    F
 
 
--------
Geometry
--------
Formula: H4BrO4Pa
Atoms
  Index Symbol   x (angstrom)   y (angstrom)   z (angstrom)
      1     Pa    -0.16243619     0.06956026     0.80201658       adf.R=2.200
      2      O     1.10845811     1.51911765    -0.11559011       adf.R=1.517
      3      O    -1.74366836     0.80416911    -0.35802488       adf.R=1.517
      4     Br    -0.92630016     1.66650449     3.09884794       adf.R=1.850
      5      H    -1.84752177     1.56398769    -0.94732027       adf.R=1.350
      6      O     0.02783053    -1.64739009    -1.00340427       adf.R=1.517
      7      H    -0.44217126    -1.63876815    -1.84765697       adf.R=1.350
      8      H     0.71341494    -2.32571764    -1.06190383       adf.R=1.350
      9      H     2.06286698     1.61277630    -0.01060834       adf.R=1.350
     10      O     1.18443029    -0.85470243     1.68063265       adf.R=1.517
 
Total System Charge             0.00000
Bonding info available!
 
 *** GO1_GOStep8 ***

 SOLVATION
-------------------------------------------

  The Delley construction of COSMO surface surface is calculated

       Division Level for Surface Triangles (NDIV)                  3
       Final Division Level for Triangles (NFDIV)                   1
       Radius of the Solvent (RSOL)                           1.93000 angstr
  Dielectric Constant (EPSL)                                 78.39000

       COSMO equation is solved iteratively-               conjugate-gradient

       Maximun of Iterations for Charges (NCIX)                  1000
       Criterion for Charge convergence (CCNV)                1.0E-08

  COSMO charges included variationally in SCF

       COSMO included at every SCF cycle

  Geometry-dependent empirical factor                         0.00000

  C-Matrix calculated in cspmtx

  In cspmtx, C-Matrix calculated using fitted potential

-------------------------------------------



 -------------------------------------------
  COSMO surface
  Area             =          529.683
  Volume           =          859.894
  Number of Points =         1267
 -------------------------------------------



 ======================
 RI Hartree-Fock Scheme
 ======================
  
 Fit Set Quality     : GOOD
 Threshold Quality   : GOOD
 Integration Quality : GOOD
 Response Quality    : DEFAULT
 Is Range Separated  :  F
 
 RIHartreeFock Dependency: number of modified vectors:           4
 cosmo_calcen: 0.5 (esolb+esolc) (Hartrees) =   -0.068528

 Solvation energy (screening term,uncorrected) =    -43.002157 kcal/mol

 Solvation energy (dispersion and cavitation terms) =      0.990467 kcal/mol
 Solvation Energy Contributions (Hartrees)
          esola   esolb+esolc
     0.06852829   -0.13705658
 esol last cycle   -0.06852829
  
 Hartree-Fock exchange energy:   -591.758423982454     
 cosmo_calcen: 0.5 (esolb+esolc) (Hartrees) =   -0.068528

 Solvation energy (screening term,uncorrected) =    -43.002159 kcal/mol

 Solvation energy (dispersion and cavitation terms) =      0.990467 kcal/mol
 Solvation Energy Contributions (Hartrees)
          esola   esolb+esolc
     0.06852830   -0.13705659
 esol last cycle   -0.06852830

 Energy gradients wrt nuclear displacements
 ==========================================

     Atom      Cartesian (a.u./angstrom)
                 X         Y         Z
 ----------------------------------------
     1 Pa    0.000036 -0.000385  0.000385
     2 O     0.000497  0.000561 -0.000400
     3 O    -0.000507  0.000347 -0.000498
     4 Br   -0.000190  0.000608  0.000655
     5 H    -0.000125  0.000103  0.000181
     6 O    -0.000246 -0.000907 -0.000773
     7 H     0.000046  0.000076 -0.000047
     8 H    -0.000044  0.000039  0.000088
     9 H     0.000011 -0.000100  0.000024
    10 O     0.000522 -0.000342  0.000385
 ----------------------------------------
 Mulliken charges used for AMS results%charges...

 dE(predicted):    -0.50452E-05, dE(actual):    -0.99859E-05, Trust radius:    0.400000, all in a.u.
 
----------------------------------------------------------------------
Geometry Convergence after Step   8       (Hartree/Angstrom,Angstrom)
----------------------------------------------------------------------
current energy                               -2.66080136 Hartree
energy change                      -0.00000999     0.00001000    T
constrained gradient max            0.00089949     0.00010000    F
constrained gradient rms            0.00038907     0.00006667    F
gradient max                        0.00089949
gradient rms                        0.00038907
cart. step max                      0.00726760     0.00100000    F
cart. step rms                      0.00260954     0.00066667    F
 
 
--------
Geometry
--------
Formula: H4BrO4Pa
Atoms
  Index Symbol   x (angstrom)   y (angstrom)   z (angstrom)
      1     Pa    -0.16176419     0.06933612     0.80285709       adf.R=2.200
      2      O     1.10884055     1.51957627    -0.11431503       adf.R=1.517
      3      O    -1.74376661     0.80538902    -0.35604759       adf.R=1.517
      4     Br    -0.92641840     1.66352306     3.09934313       adf.R=1.850
      5      H    -1.84384402     1.55843958    -0.95458787       adf.R=1.350
      6      O     0.02880310    -1.64353773    -1.00238108       adf.R=1.517
      7      H    -0.44780073    -1.63856679    -1.84297580       adf.R=1.350
      8      H     0.71368689    -2.32240947    -1.06297616       adf.R=1.350
      9      H     2.06342389     1.61404215    -0.01177393       adf.R=1.350
     10      O     1.18374264    -0.85625501     1.67984575       adf.R=1.517
 
Total System Charge             0.00000
Bonding info available!
 
 *** GO1_GOStep9 ***

 SOLVATION
-------------------------------------------

  The Delley construction of COSMO surface surface is calculated

       Division Level for Surface Triangles (NDIV)                  3
       Final Division Level for Triangles (NFDIV)                   1
       Radius of the Solvent (RSOL)                           1.93000 angstr
  Dielectric Constant (EPSL)                                 78.39000

       COSMO equation is solved iteratively-               conjugate-gradient

       Maximun of Iterations for Charges (NCIX)                  1000
       Criterion for Charge convergence (CCNV)                1.0E-08

  COSMO charges included variationally in SCF

       COSMO included at every SCF cycle

  Geometry-dependent empirical factor                         0.00000

  C-Matrix calculated in cspmtx

  In cspmtx, C-Matrix calculated using fitted potential

-------------------------------------------



 -------------------------------------------
  COSMO surface
  Area             =          529.413
  Volume           =          859.637
  Number of Points =         1266
 -------------------------------------------



 ======================
 RI Hartree-Fock Scheme
 ======================
  
 Fit Set Quality     : GOOD
 Threshold Quality   : GOOD
 Integration Quality : GOOD
 Response Quality    : DEFAULT
 Is Range Separated  :  F
 
 RIHartreeFock Dependency: number of modified vectors:           4
 cosmo_calcen: 0.5 (esolb+esolc) (Hartrees) =   -0.068567

 Solvation energy (screening term,uncorrected) =    -43.026589 kcal/mol

 Solvation energy (dispersion and cavitation terms) =      0.989962 kcal/mol
 Solvation Energy Contributions (Hartrees)
          esola   esolb+esolc
     0.06856723   -0.13713446
 esol last cycle   -0.06856723
  
 Hartree-Fock exchange energy:   -591.759648516086     
 cosmo_calcen: 0.5 (esolb+esolc) (Hartrees) =   -0.068567

 Solvation energy (screening term,uncorrected) =    -43.026596 kcal/mol

 Solvation energy (dispersion and cavitation terms) =      0.989962 kcal/mol
 Solvation Energy Contributions (Hartrees)
          esola   esolb+esolc
     0.06856724   -0.13713447
 esol last cycle   -0.06856724

 Energy gradients wrt nuclear displacements
 ==========================================

     Atom      Cartesian (a.u./angstrom)
                 X         Y         Z
 ----------------------------------------
     1 Pa    0.001216 -0.001357  0.000993
     2 O     0.000418  0.000505 -0.000346
     3 O    -0.000557  0.000507 -0.000411
     4 Br   -0.000114  0.000405  0.000304
     5 H    -0.000125  0.000058  0.000115
     6 O    -0.000214 -0.000516 -0.000317
     7 H     0.000001  0.000077 -0.000042
     8 H    -0.000032  0.000016  0.000076
     9 H     0.000042 -0.000071  0.000000
    10 O    -0.000635  0.000378 -0.000372
 ----------------------------------------
 Mulliken charges used for AMS results%charges...

 dE(predicted):    -0.46028E-05, dE(actual):    -0.39393E-05, Trust radius:    0.400000, all in a.u.
 
----------------------------------------------------------------------
Geometry Convergence after Step   9       (Hartree/Angstrom,Angstrom)
----------------------------------------------------------------------
current energy                               -2.66080530 Hartree
energy change                      -0.00000394     0.00001000    T
constrained gradient max            0.00136816     0.00010000    F
constrained gradient rms            0.00048178     0.00006667    F
gradient max                        0.00136816
gradient rms                        0.00048178
cart. step max                      0.00810849     0.00100000    F
cart. step rms                      0.00283670     0.00066667    F
 
 
--------
Geometry
--------
Formula: H4BrO4Pa
Atoms
  Index Symbol   x (angstrom)   y (angstrom)   z (angstrom)
      1     Pa    -0.16177481     0.06982328     0.80403772       adf.R=2.200
      2      O     1.10839604     1.52004936    -0.11290510       adf.R=1.517
      3      O    -1.74301574     0.80554463    -0.35571308       adf.R=1.517
      4     Br    -0.92568790     1.66018804     3.10147056       adf.R=1.850
      5      H    -1.83898172     1.55236254    -0.96269636       adf.R=1.350
      6      O     0.02935152    -1.63927833    -1.00140082       adf.R=1.517
      7      H    -0.45378748    -1.63818422    -1.83827642       adf.R=1.350
      8      H     0.71341814    -2.31880928    -1.06389258       adf.R=1.350
      9      H     2.06317022     1.61487049    -0.01260001       adf.R=1.350
     10      O     1.18381485    -0.85702933     1.67896460       adf.R=1.517
 
Total System Charge             0.00000
Bonding info available!
 
 *** GO1_GOStep10 ***

 SOLVATION
-------------------------------------------

  The Delley construction of COSMO surface surface is calculated

       Division Level for Surface Triangles (NDIV)                  3
       Final Division Level for Triangles (NFDIV)                   1
       Radius of the Solvent (RSOL)                           1.93000 angstr
  Dielectric Constant (EPSL)                                 78.39000

       COSMO equation is solved iteratively-               conjugate-gradient

       Maximun of Iterations for Charges (NCIX)                  1000
       Criterion for Charge convergence (CCNV)                1.0E-08

  COSMO charges included variationally in SCF

       COSMO included at every SCF cycle

  Geometry-dependent empirical factor                         0.00000

  C-Matrix calculated in cspmtx

  In cspmtx, C-Matrix calculated using fitted potential

-------------------------------------------



 -------------------------------------------
  COSMO surface
  Area             =          529.386
  Volume           =          858.765
  Number of Points =         1263
 -------------------------------------------



 ======================
 RI Hartree-Fock Scheme
 ======================
  
 Fit Set Quality     : GOOD
 Threshold Quality   : GOOD
 Integration Quality : GOOD
 Response Quality    : DEFAULT
 Is Range Separated  :  F
 
 RIHartreeFock Dependency: number of modified vectors:           4
 cosmo_calcen: 0.5 (esolb+esolc) (Hartrees) =   -0.068594

 Solvation energy (screening term,uncorrected) =    -43.043396 kcal/mol

 Solvation energy (dispersion and cavitation terms) =      0.989911 kcal/mol
 Solvation Energy Contributions (Hartrees)
          esola   esolb+esolc
     0.06859401   -0.13718802
 esol last cycle   -0.06859401
  
 Hartree-Fock exchange energy:   -591.760603450923     
 cosmo_calcen: 0.5 (esolb+esolc) (Hartrees) =   -0.068594

 Solvation energy (screening term,uncorrected) =    -43.043402 kcal/mol

 Solvation energy (dispersion and cavitation terms) =      0.989911 kcal/mol
 Solvation Energy Contributions (Hartrees)
          esola   esolb+esolc
     0.06859402   -0.13718804
 esol last cycle   -0.06859402

 Energy gradients wrt nuclear displacements
 ==========================================

     Atom      Cartesian (a.u./angstrom)
                 X         Y         Z
 ----------------------------------------
     1 Pa    0.001460 -0.001459  0.000967
     2 O     0.000221  0.000289 -0.000210
     3 O    -0.000324  0.000435 -0.000162
     4 Br   -0.000002  0.000192  0.000019
     5 H    -0.000085  0.000040  0.000025
     6 O    -0.000150 -0.000144 -0.000015
     7 H    -0.000042  0.000130  0.000062
     8 H    -0.000060 -0.000076  0.000026
     9 H     0.000058 -0.000058 -0.000016
    10 O    -0.001076  0.000650 -0.000695
 ----------------------------------------
 Mulliken charges used for AMS results%charges...

 dE(predicted):    -0.29924E-05, dE(actual):     0.38176E-05, Trust radius:    0.020000, all in a.u.
 
----------------------------------------------------------------------
Geometry Convergence after Step  10       (Hartree/Angstrom,Angstrom)
----------------------------------------------------------------------
current energy                               -2.66080148 Hartree
energy change                       0.00000382     0.00001000    T
constrained gradient max            0.00146910     0.00010000    F
constrained gradient rms            0.00051057     0.00006667    F
gradient max                        0.00146910
gradient rms                        0.00051057
cart. step max                      0.00503542     0.00100000    F
cart. step rms                      0.00191147     0.00066667    F
 
 
--------
Geometry
--------
Formula: H4BrO4Pa
Atoms
  Index Symbol   x (angstrom)   y (angstrom)   z (angstrom)
      1     Pa    -0.16260139     0.07083661     0.80495329       adf.R=2.200
      2      O     1.10755857     1.52014627    -0.11212449       adf.R=1.517
      3      O    -1.74220433     0.80490043    -0.35693271       adf.R=1.517
      4     Br    -0.92438441     1.65780460     3.10395481       adf.R=1.850
      5      H    -1.83546685     1.54896180    -0.96773178       adf.R=1.350
      6      O     0.02942771    -1.63646819    -1.00080892       adf.R=1.517
      7      H    -0.45753917    -1.63848160    -1.83552161       adf.R=1.350
      8      H     0.71356660    -2.31578748    -1.06423154       adf.R=1.350
      9      H     2.06249950     1.61452312    -0.01301325       adf.R=1.350
     10      O     1.18404690    -0.85689837     1.67844471       adf.R=1.517
 
Total System Charge             0.00000
Bonding info available!
 
 *** GO1_GOStep11 ***

 SOLVATION
-------------------------------------------

  The Delley construction of COSMO surface surface is calculated

       Division Level for Surface Triangles (NDIV)                  3
       Final Division Level for Triangles (NFDIV)                   1
       Radius of the Solvent (RSOL)                           1.93000 angstr
  Dielectric Constant (EPSL)                                 78.39000

       COSMO equation is solved iteratively-               conjugate-gradient

       Maximun of Iterations for Charges (NCIX)                  1000
       Criterion for Charge convergence (CCNV)                1.0E-08

  COSMO charges included variationally in SCF

       COSMO included at every SCF cycle

  Geometry-dependent empirical factor                         0.00000

  C-Matrix calculated in cspmtx

  In cspmtx, C-Matrix calculated using fitted potential

-------------------------------------------



 -------------------------------------------
  COSMO surface
  Area             =          530.197
  Volume           =          859.678
  Number of Points =         1266
 -------------------------------------------



 ======================
 RI Hartree-Fock Scheme
 ======================
  
 Fit Set Quality     : GOOD
 Threshold Quality   : GOOD
 Integration Quality : GOOD
 Response Quality    : DEFAULT
 Is Range Separated  :  F
 
 RIHartreeFock Dependency: number of modified vectors:           4
 cosmo_calcen: 0.5 (esolb+esolc) (Hartrees) =   -0.068584

 Solvation energy (screening term,uncorrected) =    -43.037267 kcal/mol

 Solvation energy (dispersion and cavitation terms) =      0.991428 kcal/mol
 Solvation Energy Contributions (Hartrees)
          esola   esolb+esolc
     0.06858424   -0.13716849
 esol last cycle   -0.06858424
  
 Hartree-Fock exchange energy:   -591.760906228498     
 cosmo_calcen: 0.5 (esolb+esolc) (Hartrees) =   -0.068584

 Solvation energy (screening term,uncorrected) =    -43.037265 kcal/mol

 Solvation energy (dispersion and cavitation terms) =      0.991428 kcal/mol
 Solvation Energy Contributions (Hartrees)
          esola   esolb+esolc
     0.06858424   -0.13716848
 esol last cycle   -0.06858424

 Energy gradients wrt nuclear displacements
 ==========================================

     Atom      Cartesian (a.u./angstrom)
                 X         Y         Z
 ----------------------------------------
     1 Pa    0.000740 -0.000701  0.000483
     2 O     0.000018  0.000044 -0.000076
     3 O     0.000054  0.000184  0.000055
     4 Br    0.000108  0.000030 -0.000125
     5 H    -0.000027  0.000032  0.000016
     6 O    -0.000042 -0.000009  0.000210
     7 H    -0.000079  0.000095 -0.000032
     8 H    -0.000113 -0.000023 -0.000006
     9 H     0.000064 -0.000065 -0.000018
    10 O    -0.000723  0.000414 -0.000507
 ----------------------------------------
 Mulliken charges used for AMS results%charges...

 dE(predicted):    -0.18208E-05, dE(actual):     0.51857E-05, Trust radius:    0.020000, all in a.u.
 
----------------------------------------------------------------------
Geometry Convergence after Step  11       (Hartree/Angstrom,Angstrom)
----------------------------------------------------------------------
current energy                               -2.66079629 Hartree
energy change                       0.00000519     0.00001000    T
constrained gradient max            0.00072837     0.00010000    F
constrained gradient rms            0.00027838     0.00006667    F
gradient max                        0.00072837
gradient rms                        0.00027838
cart. step max                      0.00326977     0.00100000    F
cart. step rms                      0.00135583     0.00066667    F
 
 
--------
Geometry
--------
Formula: H4BrO4Pa
Atoms
  Index Symbol   x (angstrom)   y (angstrom)   z (angstrom)
      1     Pa    -0.16262441     0.07179264     0.80506706       adf.R=2.200
      2      O     1.10760356     1.52083023    -0.11157713       adf.R=1.517
      3      O    -1.74142343     0.80458265    -0.35810189       adf.R=1.517
      4     Br    -0.92468825     1.65558604     3.10629381       adf.R=1.850
      5      H    -1.83317124     1.54714474    -0.97098164       adf.R=1.350
      6      O     0.02914783    -1.63503728    -1.00065741       adf.R=1.517
      7      H    -0.46080894    -1.63966598    -1.83359134       adf.R=1.350
      8      H     0.71322164    -2.31439397    -1.06453445       adf.R=1.350
      9      H     2.06263304     1.61493095    -0.01313179       adf.R=1.350
     10      O     1.18501331    -0.85623283     1.67820327       adf.R=1.517
 
Total System Charge             0.00000
Bonding info available!
 
 *** GO1_GOStep12 ***

 SOLVATION
-------------------------------------------

  The Delley construction of COSMO surface surface is calculated

       Division Level for Surface Triangles (NDIV)                  3
       Final Division Level for Triangles (NFDIV)                   1
       Radius of the Solvent (RSOL)                           1.93000 angstr
  Dielectric Constant (EPSL)                                 78.39000

       COSMO equation is solved iteratively-               conjugate-gradient

       Maximun of Iterations for Charges (NCIX)                  1000
       Criterion for Charge convergence (CCNV)                1.0E-08

  COSMO charges included variationally in SCF

       COSMO included at every SCF cycle

  Geometry-dependent empirical factor                         0.00000

  C-Matrix calculated in cspmtx

  In cspmtx, C-Matrix calculated using fitted potential

-------------------------------------------



 -------------------------------------------
  COSMO surface
  Area             =          531.315
  Volume           =          861.904
  Number of Points =         1267
 -------------------------------------------



 ======================
 RI Hartree-Fock Scheme
 ======================
  
 Fit Set Quality     : GOOD
 Threshold Quality   : GOOD
 Integration Quality : GOOD
 Response Quality    : DEFAULT
 Is Range Separated  :  F
 
 RIHartreeFock Dependency: number of modified vectors:           4
 cosmo_calcen: 0.5 (esolb+esolc) (Hartrees) =   -0.068624

 Solvation energy (screening term,uncorrected) =    -43.062241 kcal/mol

 Solvation energy (dispersion and cavitation terms) =      0.993517 kcal/mol
 Solvation Energy Contributions (Hartrees)
          esola   esolb+esolc
     0.06862404   -0.13724808
 esol last cycle   -0.06862404
  
 Hartree-Fock exchange energy:   -591.760593221349     
 cosmo_calcen: 0.5 (esolb+esolc) (Hartrees) =   -0.068624

 Solvation energy (screening term,uncorrected) =    -43.062232 kcal/mol

 Solvation energy (dispersion and cavitation terms) =      0.993517 kcal/mol
 Solvation Energy Contributions (Hartrees)
          esola   esolb+esolc
     0.06862403   -0.13724806
 esol last cycle   -0.06862403

 Energy gradients wrt nuclear displacements
 ==========================================

     Atom      Cartesian (a.u./angstrom)
                 X         Y         Z
 ----------------------------------------
     1 Pa   -0.000015 -0.000092 -0.000052
     2 O    -0.000018 -0.000050 -0.000022
     3 O     0.000226  0.000016  0.000128
     4 Br    0.000118  0.000019 -0.000092
     5 H     0.000002  0.000040  0.000010
     6 O    -0.000092  0.000074  0.000229
     7 H    -0.000064  0.000064 -0.000010
     8 H    -0.000095 -0.000029 -0.000036
     9 H     0.000053 -0.000070 -0.000027
    10 O    -0.000115  0.000026 -0.000130
 ----------------------------------------
 Mulliken charges used for AMS results%charges...

 dE(predicted):    -0.74055E-06, dE(actual):    -0.47464E-05, Trust radius:    0.020000, all in a.u.
 
----------------------------------------------------------------------
Geometry Convergence after Step  12       (Hartree/Angstrom,Angstrom)
----------------------------------------------------------------------
current energy                               -2.66080104 Hartree
energy change                      -0.00000475     0.00001000    T
constrained gradient max            0.00022126     0.00010000    F
constrained gradient rms            0.00007656     0.00006667    F
gradient max                        0.00022126
gradient rms                        0.00007656
cart. step max                      0.00125738     0.00100000    F
cart. step rms                      0.00054720     0.00066667    T
 
 
--------
Geometry
--------
Formula: H4BrO4Pa
Atoms
  Index Symbol   x (angstrom)   y (angstrom)   z (angstrom)
      1     Pa    -0.16241431     0.07227625     0.80470429       adf.R=2.200
      2      O     1.10795408     1.52140230    -0.11147962       adf.R=1.517
      3      O    -1.74127624     0.80484809    -0.35856154       adf.R=1.517
      4     Br    -0.92522868     1.65435587     3.10730205       adf.R=1.850
      5      H    -1.83270686     1.54725419    -0.97168718       adf.R=1.350
      6      O     0.02914952    -1.63490266    -1.00081790       adf.R=1.517
      7      H    -0.46201164    -1.64092335    -1.83302480       adf.R=1.350
      8      H     0.71302635    -2.31448329    -1.06442566       adf.R=1.350
      9      H     2.06300122     1.61540800    -0.01314445       adf.R=1.350
     10      O     1.18540966    -0.85569819     1.67812331       adf.R=1.517
 
Total System Charge             0.00000
Bonding info available!
 
 *** GO1_GOStep13 ***

 SOLVATION
-------------------------------------------

  The Delley construction of COSMO surface surface is calculated

       Division Level for Surface Triangles (NDIV)                  3
       Final Division Level for Triangles (NFDIV)                   1
       Radius of the Solvent (RSOL)                           1.93000 angstr
  Dielectric Constant (EPSL)                                 78.39000

       COSMO equation is solved iteratively-               conjugate-gradient

       Maximun of Iterations for Charges (NCIX)                  1000
       Criterion for Charge convergence (CCNV)                1.0E-08

  COSMO charges included variationally in SCF

       COSMO included at every SCF cycle

  Geometry-dependent empirical factor                         0.00000

  C-Matrix calculated in cspmtx

  In cspmtx, C-Matrix calculated using fitted potential

-------------------------------------------



 -------------------------------------------
  COSMO surface
  Area             =          531.169
  Volume           =          861.622
  Number of Points =         1267
 -------------------------------------------



 ======================
 RI Hartree-Fock Scheme
 ======================
  
 Fit Set Quality     : GOOD
 Threshold Quality   : GOOD
 Integration Quality : GOOD
 Response Quality    : DEFAULT
 Is Range Separated  :  F
 
 RIHartreeFock Dependency: number of modified vectors:           4
 cosmo_calcen: 0.5 (esolb+esolc) (Hartrees) =   -0.068641

 Solvation energy (screening term,uncorrected) =    -43.073127 kcal/mol

 Solvation energy (dispersion and cavitation terms) =      0.993246 kcal/mol
 Solvation Energy Contributions (Hartrees)
          esola   esolb+esolc
     0.06864139   -0.13728278
 esol last cycle   -0.06864139
  
 Hartree-Fock exchange energy:   -591.760342008064     
 cosmo_calcen: 0.5 (esolb+esolc) (Hartrees) =   -0.068641

 Solvation energy (screening term,uncorrected) =    -43.073117 kcal/mol

 Solvation energy (dispersion and cavitation terms) =      0.993246 kcal/mol
 Solvation Energy Contributions (Hartrees)
          esola   esolb+esolc
     0.06864137   -0.13728275
 esol last cycle   -0.06864137

 Energy gradients wrt nuclear displacements
 ==========================================

     Atom      Cartesian (a.u./angstrom)
                 X         Y         Z
 ----------------------------------------
     1 Pa   -0.000250  0.000052 -0.000244
     2 O     0.000014 -0.000048 -0.000019
     3 O     0.000195  0.000007  0.000105
     4 Br    0.000107  0.000049 -0.000014
     5 H     0.000007  0.000043  0.000009
     6 O    -0.000103  0.000058  0.000182
     7 H    -0.000063  0.000057 -0.000004
     8 H    -0.000088 -0.000028 -0.000031
     9 H     0.000047 -0.000071 -0.000035
    10 O     0.000134 -0.000119  0.000051
 ----------------------------------------
 Mulliken charges used for AMS results%charges...
 
----------------------------------------------------------------------
Geometry Convergence after Step  13       (Hartree/Angstrom,Angstrom)
----------------------------------------------------------------------
current energy                               -2.66080134 Hartree
energy change                      -0.00000030     0.00001000    T
constrained gradient max            0.00026167     0.00010000    F
constrained gradient rms            0.00009042     0.00006667    F
gradient max                        0.00026167
gradient rms                        0.00009042
cart. step max                      0.00225745     0.00100000    F
cart. step rms                      0.00081958     0.00066667    F
 
 
--------
Geometry
--------
Formula: H4BrO4Pa
Atoms
  Index Symbol   x (angstrom)   y (angstrom)   z (angstrom)
      1     Pa    -0.16196254     0.07297832     0.80404451       adf.R=2.200
      2      O     1.10862110     1.52235135    -0.11141411       adf.R=1.517
      3      O    -1.74119032     0.80545347    -0.35907490       adf.R=1.517
      4     Br    -0.92616329     1.65248002     3.10829765       adf.R=1.850
      5      H    -1.83235030     1.54795867    -0.97212614       adf.R=1.350
      6      O     0.02934348    -1.63489407    -1.00115045       adf.R=1.517
      7      H    -0.46364514    -1.64318080    -1.83224452       adf.R=1.350
      8      H     0.71281117    -2.31493537    -1.06413109       adf.R=1.350
      9      H     2.06367069     1.61631281    -0.01307622       adf.R=1.350
     10      O     1.18576825    -0.85498721     1.67786379       adf.R=1.517
 
Total System Charge             0.00000
Bonding info available!
 
 *** GO1_GOStep14 ***

 SOLVATION
-------------------------------------------

  The Delley construction of COSMO surface surface is calculated

       Division Level for Surface Triangles (NDIV)                  3
       Final Division Level for Triangles (NFDIV)                   1
       Radius of the Solvent (RSOL)                           1.93000 angstr
  Dielectric Constant (EPSL)                                 78.39000

       COSMO equation is solved iteratively-               conjugate-gradient

       Maximun of Iterations for Charges (NCIX)                  1000
       Criterion for Charge convergence (CCNV)                1.0E-08

  COSMO charges included variationally in SCF

       COSMO included at every SCF cycle

  Geometry-dependent empirical factor                         0.00000

  C-Matrix calculated in cspmtx

  In cspmtx, C-Matrix calculated using fitted potential

-------------------------------------------



 -------------------------------------------
  COSMO surface
  Area             =          531.168
  Volume           =          861.555
  Number of Points =         1267
 -------------------------------------------



 ======================
 RI Hartree-Fock Scheme
 ======================
  
 Fit Set Quality     : GOOD
 Threshold Quality   : GOOD
 Integration Quality : GOOD
 Response Quality    : DEFAULT
 Is Range Separated  :  F
 
 RIHartreeFock Dependency: number of modified vectors:           4
 cosmo_calcen: 0.5 (esolb+esolc) (Hartrees) =   -0.068641

 Solvation energy (screening term,uncorrected) =    -43.072870 kcal/mol

 Solvation energy (dispersion and cavitation terms) =      0.993243 kcal/mol
 Solvation Energy Contributions (Hartrees)
          esola   esolb+esolc
     0.06864098   -0.13728196
 esol last cycle   -0.06864098
  
 Hartree-Fock exchange energy:   -591.760125404880     
 cosmo_calcen: 0.5 (esolb+esolc) (Hartrees) =   -0.068641

 Solvation energy (screening term,uncorrected) =    -43.072860 kcal/mol

 Solvation energy (dispersion and cavitation terms) =      0.993243 kcal/mol
 Solvation Energy Contributions (Hartrees)
          esola   esolb+esolc
     0.06864096   -0.13728193
 esol last cycle   -0.06864096

 Energy gradients wrt nuclear displacements
 ==========================================

     Atom      Cartesian (a.u./angstrom)
                 X         Y         Z
 ----------------------------------------
     1 Pa   -0.000293  0.000123 -0.000333
     2 O     0.000055 -0.000036 -0.000027
     3 O     0.000103  0.000027  0.000048
     4 Br    0.000097  0.000071  0.000055
     5 H     0.000010  0.000043  0.000011
     6 O    -0.000116  0.000032  0.000130
     7 H    -0.000074  0.000046  0.000009
     8 H    -0.000091 -0.000031 -0.000017
     9 H     0.000044 -0.000074 -0.000039
    10 O     0.000265 -0.000202  0.000164
 ----------------------------------------
 Mulliken charges used for AMS results%charges...
 
----------------------------------------------------------------------
Geometry Convergence after Step  14       (Hartree/Angstrom,Angstrom)
----------------------------------------------------------------------
current energy                               -2.66080177 Hartree
energy change                      -0.00000043     0.00001000    T
constrained gradient max            0.00033576     0.00010000    F
constrained gradient rms            0.00011338     0.00006667    F
gradient max                        0.00033576
gradient rms                        0.00011338
cart. step max                      0.00205694     0.00100000    F
cart. step rms                      0.00061453     0.00066667    T
 
 
--------
Geometry
--------
Formula: H4BrO4Pa
Atoms
  Index Symbol   x (angstrom)   y (angstrom)   z (angstrom)
      1     Pa    -0.16179431     0.07337772     0.80357429       adf.R=2.200
      2      O     1.10898672     1.52287564    -0.11147585       adf.R=1.517
      3      O    -1.74132624     0.80609938    -0.35931756       adf.R=1.517
      4     Br    -0.92672223     1.65133827     3.10851295       adf.R=1.850
      5      H    -1.83236580     1.54925371    -0.97160339       adf.R=1.350
      6      O     0.02980591    -1.63505212    -1.00157718       adf.R=1.517
      7      H    -0.46444199    -1.64523774    -1.83189109       adf.R=1.350
      8      H     0.71301158    -2.31540898    -1.06384472       adf.R=1.350
      9      H     2.06403634     1.61677564    -0.01305778       adf.R=1.350
     10      O     1.18571313    -0.85448433     1.67766882       adf.R=1.517
 
Total System Charge             0.00000
Bonding info available!
 
 *** GO1_GOStep15 ***

 SOLVATION
-------------------------------------------

  The Delley construction of COSMO surface surface is calculated

       Division Level for Surface Triangles (NDIV)                  3
       Final Division Level for Triangles (NFDIV)                   1
       Radius of the Solvent (RSOL)                           1.93000 angstr
  Dielectric Constant (EPSL)                                 78.39000

       COSMO equation is solved iteratively-               conjugate-gradient

       Maximun of Iterations for Charges (NCIX)                  1000
       Criterion for Charge convergence (CCNV)                1.0E-08

  COSMO charges included variationally in SCF

       COSMO included at every SCF cycle

  Geometry-dependent empirical factor                         0.00000

  C-Matrix calculated in cspmtx

  In cspmtx, C-Matrix calculated using fitted potential

-------------------------------------------



 -------------------------------------------
  COSMO surface
  Area             =          531.131
  Volume           =          861.442
  Number of Points =         1267
 -------------------------------------------



 ======================
 RI Hartree-Fock Scheme
 ======================
  
 Fit Set Quality     : GOOD
 Threshold Quality   : GOOD
 Integration Quality : GOOD
 Response Quality    : DEFAULT
 Is Range Separated  :  F
 
 RIHartreeFock Dependency: number of modified vectors:           4
 cosmo_calcen: 0.5 (esolb+esolc) (Hartrees) =   -0.068620

 Solvation energy (screening term,uncorrected) =    -43.059914 kcal/mol

 Solvation energy (dispersion and cavitation terms) =      0.993173 kcal/mol
 Solvation Energy Contributions (Hartrees)
          esola   esolb+esolc
     0.06862033   -0.13724067
 esol last cycle   -0.06862033
  
 Hartree-Fock exchange energy:   -591.760088715003     
 cosmo_calcen: 0.5 (esolb+esolc) (Hartrees) =   -0.068620

 Solvation energy (screening term,uncorrected) =    -43.059906 kcal/mol

 Solvation energy (dispersion and cavitation terms) =      0.993173 kcal/mol
 Solvation Energy Contributions (Hartrees)
          esola   esolb+esolc
     0.06862032   -0.13724064
 esol last cycle   -0.06862032

 Energy gradients wrt nuclear displacements
 ==========================================

     Atom      Cartesian (a.u./angstrom)
                 X         Y         Z
 ----------------------------------------
     1 Pa   -0.000189  0.000107 -0.000190
     2 O     0.000078 -0.000029 -0.000037
     3 O     0.000017  0.000057 -0.000007
     4 Br    0.000103  0.000058  0.000054
     5 H     0.000010  0.000047  0.000015
     6 O    -0.000106 -0.000023  0.000049
     7 H    -0.000079  0.000040  0.000016
     8 H    -0.000088 -0.000022 -0.000004
     9 H     0.000049 -0.000075 -0.000041
    10 O     0.000206 -0.000160  0.000145
 ----------------------------------------
 Mulliken charges used for AMS results%charges...

 dE(predicted):    -0.11625E-06, dE(actual):    -0.15231E-05, Trust radius:    0.020000, all in a.u.
 
----------------------------------------------------------------------
Geometry Convergence after Step  15       (Hartree/Angstrom,Angstrom)
----------------------------------------------------------------------
current energy                               -2.66080329 Hartree
energy change                      -0.00000152     0.00001000    T
constrained gradient max            0.00021133     0.00010000    F
constrained gradient rms            0.00007812     0.00006667    F
gradient max                        0.00021133
gradient rms                        0.00007812
cart. step max                      0.00296093     0.00100000    F
cart. step rms                      0.00088812     0.00066667    F
 
 
--------
Geometry
--------
Formula: H4BrO4Pa
Atoms
  Index Symbol   x (angstrom)   y (angstrom)   z (angstrom)
      1     Pa    -0.16151072     0.07378167     0.80302285       adf.R=2.200
      2      O     1.10923574     1.52372306    -0.11136514       adf.R=1.517
      3      O    -1.74124605     0.80709158    -0.35953471       adf.R=1.517
      4     Br    -0.92760659     1.64966318     3.10882576       adf.R=1.850
      5      H    -1.83166321     1.55072387    -0.97133728       adf.R=1.350
      6      O     0.03046884    -1.63505288    -1.00212462       adf.R=1.517
      7      H    -0.46603036    -1.64819867    -1.83104531       adf.R=1.350
      8      H     0.71314905    -2.31599943    -1.06351717       adf.R=1.350
      9      H     2.06428128     1.61774371    -0.01301765       adf.R=1.350
     10      O     1.18582512    -0.85393891     1.67708177       adf.R=1.517
 
Total System Charge             0.00000
Bonding info available!
 
 *** GO1_GOStep16 ***

 SOLVATION
-------------------------------------------

  The Delley construction of COSMO surface surface is calculated

       Division Level for Surface Triangles (NDIV)                  3
       Final Division Level for Triangles (NFDIV)                   1
       Radius of the Solvent (RSOL)                           1.93000 angstr
  Dielectric Constant (EPSL)                                 78.39000

       COSMO equation is solved iteratively-               conjugate-gradient

       Maximun of Iterations for Charges (NCIX)                  1000
       Criterion for Charge convergence (CCNV)                1.0E-08

  COSMO charges included variationally in SCF

       COSMO included at every SCF cycle

  Geometry-dependent empirical factor                         0.00000

  C-Matrix calculated in cspmtx

  In cspmtx, C-Matrix calculated using fitted potential

-------------------------------------------



 -------------------------------------------
  COSMO surface
  Area             =          531.251
  Volume           =          861.592
  Number of Points =         1267
 -------------------------------------------



 ======================
 RI Hartree-Fock Scheme
 ======================
  
 Fit Set Quality     : GOOD
 Threshold Quality   : GOOD
 Integration Quality : GOOD
 Response Quality    : DEFAULT
 Is Range Separated  :  F
 
 RIHartreeFock Dependency: number of modified vectors:           4
 cosmo_calcen: 0.5 (esolb+esolc) (Hartrees) =   -0.068600

 Solvation energy (screening term,uncorrected) =    -43.047418 kcal/mol

 Solvation energy (dispersion and cavitation terms) =      0.993399 kcal/mol
 Solvation Energy Contributions (Hartrees)
          esola   esolb+esolc
     0.06860042   -0.13720084
 esol last cycle   -0.06860042
  
 Hartree-Fock exchange energy:   -591.760190537295     
 cosmo_calcen: 0.5 (esolb+esolc) (Hartrees) =   -0.068600

 Solvation energy (screening term,uncorrected) =    -43.047413 kcal/mol

 Solvation energy (dispersion and cavitation terms) =      0.993399 kcal/mol
 Solvation Energy Contributions (Hartrees)
          esola   esolb+esolc
     0.06860041   -0.13720082
 esol last cycle   -0.06860041

 Energy gradients wrt nuclear displacements
 ==========================================

     Atom      Cartesian (a.u./angstrom)
                 X         Y         Z
 ----------------------------------------
     1 Pa    0.000038  0.000024  0.000012
     2 O     0.000073 -0.000038 -0.000036
     3 O    -0.000046  0.000083 -0.000040
     4 Br    0.000106  0.000041  0.000039
     5 H     0.000014  0.000052  0.000017
[...]
    30          3832.6786             270.6864

 Zero-point energy (Hartree):     0.0501

 ------------
 Normal Modes
 ------------

 Number of removed rigid normal modes: 6
 
 Mode:     7      Frequency (cm-1):       25.9501     Intensity (km/mol):       11.8570
 Index  Atom      ---- Displacements (x/y/z) ----
     1    Pa       0.029171   0.033146  -0.017066
     2     O       0.044570  -0.003327  -0.059975
     3     O       0.038238   0.054638  -0.014139
     4    Br      -0.052502  -0.067641   0.022623
     5     H       0.072817   0.041378  -0.035447
     6     O      -0.237596  -0.199632   0.187901
     7     H      -0.428224  -0.393652   0.308074
     8     H      -0.407421  -0.378443   0.295960
     9     H       0.046073  -0.024451  -0.053737
    10     O       0.037634   0.050867  -0.011332
 
 Mode:     8      Frequency (cm-1):       69.7305     Intensity (km/mol):        2.7298
 Index  Atom      ---- Displacements (x/y/z) ----
     1    Pa      -0.052236   0.025213  -0.030187
     2     O       0.009971  -0.006218   0.005062
     3     O       0.033411   0.009917  -0.165228
     4    Br       0.089154  -0.046521   0.063372
     5     H       0.123729  -0.038454  -0.237398
     6     O       0.305915  -0.161326   0.192325
     7     H       0.406204  -0.408891   0.137018
     8     H       0.370828  -0.118781   0.444776
     9     H       0.002441  -0.006824   0.081787
    10     O      -0.091576   0.059080   0.064340
 
 Mode:     9      Frequency (cm-1):       83.8445     Intensity (km/mol):       73.3701
 Index  Atom      ---- Displacements (x/y/z) ----
     1    Pa      -0.004990  -0.022083  -0.008390
     2     O      -0.073590   0.218603   0.278499
     3     O       0.019895   0.014473  -0.022420
     4    Br       0.030729   0.021268  -0.035122
     5     H       0.017191   0.124265   0.111078
     6     O      -0.011189  -0.017432   0.006503
     7     H      -0.378130  -0.370930   0.237824
     8     H      -0.274982  -0.293306   0.161266
     9     H      -0.100623   0.326457   0.439270
    10     O       0.031751   0.011857  -0.027932
 
 Mode:    10      Frequency (cm-1):      104.7240     Intensity (km/mol):      249.7179
 Index  Atom      ---- Displacements (x/y/z) ----
     1    Pa      -0.003152  -0.008252  -0.001339
     2     O       0.021163  -0.067354  -0.072021
     3     O      -0.021172   0.094129   0.090392
     4    Br      -0.010305   0.001132  -0.002460
     5     H       0.003277   0.135212   0.136227
     6     O       0.129654   0.098008  -0.050567
     7     H      -0.516054  -0.548066   0.357494
     8     H      -0.246565  -0.296244   0.184709
     9     H       0.029522  -0.134802  -0.086625
    10     O       0.012720   0.041998   0.026389
 
 Mode:    11      Frequency (cm-1):      117.3993     Intensity (km/mol):       35.6436
 Index  Atom      ---- Displacements (x/y/z) ----
     1    Pa      -0.003443  -0.014733  -0.005304
     2     O      -0.019210   0.016190   0.011315
     3     O      -0.018074   0.233517   0.182114
     4    Br      -0.008176  -0.005318  -0.037673
     5     H      -0.044921   0.436507   0.432603
     6     O       0.025644  -0.122906   0.068534
     7     H       0.496386   0.190438  -0.225791
     8     H       0.351893   0.208286  -0.011435
     9     H      -0.018721  -0.010262   0.035754
    10     O       0.052270   0.060260  -0.014029
 
 Mode:    12      Frequency (cm-1):      129.3983     Intensity (km/mol):       25.8722
 Index  Atom      ---- Displacements (x/y/z) ----
     1    Pa       0.023174   0.040812  -0.014164
     2     O       0.088003   0.032989   0.078498
     3     O      -0.240953  -0.149838   0.229281
     4    Br      -0.001386  -0.020419  -0.045792
     5     H      -0.641884  -0.088874   0.362584
     6     O       0.076772  -0.044089   0.074871
     7     H       0.048511  -0.222733   0.096249
     8     H       0.065201  -0.067048   0.208186
     9     H       0.098238   0.079838  -0.082385
    10     O      -0.224622  -0.308995   0.011041
 
 Mode:    13      Frequency (cm-1):      141.1809     Intensity (km/mol):        4.9152
 Index  Atom      ---- Displacements (x/y/z) ----
     1    Pa       0.005781  -0.020279  -0.014495
     2     O      -0.009460  -0.009173   0.009054
     3     O       0.058308   0.054717  -0.023547
     4    Br      -0.093964   0.139816   0.147123
     5     H       0.151697   0.003796  -0.099265
     6     O       0.136409  -0.074685   0.086832
     7     H       0.124370  -0.371380   0.101311
     8     H       0.214245  -0.013939   0.286965
     9     H       0.035776  -0.228684  -0.211342
    10     O       0.161701  -0.329346  -0.593766
 
 Mode:    14      Frequency (cm-1):      152.7776     Intensity (km/mol):       97.8989
 Index  Atom      ---- Displacements (x/y/z) ----
     1    Pa       0.042235  -0.059622  -0.124639
     2     O       0.048005   0.024164   0.062854
     3     O      -0.097461  -0.065834   0.125997
     4    Br      -0.060348   0.157989   0.259993
     5     H      -0.396718   0.133230   0.409178
     6     O      -0.073898  -0.084681  -0.092979
     7     H       0.069989   0.185588  -0.188197
     8     H      -0.038738  -0.039670  -0.227164
     9     H       0.005034   0.267627   0.241162
    10     O      -0.166233   0.173582   0.406856
 
 Mode:    15      Frequency (cm-1):      172.9395     Intensity (km/mol):       33.1760
 Index  Atom      ---- Displacements (x/y/z) ----
     1    Pa      -0.023124   0.007926  -0.007200
     2     O       0.274193  -0.130804   0.169494
     3     O      -0.086949  -0.112346   0.030091
     4    Br       0.003146  -0.003281  -0.003767
     5     H      -0.380335  -0.103499   0.083272
     6     O      -0.020570  -0.008633   0.000217
     7     H      -0.147281  -0.083218   0.078539
     8     H       0.235017   0.265349  -0.211826
     9     H       0.282273  -0.441336   0.388082
    10     O       0.152472   0.176336  -0.098522
 
 Mode:    16      Frequency (cm-1):      224.5167     Intensity (km/mol):       63.2237
 Index  Atom      ---- Displacements (x/y/z) ----
     1    Pa       0.003087  -0.000352  -0.000695
     2     O      -0.020547   0.013426   0.000860
     3     O       0.000465   0.031810   0.013413
     4    Br      -0.000566   0.000455  -0.000531
     5     H       0.141569  -0.139858  -0.215916
     6     O      -0.010000  -0.030482   0.005437
     7     H      -0.378614  -0.276716   0.234057
     8     H       0.468803   0.485347  -0.417197
     9     H      -0.023341   0.065185  -0.024680
    10     O      -0.024844  -0.020354   0.019650
 
 Mode:    17      Frequency (cm-1):      245.8715     Intensity (km/mol):      226.6802
 Index  Atom      ---- Displacements (x/y/z) ----
     1    Pa      -0.000485   0.001965   0.004140
     2     O      -0.013742  -0.002319  -0.032956
     3     O       0.045673  -0.052731  -0.095328
     4    Br       0.001193  -0.001197   0.002722
     5     H      -0.240375   0.570102   0.702906
     6     O      -0.003994   0.007649   0.016367
     7     H      -0.161087  -0.057394   0.113014
     8     H       0.131348   0.158065  -0.147524
     9     H      -0.012862  -0.013898  -0.028116
    10     O      -0.008984  -0.016462  -0.001650
 
 Mode:    18      Frequency (cm-1):      281.6606     Intensity (km/mol):       66.5771
 Index  Atom      ---- Displacements (x/y/z) ----
     1    Pa       0.003024  -0.030131  -0.029046
     2     O       0.007098   0.020138   0.003285
     3     O      -0.023569   0.022498   0.000585
     4    Br       0.002015  -0.003170  -0.007179
     5     H      -0.002819  -0.068481  -0.111494
     6     O      -0.054548   0.361447   0.399770
     7     H      -0.002305   0.450755   0.363273
     8     H       0.056986   0.474778   0.338980
     9     H       0.020317  -0.056193  -0.057411
    10     O       0.012843  -0.003676   0.017719
 
 Mode:    19      Frequency (cm-1):      338.3817     Intensity (km/mol):      220.7233
 Index  Atom      ---- Displacements (x/y/z) ----
     1    Pa      -0.000600   0.001213   0.001872
     2     O       0.017358  -0.049018  -0.077344
     3     O       0.008367   0.002456   0.011469
     4    Br      -0.001524   0.000065   0.000338
     5     H      -0.066866  -0.025363  -0.010770
     6     O      -0.001040   0.012220   0.005884
     7     H       0.013983  -0.023172  -0.002383
     8     H       0.015761   0.026035   0.038840
     9     H      -0.133827   0.566777   0.801629
    10     O       0.002279  -0.017790  -0.020836
 
 Mode:    20      Frequency (cm-1):      373.7179     Intensity (km/mol):      388.3994
 Index  Atom      ---- Displacements (x/y/z) ----
     1    Pa      -0.005446  -0.003518   0.001027
     2     O      -0.001234   0.077640  -0.048024
     3     O       0.137844   0.024977   0.031301
     4    Br       0.000561  -0.000252  -0.000094
     5     H      -0.864275  -0.270886  -0.171845
     6     O       0.002116  -0.004418  -0.002125
     7     H      -0.023739  -0.011183   0.013908
     8     H       0.007083   0.002486  -0.021599
     9     H       0.024460  -0.322151   0.122926
    10     O      -0.008867  -0.008219   0.008040
 
 Mode:    21      Frequency (cm-1):      432.3889     Intensity (km/mol):      228.1082
 Index  Atom      ---- Displacements (x/y/z) ----
     1    Pa      -0.003353  -0.003666   0.001523
     2     O       0.051702   0.143666  -0.096007
     3     O      -0.011107  -0.049886   0.037280
     4    Br      -0.000176   0.000838   0.000903
     5     H       0.539479   0.077225   0.102379
     6     O       0.002245  -0.005239   0.000162
     7     H      -0.001800   0.034502   0.001326
     8     H      -0.001124  -0.005591  -0.036087
     9     H       0.079187  -0.639517   0.486879
    10     O      -0.032333  -0.006107  -0.002825
 
 Mode:    22      Frequency (cm-1):      461.0819     Intensity (km/mol):       45.6991
 Index  Atom      ---- Displacements (x/y/z) ----
     1    Pa       0.000474  -0.001410   0.000739
     2     O       0.006326   0.010625  -0.001901
     3     O       0.023104  -0.021547   0.005130
     4    Br       0.000212  -0.000113  -0.000288
     5     H       0.036425   0.006193   0.036528
     6     O      -0.074708   0.043985  -0.048590
     7     H       0.271406  -0.600998  -0.242827
     8     H       0.242514   0.301750   0.582578
     9     H       0.012854  -0.006416  -0.051498
    10     O       0.001896   0.006726   0.015650
 
 Mode:    23      Frequency (cm-1):      513.3808     Intensity (km/mol):      163.5627
 Index  Atom      ---- Displacements (x/y/z) ----
     1    Pa      -0.022057  -0.006648  -0.000100
     2     O       0.165398   0.101487  -0.049708
     3     O       0.135898  -0.074121   0.104633
     4    Br       0.000723  -0.000443  -0.000734
     5     H       0.237230  -0.043488   0.122463
     6     O       0.010329  -0.003295   0.008250
     7     H      -0.041014   0.077193   0.037346
     8     H      -0.030952  -0.036477  -0.078467
     9     H       0.143915   0.722407  -0.537648
    10     O      -0.016077   0.028797  -0.029353
 
 Mode:    24      Frequency (cm-1):      561.9289     Intensity (km/mol):      332.2669
 Index  Atom      ---- Displacements (x/y/z) ----
     1    Pa       0.011157  -0.031944   0.030443
     2     O       0.217912   0.217401  -0.132072
     3     O      -0.313062   0.178040  -0.250429
     4    Br      -0.002719   0.004657   0.005897
     5     H      -0.565099   0.109138  -0.291850
     6     O      -0.007225  -0.015652  -0.028048
     7     H       0.034518  -0.089654  -0.052692
     8     H       0.027584   0.009716   0.056335
     9     H       0.212223   0.385617  -0.252181
    10     O      -0.027038   0.032512  -0.024225
 
 Mode:    25      Frequency (cm-1):      796.0252     Intensity (km/mol):      533.0610
 Index  Atom      ---- Displacements (x/y/z) ----
     1    Pa       0.052051  -0.024866   0.026066
     2     O      -0.088735  -0.095000   0.058677
     3     O       0.049066  -0.018094   0.029498
     4    Br       0.002053  -0.004817  -0.007576
     5     H      -0.074127  -0.052037   0.016412
     6     O      -0.007108   0.026069   0.021758
     7     H       0.021992  -0.025454   0.007810
     8     H       0.003636   0.036820   0.052089
     9     H      -0.095356  -0.090401   0.056502
    10     O      -0.706133   0.478217  -0.457425
 
 Mode:    26      Frequency (cm-1):     1588.2003     Intensity (km/mol):      126.0313
 Index  Atom      ---- Displacements (x/y/z) ----
     1    Pa      -0.000043  -0.000097  -0.000082
     2     O       0.000217   0.000135  -0.000176
     3     O      -0.000279  -0.000104  -0.000916
     4    Br      -0.000022   0.000035   0.000061
     5     H      -0.001509   0.000353   0.000024
     6     O      -0.010255   0.046324   0.056370
     7     H       0.402248  -0.532572  -0.221945
     8     H      -0.240154  -0.169559  -0.642998
     9     H       0.000362   0.000290  -0.000142
    10     O       0.000914  -0.000925   0.000112
 
 Mode:    27      Frequency (cm-1):     3751.9477     Intensity (km/mol):      172.2708
 Index  Atom      ---- Displacements (x/y/z) ----
     1    Pa      -0.000001   0.000031   0.000028
     2     O       0.000430  -0.000067   0.000085
     3     O      -0.000095   0.001721  -0.001426
     4    Br       0.000005  -0.000008  -0.000013
     5     H       0.003614  -0.028689   0.023869
     6     O      -0.008142   0.030365   0.037567
     7     H      -0.381031   0.009862  -0.585475
     8     H       0.511701  -0.495954  -0.015733
     9     H      -0.008323  -0.000965  -0.000763
    10     O      -0.000145   0.000067  -0.000145
 
 Mode:    28      Frequency (cm-1):     3774.5304     Intensity (km/mol):      305.8223
 Index  Atom      ---- Displacements (x/y/z) ----
     1    Pa       0.000045  -0.000016   0.000035
     2     O       0.001603  -0.000028   0.000304
     3     O       0.006100  -0.047786   0.039461
     4    Br       0.000006  -0.000017  -0.000030
     5     H      -0.098412   0.764534  -0.632057
     6     O      -0.000186   0.001135   0.001587
     7     H      -0.015355   0.000260  -0.023991
     8     H       0.018095  -0.017393  -0.000363
     9     H      -0.030983  -0.002951  -0.003412
    10     O      -0.000212   0.000085  -0.000141
 
 Mode:    29      Frequency (cm-1):     3801.7348     Intensity (km/mol):      206.1761
 Index  Atom      ---- Displacements (x/y/z) ----
     1    Pa       0.000028   0.000006   0.000002
     2     O       0.061746   0.006781   0.005863
     3     O      -0.000381   0.001595  -0.001386
     4    Br      -0.000003   0.000016   0.000023
     5     H       0.003422  -0.023286   0.019297
     6     O       0.000301  -0.000482  -0.000288
     7     H       0.002474  -0.000240   0.003210
     8     H      -0.006876   0.006533   0.000222
     9     H      -0.987293  -0.105750  -0.095595
    10     O       0.000212  -0.000324   0.000261
 
 Mode:    30      Frequency (cm-1):     3832.6786     Intensity (km/mol):      270.6864
 Index  Atom      ---- Displacements (x/y/z) ----
     1    Pa       0.000005  -0.000003   0.000005
     2     O      -0.000239  -0.000036  -0.000029
     3     O      -0.000016   0.000103  -0.000113
     4    Br       0.000001  -0.000000  -0.000000
     5     H       0.000256  -0.002230   0.001535
     6     O       0.054151  -0.030129   0.035439
     7     H      -0.369137  -0.014112  -0.609326
     8     H      -0.491611   0.493323   0.045761
     9     H       0.003901   0.000377   0.000320
    10     O       0.000004   0.000025   0.000021

PES point character: Geometry corresponds to a local minimum on the PES.




 ============================
 Statistical Thermal Analysis  ***  ideal gas assumed  ***
 ============================
  
 Pressure:                  1.000000 atm.
 Temperature:             298.150000 K



 Moments of Inertia [amu*bohr^2] and principal axis
 ==================================================

         779.8224       2783.5590       2959.6412
 ------------------------------------------------
          -0.2465         -0.7082         -0.6616
           0.5448          0.4633         -0.6990
           0.8015         -0.5327          0.2716


 The rotational contribution to the molecular entropy includes
 a term, dependent on the symmetry number sigma. The results 
 reported below were computed using sigma = 1, determined from
 the point group symmetry of the input geometry (NOSYM). 
 If this is not the correct symmetry, try symmetrizing the molecule before
 running the calculation (note: linear molecules should be aligned along one
 of the Cartesian axes).
 Contributions from frequencies below 20 1/cm are not included in vibrational sums.
 Their contributions, if any, are reported separately.


     Temp                                                        Transl      Rotat     Vibrat     Total
     ----                                                        ------      -----     ------     -----

     298.15   Entropy (cal/mol-K):                               43.681     30.242     41.836    115.759
              Nuclear Internal Energy (kcal/mol):                 0.889      0.889     37.464     39.242
              Constant Volume Heat Capacity (cal/mol-K):          2.981      2.981     31.593     37.555
          (c) Constant Volume Heat Capacity (cal/mol-K):          2.981      2.981     27.684     33.645

       Summary of energy terms
                                                   hartree              eV         kcal/mol           kJ/mol
                                      --------------------     -----------       ----------      -----------
      Energy from Engine:               -2.660805794481455        -72.4042         -1669.68         -6985.94
      Nuclear Internal Energy:           0.062535678749964          1.7017            39.24           164.19
  (c) Nuclear Internal Energy:           0.060527071839643          1.6470            37.98           158.91
      Internal Energy U:                -2.598270115731490        -70.7025         -1630.44         -6821.76
      pV/n = RT:                         0.000944186013486          0.0257             0.59             2.48
      Enthalpy H:                       -2.597325929718004        -70.6768         -1629.85         -6819.28
      -T*S:                             -0.055000863392430         -1.4966           -34.51          -144.40
  (c) -T*S:                             -0.053210934790705         -1.4479           -33.39          -139.71
      Gibbs free energy:                -2.652326793110435        -72.1735         -1664.36         -6963.68
 
 
 
  (c) The properties marked with this symbol have been corrected using 'low vibrational frequency free rotor
      interpolation corrections'. For those terms all positive frequencies are used (also ones below 20 1/cm),
      but the contribution to the partition function of small vibrational frequencies is modified as described
      in the following paper:
      S. Grimme, 'Supramolecular Binding Thermodynamics by Dispersion-Corrected Density Functional Theory'
      (Chem. Eur. J. 2012, 18, 9955-9964)
      Configuration: Dampener Frequency          :   100.000 1/cm
                     Dampener Alpha              :     4.000
                     Averaging Moment of Inertia : 1.000E-44 kg m2

--------------
Atomic charges
--------------
  Index   Atom    Charge
      1     Pa    2.5095
      2      O   -0.7351
      3      O   -0.6608
      4     Br   -0.6852
      5      H    0.1454
      6      O   -0.3993
      7      H    0.2393
      8      H    0.2425
      9      H    0.1514
     10      O   -0.8075


Dipole moment vector    (Debye):    -0.69458868   -7.68157457  -10.88779407
              magnitude (Debye):    13.34290452


Final PES point is a local minimum. Geometry optimization successful!


AMS application finished. Exiting.
NORMAL TERMINATION
     Total cpu time:  152534.71
  Total system time:    3508.47
 Total elapsed time:  156391.95
