

 Parallel Execution: Process Information
 ==============================================================================
 Rank   Node Name                              NodeID   MyNodeRank  NodeMaster
    0   u-5-2.local                               0          0          0
    1   u-5-2.local                               0          1         -1
    2   u-5-2.local                               0          2         -1
    3   u-5-2.local                               0          3         -1
    4   u-5-2.local                               1          0          1
    5   u-5-2.local                               1          1         -1
    6   u-5-2.local                               1          2         -1
    7   u-5-2.local                               1          3         -1
 ==============================================================================


May use up to 15580MB of RAM as shared memory on node 0
May use up to 15625MB of RAM as shared memory on node 1

 *******************************************************************************
 *                                                                             *
 *  --------------------------------                                           *
 *   Amsterdam Modeling Suite (AMS)              2022.103                      *
 *  --------------------------------                                           *
 *                                               r104886 2022-06-17            *
 *                                                                             *
 *                                                                             *
 *                              =================                              *
 *                              |               |                              *
 *                              |     A M S     |                              *
 *                              |               |                              *
 *                              =================                              *
 *                                                                             *
 *                                                                             *
 *   Online information and documentation:  https://www.scm.com/support/       *
 *   E-mail:  support@scm.com   info@scm.com                                   *
 *                                                                             *
 *   Scientific publications using AMS results must be properly referenced     *
 *   See the User Manuals (or the web site) for recommended citations          *
 *   The terms and conditions of the End User License Agreement apply to       *
 *   the use of AMS, https://www.scm.com/license-terms/                        *
 *                                                                             *
 **********************  x86_64_linux_intel / intelmpi  ************************
 
 Licensed to: Dr. Val?rie Vallet / Laboratoire PhLAM UMR 8523 / Villeneuve d'Ascq Cedex / FRANCE 2023-02-21 11:49:39
 SCM User ID: u10325
  
 AMS 2022.103  RunTime: Feb23-2023 17:53:25  ShM Nodes: 2  Procs: 8

 AMS jobname: ams
 AMS jobid  : 429576775

 Start   directory: /home/shaaban/ams/PhD/sulfate/pao_oh2_so4_h2o/gp/
 Results directory: /home/shaaban/ams/PhD/sulfate/pao_oh2_so4_h2o/gp/pao_oh2_so4_h2o.SR.b3lyp.tz2p.opt-freq.results/
 Scratch directory: /state/partition1/shaaban/929452.phlam-s-sakura/amstmp_ams_kid0.429576775/


 Communication costs MPI_COMM_WORLD:      1.688 usec per message,   0.0073 usec per 8-byte item
 Communication costs for intra-node:      0.824 usec per message,   0.0032 usec per 8-byte item

 RNG seed: 1788636075 -1846306099 152476621 -791869512 188287349 -377289886 -2093632696 -1951016424



                      ************************************************************************
                      *  ADF 2022.103  RunTime: Feb23-2023 17:53:26  ShM Nodes: 2  Procs: 8  *
                      ************************************************************************
  
       ***************************
       *  GEOMETRY OPTIMIZATION  *
       ***************************

Optimization Method                    Quasi Newton
Optimization Coordinates               Delocalized Coordinates
Optimize lattice                       F
 
 ------------------------------------------------------
 Convergence criteria (Hartree,Angstrom)
 ------------------------------------------------------
 Maximum gradient               0.000100000000
 Maximum rms gradient           0.000066666667
 Maximum step allowed           0.001000000000
 Maximum rms step allowed       0.000666666667
 Maximum energy change allowe   0.000014000000
 Maximum stress energy allowe   0.000500000000
 
Initial model Hessian                  Automatic Hessian
 
------------------------------------
Quasi-Newton Optimizer Parameters
------------------------------------
Hessian Update Method                  BFGS
Maximum number of steps                  250
First GDIIS cycle                          0
Maximum GDIIS vectors                      0
Trust radius (bohr)                        0.200000
Trust radius varies                        T
Constraints converged at all steps         T
Use projector                              T
 
 Rigid motions settings for: old optimizer
 Atomic rotations (x,y,z):     T T T
 Atomic translations (x,y,z):  T T T
 Tolerance:                   1.000000000000000E-006
 
--------
Geometry
--------
Formula: H4O8PaS
Atoms
  Index Symbol   x (angstrom)   y (angstrom)   z (angstrom)
      1     Pa     0.63368993    -0.25088997     0.00555608
      2      O     1.48419688     0.94575439    -1.58549064
      3      H     1.52648526     1.80867043    -2.00906767
      4      O    -0.57431489     0.84383025     0.89504834
      5      O     4.41597729    -0.62751143    -0.34649112
      6      O    -0.88630676    -1.21316551    -1.26592885
      7      H    -1.07808081    -1.28757538    -2.20778016
      8      O    -0.78232491    -2.03976086     1.36549596
      9      H    -1.56228060    -1.52614491     1.62208849
     10      O     2.77012716    -0.43332418     1.24243514
     11      O     1.88704422    -2.13632623    -0.28414523
     12      S     3.34408803    -1.50800992     0.33869624
     13      O     3.98928031    -2.77152734     0.69709274
     14      H    -0.96577847    -0.66355950    -0.48284680
 
Total System Charge            -1.00000
Bonding info available!
 
 
----------------
ADF Engine Input
----------------
 
 Basis
 Type TZ2P
 Core None
 End
 XC
 Hybrid B3LYP
 End
 NumericalQuality Good
 

 Title: *** (NO TITLE) ***

 Using automatic Hessian for delocalized coordinates.
 *** GO1_GOStep1 ***



 ======================
 RI Hartree-Fock Scheme
 ======================
  
 Fit Set Quality     : GOOD
 Threshold Quality   : GOOD
 Integration Quality : GOOD
 Response Quality    : DEFAULT
 Is Range Separated  :  F
 
 RIHartreeFock Dependency: number of modified vectors:           6
  
 Hartree-Fock exchange energy:   -558.848620204676     

 Energy gradients wrt nuclear displacements
 ==========================================

     Atom      Cartesian (a.u./angstrom)
                 X         Y         Z
 ----------------------------------------
     1 Pa   -0.299602  0.014590 -0.202255
     2 O     0.022776 -0.000407 -0.000437
     3 H    -0.003977  0.005525 -0.003637
     4 O     0.010060 -0.015510  0.022639
     5 O     0.102130  0.084968  0.013734
     6 O     0.001349  0.112727  0.089342
     7 H     0.024641 -0.041380 -0.013325
     8 O    -0.030474 -0.065803  0.046029
     9 H    -0.008310  0.005294 -0.008068
    10 O     0.067552  0.028048 -0.035686
    11 O    -0.056752 -0.105423  0.012062
    12 S    -0.142773 -0.005894  0.070607
    13 O     0.030830 -0.031285 -0.041982
    14 H     0.282549  0.014549  0.050977
 ----------------------------------------
 Mulliken charges used for AMS results%charges...
 
----------------------------------------------------------------------
Geometry Convergence after Step   1       (Hartree/Angstrom,Angstrom)
----------------------------------------------------------------------
current energy                               -3.81701173 Hartree
energy change                      -3.81701173     0.00001400    F
constrained gradient max            0.29960776     0.00010000    F
constrained gradient rms            0.08642702     0.00006667    F
gradient max                        0.29960776
gradient rms                        0.08642702
cart. step max                      0.04768963     0.00100000    F
cart. step rms                      0.01402263     0.00066667    F
 
 
--------
Geometry
--------
Formula: H4O8PaS
Atoms
  Index Symbol   x (angstrom)   y (angstrom)   z (angstrom)
      1     Pa     0.64196731    -0.24977813     0.01512094
      2      O     1.48222029     0.94759922    -1.57586203
      3      H     1.52218014     1.80804435    -2.00068155
      4      O    -0.57709858     0.84653573     0.89004298
      5      O     4.39383121    -0.65165418    -0.35474099
      6      O    -0.90006796    -1.22262272    -1.28286612
      7      H    -1.07945012    -1.28123911    -2.22506789
      8      O    -0.75567524    -2.02548768     1.36289528
      9      H    -1.53647419    -1.51975162     1.62483987
     10      O     2.77019686    -0.44000744     1.25375947
     11      O     1.90984379    -2.11161933    -0.27753409
     12      S     3.35786721    -1.51138985     0.34330709
     13      O     3.98593003    -2.77318506     0.70551335
     14      H    -1.01346810    -0.67498432    -0.49406378
 
Total System Charge            -1.00000
Bonding info available!
 
 *** GO1_GOStep2 ***



 ======================
 RI Hartree-Fock Scheme
 ======================
  
 Fit Set Quality     : GOOD
 Threshold Quality   : GOOD
 Integration Quality : GOOD
 Response Quality    : DEFAULT
 Is Range Separated  :  F
 
 RIHartreeFock Dependency: number of modified vectors:           6
  
 Hartree-Fock exchange energy:   -558.883524338543     

 Energy gradients wrt nuclear displacements
 ==========================================

     Atom      Cartesian (a.u./angstrom)
                 X         Y         Z
 ----------------------------------------
     1 Pa   -0.251628  0.030524 -0.183267
     2 O     0.020415  0.000264  0.000271
     3 H    -0.003667  0.002593 -0.001988
     4 O     0.010799 -0.016206  0.021994
     5 O     0.080046  0.067253  0.022997
     6 O    -0.010216  0.096967  0.060431
     7 H     0.025854 -0.042296 -0.009022
     8 O    -0.031942 -0.063748  0.047690
     9 H    -0.005498  0.003566 -0.009206
    10 O     0.057624  0.028893 -0.032941
    11 O    -0.052200 -0.094762  0.018517
    12 S    -0.104132 -0.009066  0.058022
    13 O     0.020878 -0.019531 -0.046802
    14 H     0.243668  0.015550  0.053305
 ----------------------------------------
 Mulliken charges used for AMS results%charges...

 dE(predicted):    -0.26610E-01, dE(actual):    -0.31917E-01, Trust radius:    0.400000, all in a.u.
 
----------------------------------------------------------------------
Geometry Convergence after Step   2       (Hartree/Angstrom,Angstrom)
----------------------------------------------------------------------
current energy                               -3.84892890 Hartree
energy change                      -0.03191716     0.00001400    F
constrained gradient max            0.25163141     0.00010000    F
constrained gradient rms            0.07413432     0.00006667    F
gradient max                        0.25163141
gradient rms                        0.07413432
cart. step max                      0.09996690     0.00100000    F
cart. step rms                      0.02819903     0.00066667    F
 
 
--------
Geometry
--------
Formula: H4O8PaS
Atoms
  Index Symbol   x (angstrom)   y (angstrom)   z (angstrom)
      1     Pa     0.65876105    -0.25063614     0.03555853
      2      O     1.47864540     0.94870617    -1.55683079
      3      H     1.51394554     1.80603847    -1.98544703
      4      O    -0.58513412     0.85004494     0.87937030
      5      O     4.35200421    -0.69088222    -0.36878882
      6      O    -0.93066775    -1.24064018    -1.30924592
      7      H    -1.08554195    -1.26388437    -2.25377550
      8      O    -0.69778667    -1.99159178     1.34832887
      9      H    -1.48311716    -1.50336103     1.62310824
     10      O     2.77279928    -0.45364616     1.27595492
     11      O     1.95379224    -2.06529925    -0.26362145
     12      S     3.38130095    -1.51970453     0.35216673
     13      O     3.98623661    -2.78278322     0.72519461
     14      H    -1.11343501    -0.70190087    -0.51731018
 
Total System Charge            -1.00000
Bonding info available!
 
 *** GO1_GOStep3 ***



 ======================
 RI Hartree-Fock Scheme
 ======================
  
 Fit Set Quality     : GOOD
 Threshold Quality   : GOOD
 Integration Quality : GOOD
 Response Quality    : DEFAULT
 Is Range Separated  :  F
 
 RIHartreeFock Dependency: number of modified vectors:           6
  
 Hartree-Fock exchange energy:   -558.947793822387     

 Energy gradients wrt nuclear displacements
 ==========================================

     Atom      Cartesian (a.u./angstrom)
                 X         Y         Z
 ----------------------------------------
     1 Pa   -0.172016  0.049733 -0.154649
     2 O     0.015986 -0.001535  0.003224
     3 H    -0.002878  0.000549 -0.000655
     4 O     0.009966 -0.016150  0.021474
     5 O     0.028490  0.028558  0.049040
     6 O    -0.025170  0.076212  0.022525
     7 H     0.027273 -0.043591 -0.004716
     8 O    -0.031104 -0.060124  0.047969
     9 H    -0.003434  0.002387 -0.010427
    10 O     0.040437  0.028959 -0.030754
    11 O    -0.040540 -0.069565  0.032394
    12 S    -0.035914  0.003362  0.021329
    13 O     0.010144 -0.012168 -0.049963
    14 H     0.178761  0.013373  0.053210
 ----------------------------------------
 Mulliken charges used for AMS results%charges...

 dE(predicted):    -0.50150E-01, dE(actual):    -0.51106E-01, Trust radius:    0.800000, all in a.u.
 
----------------------------------------------------------------------
Geometry Convergence after Step   3       (Hartree/Angstrom,Angstrom)
----------------------------------------------------------------------
current energy                               -3.90003501 Hartree
energy change                      -0.05110611     0.00001400    F
constrained gradient max            0.17876524     0.00010000    F
constrained gradient rms            0.05523874     0.00006667    F
gradient max                        0.17876524
gradient rms                        0.05523874
cart. step max                      0.17300894     0.00100000    F
cart. step rms                      0.05233289     0.00066667    F
 
 
--------
Geometry
--------
Formula: H4O8PaS
Atoms
  Index Symbol   x (angstrom)   y (angstrom)   z (angstrom)
      1     Pa     0.68815058    -0.26446398     0.07656784
      2      O     1.46469971     0.94509382    -1.52246988
      3      H     1.48911459     1.79849286    -1.95738008
      4      O    -0.60590597     0.85061631     0.84374588
      5      O     4.29995460    -0.75587272    -0.43692923
      6      O    -0.97743346    -1.26268123    -1.34831818
      7      H    -1.10834713    -1.19981727    -2.29188782
      8      O    -0.59422558    -1.92951232     1.30929065
      9      H    -1.38580317    -1.47877957     1.62190717
     10      O     2.77333519    -0.49054155     1.33020990
     11      O     2.03517190    -1.99272480    -0.25556914
     12      S     3.41902782    -1.53504001     0.37595315
     13      O     3.99050752    -2.79162999     0.80472704
     14      H    -1.28644395    -0.75267972    -0.56518478
 
Total System Charge            -1.00000
Bonding info available!
 
 *** GO1_GOStep4 ***



 ======================
 RI Hartree-Fock Scheme
 ======================
  
 Fit Set Quality     : GOOD
 Threshold Quality   : GOOD
 Integration Quality : GOOD
 Response Quality    : DEFAULT
 Is Range Separated  :  F
 
 RIHartreeFock Dependency: number of modified vectors:           5
  
 Hartree-Fock exchange energy:   -559.023809668640     

 Energy gradients wrt nuclear displacements
 ==========================================

     Atom      Cartesian (a.u./angstrom)
                 X         Y         Z
 ----------------------------------------
     1 Pa   -0.079044  0.055783 -0.117464
     2 O     0.009716 -0.004432  0.007432
     3 H    -0.001455 -0.000817  0.000438
     4 O     0.005965 -0.014514  0.018545
     5 O    -0.020812 -0.010054  0.054909
     6 O    -0.032134  0.051586 -0.015141
     7 H     0.028475 -0.041662 -0.002997
     8 O    -0.024839 -0.048286  0.040450
     9 H    -0.002432  0.001945 -0.010646
    10 O     0.000225  0.023236 -0.018991
    11 O    -0.010594 -0.019525  0.052726
    12 S     0.031342  0.012203 -0.021028
    13 O    -0.002137 -0.015269 -0.044690
    14 H     0.097723  0.009805  0.056454
 ----------------------------------------
 Mulliken charges used for AMS results%charges...

 dE(predicted):    -0.60416E-01, dE(actual):    -0.64609E-01, Trust radius:    1.000000, all in a.u.
 
----------------------------------------------------------------------
Geometry Convergence after Step   4       (Hartree/Angstrom,Angstrom)
----------------------------------------------------------------------
current energy                               -3.96464403 Hartree
energy change                      -0.06460902     0.00001400    F
constrained gradient max            0.11745076     0.00010000    F
constrained gradient rms            0.03762946     0.00006667    F
gradient max                        0.11745076
gradient rms                        0.03762946
cart. step max                      0.17874784     0.00100000    F
cart. step rms                      0.06193986     0.00066667    F
 
 
--------
Geometry
--------
Formula: H4O8PaS
Atoms
  Index Symbol   x (angstrom)   y (angstrom)   z (angstrom)
      1     Pa     0.72096704    -0.29933599     0.11374024
      2      O     1.43172484     0.93257344    -1.49891616
      3      H     1.43796000     1.78418646    -1.93672466
      4      O    -0.61399227     0.84169804     0.79337200
      5      O     4.29798123    -0.82231201    -0.48492167
      6      O    -1.03162485    -1.26492975    -1.39297596
      7      H    -1.19122602    -1.07794475    -2.31557043
      8      O    -0.47970688    -1.87237719     1.25662129
      9      H    -1.26537880    -1.46877601     1.63692786
     10      O     2.78620840    -0.53858204     1.38357621
     11      O     2.11821422    -1.94578402    -0.29095617
     12      S     3.45126674    -1.55916126     0.40562669
     13      O     4.00460077    -2.76911901     0.95625910
     14      H    -1.46519179    -0.79967607    -0.64139582
 
Total System Charge            -1.00000
Bonding info available!
 
 *** GO1_GOStep5 ***



 ======================
 RI Hartree-Fock Scheme
 ======================
  
 Fit Set Quality     : GOOD
 Threshold Quality   : GOOD
 Integration Quality : GOOD
 Response Quality    : DEFAULT
 Is Range Separated  :  F
 
 RIHartreeFock Dependency: number of modified vectors:           5
  
 Hartree-Fock exchange energy:   -559.072473238547     

 Energy gradients wrt nuclear displacements
 ==========================================

     Atom      Cartesian (a.u./angstrom)
                 X         Y         Z
 ----------------------------------------
     1 Pa   -0.026990  0.029307 -0.078377
     2 O     0.004196 -0.005204  0.010061
     3 H     0.000007 -0.001484  0.000675
     4 O     0.000580 -0.011094  0.012341
     5 O    -0.027377 -0.007488  0.025137
     6 O    -0.021863  0.032302 -0.024808
     7 H     0.023434 -0.032084 -0.004015
     8 O    -0.010469 -0.021988  0.020047
     9 H    -0.001532  0.002090 -0.008518
    10 O    -0.015850  0.013491 -0.003312
    11 O     0.011092  0.025166  0.054690
    12 S     0.025609 -0.020876 -0.029183
    13 O    -0.003716 -0.007206 -0.025576
    14 H     0.042881  0.005069  0.050840
 ----------------------------------------
 Mulliken charges used for AMS results%charges...
 Rebuilding optimization coordinates

 dE(predicted):    -0.40557E-01, dE(actual):    -0.44740E-01, Trust radius:    1.000000, all in a.u.
 
----------------------------------------------------------------------
Geometry Convergence after Step   5       (Hartree/Angstrom,Angstrom)
----------------------------------------------------------------------
current energy                               -4.00938440 Hartree
energy change                      -0.04474038     0.00001400    F
constrained gradient max            0.07836139     0.00010000    F
constrained gradient rms            0.02473751     0.00006667    F
gradient max                        0.07836139
gradient rms                        0.02473751
cart. step max                      0.17781130     0.00100000    F
cart. step rms                      0.06734625     0.00066667    F
 
 
--------
Geometry
--------
Formula: H4O8PaS
Atoms
  Index Symbol   x (angstrom)   y (angstrom)   z (angstrom)
      1     Pa     0.74900840    -0.34224083     0.13127036
      2      O     1.37583331     0.91685021    -1.50353168
      3      H     1.35331353     1.76861834    -1.94098111
      4      O    -0.59635698     0.83315505     0.75310425
      5      O     4.38638801    -0.90086174    -0.46111979
      6      O    -1.08865567    -1.24349134    -1.44364376
      7      H    -1.31943448    -0.92358575    -2.31702166
      8      O    -0.37237610    -1.84660532     1.21253455
      9      H    -1.13846807    -1.49893141     1.67714077
     10      O     2.80544673    -0.56851697     1.40965134
     11      O     2.19504471    -1.93158375    -0.36156813
     12      S     3.47971038    -1.57391573     0.43484338
     13      O     3.98448520    -2.72431719     1.13407040
     14      H    -1.61213632    -0.82411372    -0.74008639
 
Total System Charge            -1.00000
Bonding info available!
 
 *** GO1_GOStep6 ***



 ======================
 RI Hartree-Fock Scheme
 ======================
  
 Fit Set Quality     : GOOD
 Threshold Quality   : GOOD
 Integration Quality : GOOD
 Response Quality    : DEFAULT
 Is Range Separated  :  F
 
 RIHartreeFock Dependency: number of modified vectors:           5
  
 Hartree-Fock exchange energy:   -559.096160408712     

 Energy gradients wrt nuclear displacements
 ==========================================

     Atom      Cartesian (a.u./angstrom)
                 X         Y         Z
 ----------------------------------------
     1 Pa   -0.014901 -0.014382 -0.035465
     2 O    -0.000688 -0.003795  0.010903
     3 H     0.001172 -0.000966 -0.000390
     4 O    -0.004049 -0.004923  0.005310
     5 O    -0.016383 -0.002980  0.002951
     6 O    -0.004678  0.016693 -0.005684
     7 H     0.007016 -0.015902 -0.001839
     8 O     0.011610  0.012386 -0.006912
     9 H    -0.000041  0.002907 -0.005227
    10 O    -0.005099 -0.004224  0.014625
    11 O     0.004505  0.032525  0.035219
    12 S     0.005229 -0.027530 -0.029829
    13 O    -0.003182  0.010474 -0.003515
    14 H     0.019490 -0.000282  0.019852
 ----------------------------------------
 Mulliken charges used for AMS results%charges...

 dE(predicted):    -0.20263E-01, dE(actual):    -0.21200E-01, Trust radius:    1.000000, all in a.u.
 
----------------------------------------------------------------------
Geometry Convergence after Step   6       (Hartree/Angstrom,Angstrom)
----------------------------------------------------------------------
current energy                               -4.03058478 Hartree
energy change                      -0.02120037     0.00001400    F
constrained gradient max            0.03543839     0.00010000    F
constrained gradient rms            0.01409577     0.00006667    F
gradient max                        0.03543839
gradient rms                        0.01409577
cart. step max                      0.08989176     0.00100000    F
cart. step rms                      0.03192915     0.00066667    F
 
 
--------
Geometry
--------
Formula: H4O8PaS
Atoms
  Index Symbol   x (angstrom)   y (angstrom)   z (angstrom)
      1     Pa     0.75554690    -0.35702807     0.12798424
      2      O     1.34457709     0.90772493    -1.52354953
      3      H     1.30436754     1.75896674    -1.96098680
      4      O    -0.58357325     0.83406586     0.73638873
      5      O     4.44858465    -0.93970328    -0.42014866
      6      O    -1.10759023    -1.22574764    -1.47105975
      7      H    -1.35856655    -0.83369399    -2.31167930
      8      O    -0.34571560    -1.86098929     1.20864253
      9      H    -1.08963986    -1.54036386     1.72646837
     10      O     2.81249212    -0.55216811     1.39740878
     11      O     2.22866790    -1.92942468    -0.40519888
     12      S     3.48862709    -1.57557803     0.45222958
     13      O     3.95631619    -2.71466487     1.20187467
     14      H    -1.65229134    -0.83093587    -0.77371145
 
Total System Charge            -1.00000
Bonding info available!
 
 *** GO1_GOStep7 ***



 ======================
 RI Hartree-Fock Scheme
 ======================
  
 Fit Set Quality     : GOOD
 Threshold Quality   : GOOD
 Integration Quality : GOOD
 Response Quality    : DEFAULT
 Is Range Separated  :  F
 
 RIHartreeFock Dependency: number of modified vectors:           5
  
 Hartree-Fock exchange energy:   -559.080864638988     

 Energy gradients wrt nuclear displacements
 ==========================================

     Atom      Cartesian (a.u./angstrom)
                 X         Y         Z
 ----------------------------------------
     1 Pa   -0.011861 -0.021081 -0.022371
     2 O    -0.001706 -0.001449  0.009122
     3 H     0.001453 -0.000752 -0.001025
     4 O    -0.006560 -0.001271  0.002971
     5 O    -0.008970 -0.002232 -0.001115
     6 O     0.003063  0.009295  0.001781
     7 H    -0.000900 -0.009467 -0.000230
     8 O     0.013597  0.015181 -0.010253
     9 H    -0.000047  0.002941 -0.002835
    10 O     0.003588 -0.006911  0.016714
    11 O    -0.003390  0.022355  0.016856
    12 S    -0.006016 -0.015723 -0.020320
    13 O     0.002701  0.008497  0.003309
    14 H     0.015048  0.000618  0.007396
 ----------------------------------------
 Mulliken charges used for AMS results%charges...

 dE(predicted):    -0.29493E-02, dE(actual):    -0.46358E-02, Trust radius:    1.000000, all in a.u.
 
----------------------------------------------------------------------
Geometry Convergence after Step   7       (Hartree/Angstrom,Angstrom)
----------------------------------------------------------------------
current energy                               -4.03522056 Hartree
energy change                      -0.00463578     0.00001400    F
constrained gradient max            0.02237192     0.00010000    F
constrained gradient rms            0.01005677     0.00006667    F
gradient max                        0.02237192
gradient rms                        0.01005677
cart. step max                      0.20684324     0.00100000    F
cart. step rms                      0.06498378     0.00066667    F
 
 
--------
Geometry
--------
Formula: H4O8PaS
Atoms
  Index Symbol   x (angstrom)   y (angstrom)   z (angstrom)
      1     Pa     0.76332477    -0.37715915     0.11811362
      2      O     1.28030153     0.87446745    -1.58345490
      3      H     1.19804733     1.72120126    -2.02425547
      4      O    -0.55697981     0.84340923     0.69720289
      5      O     4.57466546    -1.00183215    -0.31721241
      6      O    -1.14243919    -1.18279853    -1.51820027
      7      H    -1.36834804    -0.62685075    -2.27597325
      8      O    -0.31628481    -1.90997948     1.22024577
      9      H    -1.01583542    -1.65457973     1.82957068
     10      O     2.82099867    -0.49242901     1.35120730
     11      O     2.29327593    -1.92836124    -0.47749323
     12      S     3.50620087    -1.56607248     0.48783266
     13      O     3.87415255    -2.71384464     1.29101687
     14      H    -1.70927720    -0.84471095    -0.81393773
 
Total System Charge            -1.00000
Bonding info available!
 
 *** GO1_GOStep8 ***



 ======================
 RI Hartree-Fock Scheme
 ======================
  
 Fit Set Quality     : GOOD
 Threshold Quality   : GOOD
 Integration Quality : GOOD
 Response Quality    : DEFAULT
 Is Range Separated  :  F
 
 RIHartreeFock Dependency: number of modified vectors:           5
  
 Hartree-Fock exchange energy:   -559.035022765046     

 Energy gradients wrt nuclear displacements
 ==========================================

     Atom      Cartesian (a.u./angstrom)
                 X         Y         Z
 ----------------------------------------
     1 Pa   -0.003878 -0.011015 -0.005116
     2 O    -0.002337  0.003554  0.004388
     3 H     0.001694 -0.000335 -0.002382
     4 O    -0.009096  0.003170 -0.001860
     5 O     0.009608 -0.000416 -0.007806
     6 O     0.010263 -0.003552  0.011211
     7 H    -0.011040  0.000496  0.000451
     8 O     0.006874  0.004707 -0.005063
     9 H    -0.000548  0.002264  0.001274
    10 O     0.012371 -0.007471  0.011047
    11 O    -0.013916 -0.006725 -0.015442
    12 S    -0.021394  0.015929  0.011924
    13 O     0.009412 -0.004749  0.005441
    14 H     0.011988  0.004144 -0.008067
 ----------------------------------------
 Mulliken charges used for AMS results%charges...
 Rebuilding optimization coordinates

 dE(predicted):    -0.44811E-02, dE(actual):    -0.54312E-02, Trust radius:    1.000000, all in a.u.
 
----------------------------------------------------------------------
Geometry Convergence after Step   8       (Hartree/Angstrom,Angstrom)
----------------------------------------------------------------------
current energy                               -4.04065172 Hartree
energy change                      -0.00543116     0.00001400    F
constrained gradient max            0.02138053     0.00010000    F
constrained gradient rms            0.00838747     0.00006667    F
gradient max                        0.02138053
gradient rms                        0.00838747
cart. step max                      0.13439083     0.00100000    F
cart. step rms                      0.04050087     0.00066667    F
 
 
--------
Geometry
--------
Formula: H4O8PaS
Atoms
  Index Symbol   x (angstrom)   y (angstrom)   z (angstrom)
      1     Pa     0.77047616    -0.38776190     0.11649166
      2      O     1.24248957     0.84068448    -1.62209917
      3      H     1.13008882     1.68346863    -2.06334802
      4      O    -0.54203427     0.84454048     0.67291290
      5      O     4.63597503    -1.02902765    -0.25726990
      6      O    -1.17249361    -1.15167799    -1.53728021
      7      H    -1.32585025    -0.49245992    -2.22900355
      8      O    -0.29561857    -1.93384044     1.21943891
      9      H    -0.97824115    -1.72700035     1.86428914
     10      O     2.82814128    -0.46046058     1.31260843
     11      O     2.33412850    -1.91968261    -0.50826777
     12      S     3.52102345    -1.56602673     0.49664850
     13      O     3.80993537    -2.70295421     1.34353965
     14      H    -1.75621769    -0.85734139    -0.82399804
 
Total System Charge            -1.00000
Bonding info available!
 
 *** GO1_GOStep9 ***



 ======================
 RI Hartree-Fock Scheme
 ======================
  
 Fit Set Quality     : GOOD
 Threshold Quality   : GOOD
 Integration Quality : GOOD
 Response Quality    : DEFAULT
 Is Range Separated  :  F
 
 RIHartreeFock Dependency: number of modified vectors:           5
  
 Hartree-Fock exchange energy:   -559.032608880993     

 Energy gradients wrt nuclear displacements
 ==========================================

     Atom      Cartesian (a.u./angstrom)
                 X         Y         Z
 ----------------------------------------
     1 Pa   -0.003442 -0.005116  0.004276
     2 O    -0.002517  0.004963  0.003731
     3 H     0.001662 -0.000920 -0.002653
     4 O    -0.007056  0.001228 -0.006138
     5 O     0.006641  0.002430 -0.003046
     6 O     0.011174 -0.008063  0.006289
     7 H    -0.010757  0.002532  0.000435
     8 O     0.004536  0.003075 -0.003787
     9 H     0.000392  0.001597  0.001572
    10 O     0.014595 -0.010611  0.006130
    11 O    -0.016244 -0.010999 -0.020290
    12 S    -0.008664  0.014955  0.011686
    13 O     0.002847 -0.001502  0.006669
    14 H     0.006833  0.006433 -0.004874
 ----------------------------------------
 Mulliken charges used for AMS results%charges...

 dE(predicted):    -0.14851E-02, dE(actual):    -0.23100E-02, Trust radius:    1.000000, all in a.u.
 
----------------------------------------------------------------------
Geometry Convergence after Step   9       (Hartree/Angstrom,Angstrom)
----------------------------------------------------------------------
current energy                               -4.04296176 Hartree
energy change                      -0.00231003     0.00001400    F
constrained gradient max            0.02039113     0.00010000    F
constrained gradient rms            0.00759516     0.00006667    F
gradient max                        0.02039113
gradient rms                        0.00759516
cart. step max                      0.05479587     0.00100000    F
cart. step rms                      0.01677966     0.00066667    F
 
 
--------
Geometry
--------
Formula: H4O8PaS
Atoms
  Index Symbol   x (angstrom)   y (angstrom)   z (angstrom)
      1     Pa     0.77192676    -0.38908465     0.11973354
      2      O     1.22878600     0.82023712    -1.63862902
      3      H     1.10218869     1.66140110    -2.07915245
      4      O    -0.54091936     0.84448399     0.66668439
      5      O     4.65346105    -1.04192220    -0.24290468
      6      O    -1.18522383    -1.13721158    -1.54132149
      7      H    -1.28088444    -0.43766405    -2.20261793
      8      O    -0.29322429    -1.94078472     1.21974188
      9      H    -0.97738907    -1.75572034     1.86914781
     10      O     2.82942066    -0.43923693     1.29807495
     11      O     2.34887532    -1.91347448    -0.50893980
     12      S     3.52591756    -1.56249328     0.50099125
     13      O     3.79503063    -2.70275607     1.34876048
     14      H    -1.77616305    -0.86531408    -0.82490641
 
Total System Charge            -1.00000
Bonding info available!
 
 *** GO1_GOStep10 ***



 ======================
 RI Hartree-Fock Scheme
 ======================
  
 Fit Set Quality     : GOOD
 Threshold Quality   : GOOD
 Integration Quality : GOOD
 Response Quality    : DEFAULT
 Is Range Separated  :  F
 
 RIHartreeFock Dependency: number of modified vectors:           5
  
 Hartree-Fock exchange energy:   -559.034058890614     

 Energy gradients wrt nuclear displacements
 ==========================================

     Atom      Cartesian (a.u./angstrom)
                 X         Y         Z
 ----------------------------------------
     1 Pa   -0.001904 -0.001344  0.006425
     2 O    -0.001876  0.004699  0.003916
     3 H     0.001489 -0.001115 -0.002640
     4 O    -0.006675 -0.000238 -0.007195
     5 O     0.004649 -0.000102 -0.002426
     6 O     0.007156 -0.005514  0.004357
     7 H    -0.007585  0.001595 -0.000915
     8 O     0.003381  0.002334 -0.003141
     9 H     0.000488  0.001237  0.001594
    10 O     0.010196 -0.005890  0.004119
    11 O    -0.012376 -0.011315 -0.018335
    12 S    -0.005592  0.014651  0.013920
    13 O     0.002638 -0.003383  0.002007
    14 H     0.006010  0.004385 -0.001685
 ----------------------------------------
 Mulliken charges used for AMS results%charges...

 dE(predicted):    -0.69991E-03, dE(actual):    -0.12088E-02, Trust radius:    1.000000, all in a.u.
 
----------------------------------------------------------------------
Geometry Convergence after Step  10       (Hartree/Angstrom,Angstrom)
----------------------------------------------------------------------
current energy                               -4.04417051 Hartree
energy change                      -0.00120876     0.00001400    F
constrained gradient max            0.01843897     0.00010000    F
constrained gradient rms            0.00637616     0.00006667    F
gradient max                        0.01843897
gradient rms                        0.00637616
cart. step max                      0.21296539     0.00100000    F
cart. step rms                      0.07636453     0.00066667    F
 
 
--------
Geometry
--------
Formula: H4O8PaS
Atoms
  Index Symbol   x (angstrom)   y (angstrom)   z (angstrom)
      1     Pa     0.78774101    -0.39851685     0.12652576
      2      O     1.16935393     0.72677784    -1.71476249
      3      H     0.98046689     1.56446444    -2.13972789
      4      O    -0.52097529     0.84487776     0.64007502
      5      O     4.73788038    -1.09619041    -0.17452528
      6      O    -1.25167410    -1.05588794    -1.55870229
      7      H    -1.10113052    -0.22469866    -2.02700298
      8      O    -0.27276284    -1.97244804     1.19812955
      9      H    -0.96482781    -1.89022607     1.85805361
     10      O     2.83776347    -0.37160897     1.22520498
     11      O     2.41721147    -1.88663887    -0.53038295
     12      S     3.55229170    -1.55934342     0.50380902
     13      O     3.71199394    -2.65946564     1.42354374
     14      H    -1.88152959    -0.88063535    -0.84557528
 
Total System Charge            -1.00000
Bonding info available!
 
 *** GO1_GOStep11 ***



 ======================
 RI Hartree-Fock Scheme
 ======================
  
 Fit Set Quality     : GOOD
 Threshold Quality   : GOOD
 Integration Quality : GOOD
 Response Quality    : DEFAULT
 Is Range Separated  :  F
 
 RIHartreeFock Dependency: number of modified vectors:           5
  
 Hartree-Fock exchange energy:   -559.045564214897     

 Energy gradients wrt nuclear displacements
 ==========================================

     Atom      Cartesian (a.u./angstrom)
                 X         Y         Z
 ----------------------------------------
     1 Pa    0.004031  0.010647  0.011341
     2 O     0.001927  0.002790  0.005623
     3 H     0.000360 -0.002095 -0.002177
     4 O    -0.005618 -0.006076 -0.010914
     5 O    -0.001552 -0.000135  0.002610
     6 O    -0.003236  0.007848 -0.000591
     7 H     0.003177 -0.004569 -0.000455
     8 O    -0.000499  0.001394 -0.002547
     9 H     0.001295  0.000217  0.001130
    10 O    -0.001574 -0.001695  0.000019
    11 O    -0.006871 -0.002008 -0.007748
    12 S     0.013654 -0.004719 -0.002001
    13 O    -0.004675  0.003532  0.000205
    14 H    -0.000419 -0.005130  0.005504
 ----------------------------------------
 Mulliken charges used for AMS results%charges...
 Rebuilding optimization coordinates

 dE(predicted):    -0.23864E-02, dE(actual):    -0.20306E-02, Trust radius:    1.000000, all in a.u.
 
----------------------------------------------------------------------
Geometry Convergence after Step  11       (Hartree/Angstrom,Angstrom)
----------------------------------------------------------------------
current energy                               -4.04620108 Hartree
energy change                      -0.00203056     0.00001400    F
constrained gradient max            0.01366824     0.00010000    F
constrained gradient rms            0.00498350     0.00006667    F
gradient max                        0.01366824
gradient rms                        0.00498350
cart. step max                      0.03102040     0.00100000    F
cart. step rms                      0.01075948     0.00066667    F
 
 
--------
Geometry
--------
Formula: H4O8PaS
Atoms
  Index Symbol   x (angstrom)   y (angstrom)   z (angstrom)
      1     Pa     0.78869171    -0.39809245     0.13165513
      2      O     1.16996777     0.72494176    -1.71100537
      3      H     0.98294930     1.56586365    -2.13120858
      4      O    -0.52122185     0.84456385     0.64979333
      5      O     4.72116462    -1.08464601    -0.19235125
      6      O    -1.23782345    -1.06356331    -1.56033343
      7      H    -1.11270190    -0.23607305    -2.04470850
      8      O    -0.28020565    -1.96551806     1.20505090
      9      H    -0.98422997    -1.87274195     1.85090187
     10      O     2.83978612    -0.37514387     1.23788989
     11      O     2.40889824    -1.89455234    -0.51380702
     12      S     3.55094256    -1.55820863     0.50694566
     13      O     3.74301433    -2.67036028     1.40731046
     14      H    -1.86742918    -0.87600947    -0.85147057
 
Total System Charge            -1.00000
Bonding info available!
 
 *** GO1_GOStep12 ***



 ======================
 RI Hartree-Fock Scheme
 ======================
  
 Fit Set Quality     : GOOD
 Threshold Quality   : GOOD
 Integration Quality : GOOD
 Response Quality    : DEFAULT
 Is Range Separated  :  F
 
 RIHartreeFock Dependency: number of modified vectors:           5
  
 Hartree-Fock exchange energy:   -559.044409726885     

 Energy gradients wrt nuclear displacements
 ==========================================

     Atom      Cartesian (a.u./angstrom)
                 X         Y         Z
 ----------------------------------------
     1 Pa    0.006963  0.008803  0.010450
     2 O     0.001448  0.001973  0.005314
     3 H     0.000267 -0.001451 -0.002424
     4 O    -0.007044 -0.004983 -0.009591
     5 O    -0.001319 -0.001523  0.001143
     6 O    -0.002606  0.003152  0.001013
     7 H     0.000760 -0.001737 -0.000282
     8 O    -0.000582  0.001791 -0.002180
     9 H     0.001027  0.000049  0.001076
    10 O    -0.001610  0.001898 -0.000801
    11 O    -0.003181 -0.002773 -0.006573
    12 S     0.005465 -0.001140  0.002050
    13 O    -0.001356 -0.001250 -0.001956
    14 H     0.001769 -0.002810  0.002762
 ----------------------------------------
 Mulliken charges used for AMS results%charges...

 dE(predicted):    -0.25578E-03, dE(actual):    -0.33802E-03, Trust radius:    1.000000, all in a.u.
 
----------------------------------------------------------------------
Geometry Convergence after Step  12       (Hartree/Angstrom,Angstrom)
----------------------------------------------------------------------
current energy                               -4.04653909 Hartree
energy change                      -0.00033802     0.00001400    F
constrained gradient max            0.01047368     0.00010000    F
constrained gradient rms            0.00381137     0.00006667    F
gradient max                        0.01047368
gradient rms                        0.00381137
cart. step max                      0.01421182     0.00100000    F
cart. step rms                      0.00589005     0.00066667    F
 
 
--------
Geometry
--------
Formula: H4O8PaS
Atoms
  Index Symbol   x (angstrom)   y (angstrom)   z (angstrom)
      1     Pa     0.79129981    -0.39974406     0.13471795
      2      O     1.16209834     0.71391032    -1.71737122
      3      H     0.97043120     1.55812673    -2.12903772
      4      O    -0.51548273     0.84554677     0.65496222
      5      O     4.72076688    -1.08308494    -0.19784885
      6      O    -1.23627190    -1.05739847    -1.56322701
      7      H    -1.09849008    -0.22512926    -2.03684784
      8      O    -0.28135282    -1.96662456     1.20653402
      9      H    -0.99390168    -1.87755426     1.84342824
     10      O     2.84181915    -0.37489124     1.23689588
     11      O     2.40833349    -1.89985978    -0.50918328
     12      S     3.55323181    -1.55846364     0.50577675
     13      O     3.75042802    -2.66331033     1.41385404
     14      H    -1.87110685    -0.87106345    -0.85799066
 
Total System Charge            -1.00000
Bonding info available!
 
 *** GO1_GOStep13 ***



 ======================
 RI Hartree-Fock Scheme
 ======================
  
 Fit Set Quality     : GOOD
 Threshold Quality   : GOOD
 Integration Quality : GOOD
 Response Quality    : DEFAULT
 Is Range Separated  :  F
 
 RIHartreeFock Dependency: number of modified vectors:           5
  
 Hartree-Fock exchange energy:   -559.043310277015     

 Energy gradients wrt nuclear displacements
 ==========================================

     Atom      Cartesian (a.u./angstrom)
                 X         Y         Z
 ----------------------------------------
     1 Pa    0.009012  0.009292  0.009683
     2 O     0.001539  0.001522  0.005230
     3 H     0.000112 -0.001419 -0.002354
     4 O    -0.007549 -0.004904 -0.009216
     5 O    -0.000085 -0.000571  0.000966
     6 O    -0.001666  0.002359  0.000113
     7 H     0.000585 -0.001150 -0.000191
     8 O    -0.000932  0.001535 -0.001737
     9 H     0.000872 -0.000087  0.000991
    10 O    -0.001629  0.001202 -0.000050
    11 O    -0.003934 -0.002283 -0.006258
    12 S     0.004350 -0.002720  0.000032
    13 O    -0.001552 -0.000250 -0.000716
    14 H     0.000877 -0.002527  0.003506
 ----------------------------------------
 Mulliken charges used for AMS results%charges...

 dE(predicted):    -0.11409E-03, dE(actual):    -0.19951E-03, Trust radius:    1.000000, all in a.u.
 
----------------------------------------------------------------------
Geometry Convergence after Step  13       (Hartree/Angstrom,Angstrom)
----------------------------------------------------------------------
current energy                               -4.04673861 Hartree
energy change                      -0.00019951     0.00001400    F
constrained gradient max            0.00970695     0.00010000    F
constrained gradient rms            0.00377570     0.00006667    F
gradient max                        0.00970695
gradient rms                        0.00377570
cart. step max                      0.14973183     0.00100000    F
cart. step rms                      0.05952229     0.00066667    F
 
 
--------
Geometry
--------
Formula: H4O8PaS
Atoms
  Index Symbol   x (angstrom)   y (angstrom)   z (angstrom)
      1     Pa     0.81300166    -0.41419902     0.17147829
      2      O     1.07601474     0.60361463    -1.77000532
      3      H     0.86476698     1.48781510    -2.07814485
      4      O    -0.45776236     0.86162208     0.71099969
      5      O     4.68076159    -1.05715538    -0.28014536
      6      O    -1.20899852    -1.00870151    -1.58993064
      7      H    -0.94875825    -0.15848697    -1.98078326
      8      O    -0.30037825    -1.96630165     1.23056516
      9      H    -1.09885067    -1.90354497     1.75869551
     10      O     2.86043658    -0.37014527     1.24030501
     11      O     2.38760803    -1.96181359    -0.43661517
     12      S     3.56959789    -1.55511941     0.50005681
     13      O     3.85852311    -2.60763624     1.44404739
     14      H    -1.89415987    -0.80948796    -0.93586073
 
Total System Charge            -1.00000
Bonding info available!
 
 *** GO1_GOStep14 ***



 ======================
 RI Hartree-Fock Scheme
 ======================
  
 Fit Set Quality     : GOOD
 Threshold Quality   : GOOD
 Integration Quality : GOOD
 Response Quality    : DEFAULT
 Is Range Separated  :  F
 
 RIHartreeFock Dependency: number of modified vectors:           5
  
 Hartree-Fock exchange energy:   -559.041748235747     

 Energy gradients wrt nuclear displacements
 ==========================================

     Atom      Cartesian (a.u./angstrom)
                 X         Y         Z
 ----------------------------------------
     1 Pa    0.029376  0.013462  0.002111
     2 O     0.001341 -0.004911  0.005115
     3 H    -0.001815 -0.001109 -0.001228
     4 O    -0.012372 -0.003928 -0.005189
     5 O     0.004505  0.002756 -0.000922
     6 O     0.004783 -0.000020 -0.005415
     7 H    -0.002627  0.002050  0.002712
     8 O    -0.003817 -0.000002  0.001909
     9 H    -0.000246 -0.001251 -0.000226
    10 O    -0.004009  0.000184  0.003935
    11 O    -0.005334 -0.000643 -0.002569
    12 S    -0.007532 -0.008614 -0.009101
    13 O    -0.000152  0.002934  0.003446
    14 H    -0.002102 -0.000907  0.005422
 ----------------------------------------
 Mulliken charges used for AMS results%charges...

 dE(predicted):    -0.11400E-02, dE(actual):    -0.11839E-02, Trust radius:    1.000000, all in a.u.
 
----------------------------------------------------------------------
Geometry Convergence after Step  14       (Hartree/Angstrom,Angstrom)
----------------------------------------------------------------------
current energy                               -4.04792251 Hartree
energy change                      -0.00118391     0.00001400    F
constrained gradient max            0.02937065     0.00010000    F
constrained gradient rms            0.00646851     0.00006667    F
gradient max                        0.02937065
gradient rms                        0.00646851
cart. step max                      0.05775701     0.00100000    F
cart. step rms                      0.02468155     0.00066667    F
 
 
--------
Geometry
--------
Formula: H4O8PaS
Atoms
  Index Symbol   x (angstrom)   y (angstrom)   z (angstrom)
      1     Pa     0.81345602    -0.42047752     0.18764104
      2      O     1.04573411     0.58213311    -1.77459415
      3      H     0.85555884     1.48783975    -2.03157048
      4      O    -0.43751696     0.87072335     0.73514149
      5      O     4.63941937    -1.04015227    -0.33128839
      6      O    -1.19406890    -1.01395887    -1.59329385
      7      H    -0.89100124    -0.18447309    -2.00167236
      8      O    -0.31019931    -1.96050310     1.24938110
      9      H    -1.13666561    -1.89310269     1.73193311
     10      O     2.86562952    -0.37501132     1.24779147
     11      O     2.36320180    -1.99154180    -0.39922663
     12      S     3.56907741    -1.55292921     0.49547018
     13      O     3.91385230    -2.58957221     1.43795634
     14      H    -1.89467472    -0.77851430    -0.96900634
 
Total System Charge            -1.00000
Bonding info available!
 
 *** GO1_GOStep15 ***



 ======================
 RI Hartree-Fock Scheme
 ======================
  
 Fit Set Quality     : GOOD
 Threshold Quality   : GOOD
 Integration Quality : GOOD
 Response Quality    : DEFAULT
 Is Range Separated  :  F
 
 RIHartreeFock Dependency: number of modified vectors:           5
  
 Hartree-Fock exchange energy:   -559.043283701753     

 Energy gradients wrt nuclear displacements
 ==========================================

     Atom      Cartesian (a.u./angstrom)
                 X         Y         Z
 ----------------------------------------
     1 Pa    0.033660  0.012739  0.000284
     2 O     0.000764 -0.006201  0.005479
     3 H    -0.001866 -0.000551 -0.000904
     4 O    -0.012866 -0.003454 -0.004459
     5 O     0.003779  0.003406 -0.001610
     6 O     0.005402  0.000961 -0.005381
     7 H    -0.003494  0.002091  0.001712
     8 O    -0.003312  0.000358  0.002146
     9 H    -0.000586 -0.001309 -0.000868
    10 O    -0.003509 -0.000694  0.004227
    11 O    -0.007385 -0.001280 -0.002981
    12 S    -0.009281 -0.007705 -0.007497
    13 O     0.000848  0.003091  0.004093
    14 H    -0.002153 -0.001451  0.005759
 ----------------------------------------
 Mulliken charges used for AMS results%charges...

 dE(predicted):    -0.35531E-03, dE(actual):    -0.56144E-03, Trust radius:    1.000000, all in a.u.
 
----------------------------------------------------------------------
Geometry Convergence after Step  15       (Hartree/Angstrom,Angstrom)
----------------------------------------------------------------------
current energy                               -4.04848395 Hartree
energy change                      -0.00056144     0.00001400    F
constrained gradient max            0.03365639     0.00010000    F
constrained gradient rms            0.00699698     0.00006667    F
gradient max                        0.03365639
gradient rms                        0.00699698
cart. step max                      0.19217737     0.00100000    F
cart. step rms                      0.06719877     0.00066667    F
 
 
--------
Geometry
--------
Formula: H4O8PaS
Atoms
  Index Symbol   x (angstrom)   y (angstrom)   z (angstrom)
      1     Pa     0.80353207    -0.43779590     0.23075540
      2      O     0.94691482     0.54018178    -1.78570703
      3      H     0.85942662     1.49237745    -1.89027614
      4      O    -0.38223861     0.90388685     0.78460162
      5      O     4.52330655    -1.01009071    -0.45678051
      6      O    -1.17222783    -1.03354933    -1.60449155
      7      H    -0.69882387    -0.28880036    -2.02751247
      8      O    -0.32978271    -1.94820441     1.30470672
      9      H    -1.20595330    -1.88187953     1.69003793
     10      O     2.87234728    -0.37393695     1.25276699
     11      O     2.30113920    -2.05896003    -0.30912374
     12      S     3.56043164    -1.54047379     0.48116137
     13      O     4.03287847    -2.53995917     1.40676298
     14      H    -1.90914769    -0.68233606    -1.09223904
 
Total System Charge            -1.00000
Bonding info available!
 
 *** GO1_GOStep16 ***



 ======================
 RI Hartree-Fock Scheme
 ======================
  
 Fit Set Quality     : GOOD
 Threshold Quality   : GOOD
 Integration Quality : GOOD
 Response Quality    : DEFAULT
 Is Range Separated  :  F
 
 RIHartreeFock Dependency: number of modified vectors:           5
  
 Hartree-Fock exchange energy:   -559.052337528934     

 Energy gradients wrt nuclear displacements
 ==========================================

     Atom      Cartesian (a.u./angstrom)
                 X         Y         Z
 ----------------------------------------
     1 Pa    0.039620  0.013116 -0.000091
     2 O    -0.002915 -0.005757  0.004533
     3 H     0.000606  0.001273  0.001804
     4 O    -0.011460 -0.003780 -0.005763
     5 O    -0.001367  0.001059 -0.001816
     6 O     0.002118  0.012571 -0.004394
     7 H    -0.001533 -0.006972  0.001743
     8 O    -0.001291  0.000984  0.001033
     9 H    -0.000436 -0.000976 -0.002148
    10 O    -0.004641 -0.002219  0.001994
    11 O    -0.013258 -0.006284 -0.006672
    12 S    -0.006988  0.001104  0.002928
    13 O     0.003007  0.001833  0.001945
    14 H    -0.001463 -0.005952  0.004903
 ----------------------------------------
 Mulliken charges used for AMS results%charges...

 dE(predicted):    -0.16298E-02, dE(actual):    -0.13859E-02, Trust radius:    1.000000, all in a.u.
 
----------------------------------------------------------------------
Geometry Convergence after Step  16       (Hartree/Angstrom,Angstrom)
----------------------------------------------------------------------
current energy                               -4.04986981 Hartree
energy change                      -0.00138586     0.00001400    F
constrained gradient max            0.03961500     0.00010000    F
constrained gradient rms            0.00796724     0.00006667    F
gradient max                        0.03961500
gradient rms                        0.00796724
cart. step max                      0.04200225     0.00100000    F
cart. step rms                      0.01427228     0.00066667    F
 
 
--------
Geometry
--------
Formula: H4O8PaS
Atoms
  Index Symbol   x (angstrom)   y (angstrom)   z (angstrom)
      1     Pa     0.79068224    -0.44177654     0.23988282
      2      O     0.94108393     0.55124126    -1.78108634
      3      H     0.87425936     1.50650602    -1.86875497
      4      O    -0.37990667     0.91114109     0.78809811
      5      O     4.51172244    -1.00521418    -0.46366330
      6      O    -1.17349385    -1.05080032    -1.60901719
      7      H    -0.68123163    -0.32219516    -2.05037413
      8      O    -0.32044617    -1.95314526     1.32308791
      9      H    -1.18916374    -1.88056809     1.72494903
     10      O     2.86826665    -0.37455060     1.25301931
     11      O     2.29016174    -2.06016206    -0.30884630
     12      S     3.55486565    -1.53582120     0.47866559
     13      O     4.02855716    -2.54471193     1.39294328
     14      H    -1.91355448    -0.65948319    -1.13424129
 
Total System Charge            -1.00000
Bonding info available!
 
 *** GO1_GOStep17 ***



 ======================
 RI Hartree-Fock Scheme
 ======================
  
 Fit Set Quality     : GOOD
 Threshold Quality   : GOOD
 Integration Quality : GOOD
 Response Quality    : DEFAULT
 Is Range Separated  :  F
 
 RIHartreeFock Dependency: number of modified vectors:           5
  
 Hartree-Fock exchange energy:   -559.050688761380     

 Energy gradients wrt nuclear displacements
 ==========================================

     Atom      Cartesian (a.u./angstrom)
                 X         Y         Z
 ----------------------------------------
     1 Pa    0.031398  0.012404  0.007584
     2 O    -0.002548 -0.001475  0.001635
     3 H     0.001629  0.000943  0.002067
     4 O    -0.008224 -0.004777 -0.008012
     5 O    -0.002972 -0.000453 -0.001048
     6 O    -0.004268  0.005085  0.000320
     7 H     0.000759 -0.001990 -0.001262
     8 O     0.001994  0.001599 -0.001285
     9 H    -0.000683 -0.000362 -0.001760
    10 O    -0.003997 -0.003399  0.000539
    11 O    -0.014081 -0.010453 -0.008230
    12 S    -0.001837  0.007643  0.007039
    13 O     0.001674  0.000493 -0.000232
    14 H     0.001156 -0.005257  0.002646
 ----------------------------------------
 Mulliken charges used for AMS results%charges...

 dE(predicted):    -0.42808E-03, dE(actual):    -0.58586E-03, Trust radius:    1.000000, all in a.u.
 
----------------------------------------------------------------------
Geometry Convergence after Step  17       (Hartree/Angstrom,Angstrom)
----------------------------------------------------------------------
current energy                               -4.05045567 Hartree
energy change                      -0.00058586     0.00001400    F
constrained gradient max            0.03139048     0.00010000    F
constrained gradient rms            0.00689476     0.00006667    F
gradient max                        0.03139048
gradient rms                        0.00689476
cart. step max                      0.12956735     0.00100000    F
cart. step rms                      0.03603057     0.00066667    F
 
 
--------
Geometry
--------
Formula: H4O8PaS
Atoms
  Index Symbol   x (angstrom)   y (angstrom)   z (angstrom)
      1     Pa     0.76756455    -0.45572972     0.26753907
      2      O     0.88990066     0.52047910    -1.79482944
      3      H     0.84918451     1.47927262    -1.84785849
      4      O    -0.36941835     0.92234700     0.80285461
      5      O     4.52282322    -1.00077299    -0.45769561
      6      O    -1.17622434    -1.03956158    -1.64413398
      7      H    -0.59364527    -0.32918806    -2.02135929
      8      O    -0.30508103    -1.96942865     1.36988817
      9      H    -1.15492805    -1.90949251     1.81343471
     10      O     2.86192616    -0.36026325     1.23541804
     11      O     2.28841781    -2.05176064    -0.32223252
     12      S     3.55214082    -1.52692057     0.47013941
     13      O     4.00487063    -2.55168576     1.37730648
     14      H    -1.93572870    -0.58683517    -1.26380864
 
Total System Charge            -1.00000
Bonding info available!
 
 *** GO1_GOStep18 ***



 ======================
 RI Hartree-Fock Scheme
 ======================
  
 Fit Set Quality     : GOOD
 Threshold Quality   : GOOD
 Integration Quality : GOOD
 Response Quality    : DEFAULT
 Is Range Separated  :  F
 
 RIHartreeFock Dependency: number of modified vectors:           5
  
 Hartree-Fock exchange energy:   -559.050238432375     

 Energy gradients wrt nuclear displacements
 ==========================================

     Atom      Cartesian (a.u./angstrom)
                 X         Y         Z
 ----------------------------------------
     1 Pa    0.021317  0.015896  0.018836
     2 O    -0.005484  0.000641 -0.004270
     3 H     0.002543 -0.000456  0.003206
     4 O    -0.004946 -0.007040 -0.011084
     5 O    -0.003652 -0.001972  0.001131
     6 O    -0.003673  0.000590 -0.002488
     7 H     0.001374 -0.000816  0.004080
     8 O     0.004351  0.001293 -0.004210
     9 H    -0.000993  0.000363 -0.000383
    10 O    -0.004960 -0.001939 -0.001896
    11 O    -0.011938 -0.015988 -0.008810
    12 S     0.004861  0.013917  0.009382
    13 O    -0.000387 -0.003042 -0.003970
    14 H     0.001587 -0.001447  0.000475
 ----------------------------------------
 Mulliken charges used for AMS results%charges...

 dE(predicted):    -0.87309E-03, dE(actual):    -0.79221E-03, Trust radius:    1.000000, all in a.u.
 
----------------------------------------------------------------------
Geometry Convergence after Step  18       (Hartree/Angstrom,Angstrom)
----------------------------------------------------------------------
current energy                               -4.05124788 Hartree
energy change                      -0.00079221     0.00001400    F
constrained gradient max            0.02130933     0.00010000    F
constrained gradient rms            0.00734284     0.00006667    F
gradient max                        0.02130933
gradient rms                        0.00734284
cart. step max                      0.16340509     0.00100000    F
cart. step rms                      0.05176078     0.00066667    F
 
 
--------
Geometry
--------
Formula: H4O8PaS
Atoms
  Index Symbol   x (angstrom)   y (angstrom)   z (angstrom)
      1     Pa     0.73379682    -0.45954322     0.26774881
      2      O     0.95111339     0.57510559    -1.76700011
      3      H     0.83846720     1.51819645    -1.90482035
      4      O    -0.42216193     0.89966377     0.80580747
      5      O     4.59789575    -1.01504878    -0.37140953
      6      O    -1.17799387    -1.06795987    -1.66144182
      7      H    -0.65336993    -0.34255901    -2.10275443
      8      O    -0.28048474    -1.98565733     1.40459723
      9      H    -1.04772931    -1.89818332     1.97683980
     10      O     2.84969391    -0.36674727     1.22837144
     11      O     2.30892160    -1.98282490    -0.40680433
     12      S     3.54468862    -1.53352878     0.46557718
     13      O     3.89596817    -2.61280067     1.35611847
     14      H    -1.93700303    -0.58765283    -1.30616730
 
Total System Charge            -1.00000
Bonding info available!
 
 *** GO1_GOStep19 ***



 ======================
 RI Hartree-Fock Scheme
 ======================
  
 Fit Set Quality     : GOOD
 Threshold Quality   : GOOD
 Integration Quality : GOOD
 Response Quality    : DEFAULT
 Is Range Separated  :  F
 
 RIHartreeFock Dependency: number of modified vectors:           5
  
 Hartree-Fock exchange energy:   -559.030439487714     

 Energy gradients wrt nuclear displacements
 ==========================================

     Atom      Cartesian (a.u./angstrom)
                 X         Y         Z
 ----------------------------------------
     1 Pa   -0.000874  0.008977  0.034152
     2 O     0.004064  0.008555 -0.008593
     3 H     0.001079 -0.002049 -0.000304
     4 O    -0.001843 -0.007002 -0.012072
     5 O    -0.001500 -0.001064  0.003342
     6 O    -0.007035 -0.027002  0.006540
     7 H    -0.002164  0.017736 -0.006154
     8 O     0.005354  0.001567 -0.006622
     9 H    -0.000534  0.001289  0.001587
    10 O    -0.000468 -0.000347 -0.002978
    11 O    -0.006700 -0.013362 -0.006950
    12 S     0.010259  0.010116  0.005991
    13 O    -0.002488 -0.004122 -0.005567
    14 H     0.002849  0.006707 -0.002373
 ----------------------------------------
 Mulliken charges used for AMS results%charges...

 dE(predicted):    -0.10720E-02, dE(actual):     0.12211E-04, Trust radius:    0.182920, all in a.u.
 
----------------------------------------------------------------------
Geometry Convergence after Step  19       (Hartree/Angstrom,Angstrom)
----------------------------------------------------------------------
current energy                               -4.05123567 Hartree
energy change                       0.00001221     0.00001400    T
constrained gradient max            0.03416980     0.00010000    F
constrained gradient rms            0.00916068     0.00006667    F
gradient max                        0.03416980
gradient rms                        0.00916068
cart. step max                      0.05568049     0.00100000    F
cart. step rms                      0.01517819     0.00066667    F
 
 
--------
Geometry
--------
Formula: H4O8PaS
Atoms
  Index Symbol   x (angstrom)   y (angstrom)   z (angstrom)
      1     Pa     0.73758612    -0.46195622     0.27150594
      2      O     0.92690391     0.55963973    -1.77026380
      3      H     0.81674452     1.50679116    -1.88823778
      4      O    -0.41529686     0.89730558     0.82416457
      5      O     4.58262682    -1.01395602    -0.39806276
      6      O    -1.16667714    -1.05346345    -1.66775593
      7      H    -0.59768944    -0.35374794    -2.08784511
      8      O    -0.29610207    -1.98057949     1.41171795
      9      H    -1.07672936    -1.89275459     1.96444715
     10      O     2.85331914    -0.36729318     1.22487213
     11      O     2.30316098    -1.99077015    -0.39936922
     12      S     3.54425503    -1.53628128     0.45710458
     13      O     3.91936082    -2.59668422     1.36060855
     14      H    -1.92965982    -0.57579009    -1.31822375
 
Total System Charge            -1.00000
Bonding info available!
 
 *** GO1_GOStep20 ***



 ======================
 RI Hartree-Fock Scheme
 ======================
  
 Fit Set Quality     : GOOD
 Threshold Quality   : GOOD
 Integration Quality : GOOD
 Response Quality    : DEFAULT
 Is Range Separated  :  F
 
 RIHartreeFock Dependency: number of modified vectors:           5
  
 Hartree-Fock exchange energy:   -559.033358886016     

 Energy gradients wrt nuclear displacements
 ==========================================

     Atom      Cartesian (a.u./angstrom)
                 X         Y         Z
 ----------------------------------------
     1 Pa    0.008981  0.009202  0.024393
     2 O     0.001013  0.004479 -0.006829
     3 H     0.001088 -0.000215  0.000369
     4 O    -0.005636 -0.005028 -0.009573
     5 O     0.000057  0.000870  0.001954
     6 O    -0.004207 -0.010809  0.000933
     7 H     0.001238  0.006137 -0.003024
     8 O     0.001834  0.000307 -0.003328
     9 H    -0.000130  0.000617  0.000918
    10 O    -0.000010  0.000225 -0.000680
    11 O    -0.006661 -0.009035 -0.006703
    12 S     0.003743  0.002766  0.002416
    13 O    -0.000264 -0.002111 -0.001852
    14 H    -0.001046  0.002596  0.001005
 ----------------------------------------
 Mulliken charges used for AMS results%charges...

 dE(predicted):    -0.80374E-03, dE(actual):    -0.98500E-03, Trust radius:    0.365840, all in a.u.
 
----------------------------------------------------------------------
Geometry Convergence after Step  20       (Hartree/Angstrom,Angstrom)
----------------------------------------------------------------------
current energy                               -4.05222067 Hartree
energy change                      -0.00098500     0.00001400    F
constrained gradient max            0.02441209     0.00010000    F
constrained gradient rms            0.00576893     0.00006667    F
gradient max                        0.02441209
gradient rms                        0.00576893
cart. step max                      0.07384259     0.00100000    F
cart. step rms                      0.02440040     0.00066667    F
 
 
--------
Geometry
--------
Formula: H4O8PaS
Atoms
  Index Symbol   x (angstrom)   y (angstrom)   z (angstrom)
      1     Pa     0.72894558    -0.47111910     0.29061933
      2      O     0.89498487     0.53334520    -1.76659186
      3      H     0.78836915     1.48392618    -1.86214598
      4      O    -0.41040958     0.89277846     0.86304014
      5      O     4.55740036    -1.01197682    -0.43968500
      6      O    -1.14241221    -1.03855602    -1.68738047
      7      H    -0.52384685    -0.37014292    -2.08748206
      8      O    -0.30775577    -1.97980852     1.44669943
      9      H    -1.09763888    -1.88880549     1.98485623
     10      O     2.85440763    -0.36462426     1.21940443
     11      O     2.28787246    -1.99606512    -0.38878597
     12      S     3.53973941    -1.53346538     0.44222170
     13      O     3.93988919    -2.57757981     1.35306407
     14      H    -1.90774273    -0.53744657    -1.38317145
 
Total System Charge            -1.00000
Bonding info available!
 
 *** GO1_GOStep21 ***



 ======================
 RI Hartree-Fock Scheme
 ======================
  
 Fit Set Quality     : GOOD
 Threshold Quality   : GOOD
 Integration Quality : GOOD
 Response Quality    : DEFAULT
 Is Range Separated  :  F
 
 RIHartreeFock Dependency: number of modified vectors:           5
  
 Hartree-Fock exchange energy:   -559.038806981769     

 Energy gradients wrt nuclear displacements
 ==========================================

     Atom      Cartesian (a.u./angstrom)
                 X         Y         Z
 ----------------------------------------
     1 Pa    0.014444  0.008925  0.018263
     2 O    -0.004348 -0.000620 -0.006327
     3 H     0.000914  0.000348  0.001346
     4 O    -0.008097 -0.003857 -0.006965
     5 O     0.001473  0.001526 -0.000350
     6 O     0.000031  0.002613 -0.002381
     7 H     0.001403 -0.001996 -0.000657
     8 O    -0.000197 -0.000096 -0.000788
     9 H     0.000190  0.000246  0.000312
    10 O    -0.000450  0.000361  0.002124
    11 O    -0.005259 -0.005319 -0.005596
    12 S     0.000387 -0.002794  0.000125
    13 O    -0.000061  0.000259 -0.000131
    14 H    -0.000430  0.000404  0.001025
 ----------------------------------------
 Mulliken charges used for AMS results%charges...

 dE(predicted):    -0.35396E-03, dE(actual):    -0.21903E-03, Trust radius:    0.365840, all in a.u.
 
----------------------------------------------------------------------
Geometry Convergence after Step  21       (Hartree/Angstrom,Angstrom)
----------------------------------------------------------------------
current energy                               -4.05243971 Hartree
energy change                      -0.00021903     0.00001400    F
constrained gradient max            0.01828484     0.00010000    F
constrained gradient rms            0.00472716     0.00006667    F
gradient max                        0.01828484
gradient rms                        0.00472716
cart. step max                      0.02033256     0.00100000    F
cart. step rms                      0.00566721     0.00066667    F
 
 
--------
Geometry
--------
Formula: H4O8PaS
Atoms
  Index Symbol   x (angstrom)   y (angstrom)   z (angstrom)
      1     Pa     0.72710916    -0.46990577     0.28606622
      2      O     0.91531743     0.54185001    -1.75985178
      3      H     0.79505336     1.48926650    -1.86928775
      4      O    -0.41640856     0.88911233     0.86444748
      5      O     4.55977803    -1.01965606    -0.43991513
      6      O    -1.14359368    -1.04192525    -1.68532952
      7      H    -0.53204442    -0.37042251    -2.08589145
      8      O    -0.30817416    -1.98189536     1.44416351
      9      H    -1.09580650    -1.89012020     1.98529824
     10      O     2.85313665    -0.35995829     1.21414818
     11      O     2.28785624    -1.99087060    -0.39495650
     12      S     3.53745396    -1.53281713     0.44073163
     13      O     3.93101577    -2.57475624     1.35729790
     14      H    -1.90889064    -0.54744158    -1.37225849
 
Total System Charge            -1.00000
Bonding info available!
 
 *** GO1_GOStep22 ***



 ======================
 RI Hartree-Fock Scheme
 ======================
  
 Fit Set Quality     : GOOD
 Threshold Quality   : GOOD
 Integration Quality : GOOD
 Response Quality    : DEFAULT
 Is Range Separated  :  F
 
 RIHartreeFock Dependency: number of modified vectors:           5
  
 Hartree-Fock exchange energy:   -559.038172832230     

 Energy gradients wrt nuclear displacements
 ==========================================

     Atom      Cartesian (a.u./angstrom)
                 X         Y         Z
 ----------------------------------------
     1 Pa    0.013743  0.008710  0.015674
     2 O    -0.001456  0.000345 -0.005779
     3 H     0.000662  0.000326  0.000938
     4 O    -0.008202 -0.003500 -0.006041
     5 O     0.000688  0.000711 -0.000233
     6 O    -0.001671  0.002414 -0.002172
     7 H     0.000770 -0.002193  0.000322
     8 O    -0.000821 -0.000551  0.000049
     9 H     0.000276  0.000134  0.000180
    10 O    -0.000697  0.001003  0.002823
    11 O    -0.004653 -0.004039 -0.005911
    12 S     0.000449 -0.003351 -0.001123
    13 O     0.000349  0.000457  0.000486
    14 H     0.000564 -0.000466  0.000786
 ----------------------------------------
 Mulliken charges used for AMS results%charges...

 dE(predicted):    -0.10574E-03, dE(actual):    -0.17333E-03, Trust radius:    0.365840, all in a.u.
 
----------------------------------------------------------------------
Geometry Convergence after Step  22       (Hartree/Angstrom,Angstrom)
----------------------------------------------------------------------
current energy                               -4.05261304 Hartree
energy change                      -0.00017333     0.00001400    F
constrained gradient max            0.01569469     0.00010000    F
constrained gradient rms            0.00431237     0.00006667    F
gradient max                        0.01569469
gradient rms                        0.00431237
cart. step max                      0.02163535     0.00100000    F
cart. step rms                      0.00999906     0.00066667    F
 
 
--------
Geometry
--------
Formula: H4O8PaS
Atoms
  Index Symbol   x (angstrom)   y (angstrom)   z (angstrom)
      1     Pa     0.71709750    -0.47525702     0.28898312
      2      O     0.93695278     0.54978122    -1.74032642
      3      H     0.79896044     1.49305365    -1.86328457
      4      O    -0.42142051     0.88251845     0.88154742
      5      O     4.54968042    -1.02866970    -0.45927679
      6      O    -1.13300673    -1.04794358    -1.68988837
      7      H    -0.52092707    -0.38143685    -2.09525253
      8      O    -0.31258411    -1.98623295     1.45915745
      9      H    -1.09930107    -1.88781711     2.00054681
     10      O     2.85170049    -0.34965530     1.19999642
     11      O     2.27659721    -1.98983908    -0.39479718
     12      S     3.53112039    -1.52855936     0.43215152
     13      O     3.92666580    -2.56362875     1.35610919
     14      H    -1.89973292    -0.54585380    -1.39100356
 
Total System Charge            -1.00000
Bonding info available!
 
 *** GO1_GOStep23 ***



 ======================
 RI Hartree-Fock Scheme
 ======================
  
 Fit Set Quality     : GOOD
 Threshold Quality   : GOOD
 Integration Quality : GOOD
 Response Quality    : DEFAULT
 Is Range Separated  :  F
 
 RIHartreeFock Dependency: number of modified vectors:           5
  
 Hartree-Fock exchange energy:   -559.038399370864     

 Energy gradients wrt nuclear displacements
 ==========================================

     Atom      Cartesian (a.u./angstrom)
                 X         Y         Z
 ----------------------------------------
     1 Pa    0.012050  0.007425  0.012207
     2 O     0.000982  0.000624 -0.004352
     3 H     0.000212  0.000215  0.000483
     4 O    -0.007683 -0.003259 -0.004675
     5 O    -0.000297 -0.000364  0.000045
     6 O    -0.001162  0.000480 -0.001776
     7 H     0.000028 -0.001690  0.000309
     8 O    -0.000811 -0.000688  0.000986
     9 H     0.000108  0.000088 -0.000042
    10 O    -0.001001  0.001625  0.003167
    11 O    -0.004493 -0.002317 -0.005680
    12 S     0.001028 -0.003128 -0.002411
    13 O     0.000587  0.000506  0.000964
    14 H     0.000451  0.000484  0.000774
 ----------------------------------------
 Mulliken charges used for AMS results%charges...

 dE(predicted):    -0.14821E-03, dE(actual):    -0.19224E-03, Trust radius:    0.365840, all in a.u.
 
----------------------------------------------------------------------
Geometry Convergence after Step  23       (Hartree/Angstrom,Angstrom)
----------------------------------------------------------------------
current energy                               -4.05280528 Hartree
energy change                      -0.00019224     0.00001400    F
constrained gradient max            0.01222708     0.00010000    F
constrained gradient rms            0.00365812     0.00006667    F
gradient max                        0.01222708
gradient rms                        0.00365812
cart. step max                      0.03931952     0.00100000    F
cart. step rms                      0.01531869     0.00066667    F
 
 
--------
Geometry
--------
Formula: H4O8PaS
Atoms
  Index Symbol   x (angstrom)   y (angstrom)   z (angstrom)
      1     Pa     0.70432624    -0.48862212     0.29530114
      2      O     0.95483205     0.55241764    -1.71323171
      3      H     0.79687172     1.49101202    -1.84677785
      4      O    -0.41851801     0.87575458     0.90232494
      5      O     4.53377351    -1.04249409    -0.49178295
      6      O    -1.11780945    -1.04959869    -1.70006612
      7      H    -0.49641834    -0.38666018    -2.09691649
      8      O    -0.32079909    -1.99447156     1.48108239
      9      H    -1.10915267    -1.88938027     2.01898933
     10      O     2.85136938    -0.32987620     1.17184067
     11      O     2.26062702    -1.99878546    -0.38537655
     12      S     3.52454599    -1.52099724     0.42062107
     13      O     3.92682946    -2.54061105     1.35897772
     14      H    -1.88867519    -0.53722754    -1.43032307
 
Total System Charge            -1.00000
Bonding info available!
 
 *** GO1_GOStep24 ***



 ======================
 RI Hartree-Fock Scheme
 ======================
  
 Fit Set Quality     : GOOD
 Threshold Quality   : GOOD
 Integration Quality : GOOD
 Response Quality    : DEFAULT
 Is Range Separated  :  F
 
 RIHartreeFock Dependency: number of modified vectors:           5
  
 Hartree-Fock exchange energy:   -559.041709871681     

 Energy gradients wrt nuclear displacements
 ==========================================

     Atom      Cartesian (a.u./angstrom)
                 X         Y         Z
 ----------------------------------------
     1 Pa    0.010755  0.005653  0.008124
     2 O     0.002643  0.000065 -0.001351
     3 H    -0.000460 -0.000044 -0.000027
     4 O    -0.006526 -0.003086 -0.003702
     5 O    -0.001057 -0.001252  0.000250
     6 O    -0.000246 -0.001235 -0.001205
     7 H    -0.001177 -0.000906  0.001101
     8 O    -0.000280 -0.000530  0.001575
     9 H    -0.000164  0.000091 -0.000350
    10 O    -0.001829  0.002158  0.002189
    11 O    -0.005287 -0.001338 -0.005199
    12 S     0.002167 -0.001506 -0.002155
    13 O     0.000192  0.000294  0.000701
    14 H     0.001271  0.001635  0.000050
 ----------------------------------------
 Mulliken charges used for AMS results%charges...

 dE(predicted):    -0.16873E-03, dE(actual):    -0.15915E-03, Trust radius:    0.365840, all in a.u.
 
----------------------------------------------------------------------
Geometry Convergence after Step  24       (Hartree/Angstrom,Angstrom)
----------------------------------------------------------------------
current energy                               -4.05296443 Hartree
energy change                      -0.00015915     0.00001400    F
constrained gradient max            0.01075221     0.00010000    F
constrained gradient rms            0.00303381     0.00006667    F
gradient max                        0.01075221
gradient rms                        0.00303381
cart. step max                      0.03074381     0.00100000    F
cart. step rms                      0.01154229     0.00066667    F
 
 
--------
Geometry
--------
Formula: H4O8PaS
Atoms
[...]
     9     H      -0.127151   0.045158  -0.113167
    10     O      -0.023023  -0.012118  -0.004425
    11     O      -0.013181   0.018038  -0.002497
    12     S       0.003891  -0.004469  -0.003726
    13     O       0.019584   0.008396   0.000175
    14     H       0.131747  -0.175931   0.672205
 
 Mode:    25      Frequency (cm-1):      459.9046     Intensity (km/mol):       41.9556
 Index  Atom      ---- Displacements (x/y/z) ----
     1    Pa       0.000333  -0.014187   0.024333
     2     O       0.094647   0.267553  -0.234520
     3     H       0.192306   0.176910  -0.649446
     4     O       0.013868  -0.008402  -0.055056
     5     O       0.024534  -0.009168   0.009471
     6     O      -0.101301  -0.069948   0.045443
     7     H       0.010762  -0.242498  -0.126602
     8     O      -0.016887   0.002402  -0.020573
     9     H       0.070809   0.012980   0.067067
    10     O      -0.022921  -0.004718  -0.009776
    11     O      -0.022166   0.006923   0.016340
    12     S       0.006456   0.005269  -0.008802
    13     O       0.006367   0.006878  -0.010685
    14     H      -0.176412   0.098228  -0.473713
 
 Mode:    26      Frequency (cm-1):      500.6774     Intensity (km/mol):       40.2072
 Index  Atom      ---- Displacements (x/y/z) ----
     1    Pa       0.009727   0.008118  -0.005403
     2     O       0.032848   0.000938   0.022937
     3     H      -0.399772  -0.061038  -0.624505
     4     O       0.012395  -0.018961  -0.006479
     5     O       0.028938  -0.034865   0.035976
     6     O       0.012374   0.026217  -0.032909
     7     H      -0.135799   0.263893   0.179036
     8     O      -0.097550  -0.115711   0.109300
     9     H      -0.165112  -0.240762   0.051119
    10     O      -0.057268  -0.001229  -0.026637
    11     O      -0.050650   0.035305   0.011659
    12     S      -0.012824   0.002286   0.000086
    13     O       0.053322   0.010511  -0.026513
    14     H      -0.081380  -0.343468   0.244221
 
 Mode:    27      Frequency (cm-1):      519.7212     Intensity (km/mol):      136.5652
 Index  Atom      ---- Displacements (x/y/z) ----
     1    Pa      -0.014460  -0.010176   0.008913
     2     O       0.052171   0.009168   0.010525
     3     H      -0.322194  -0.039444  -0.524422
     4     O       0.014821   0.029924  -0.000435
     5     O      -0.013400   0.038934  -0.040665
     6     O       0.005577   0.014288  -0.042287
     7     H      -0.164024   0.315860   0.235775
     8     O       0.105958   0.099848  -0.092065
     9     H       0.051120   0.242262  -0.157995
    10     O       0.051793  -0.010549   0.026090
    11     O       0.045928  -0.043265   0.004232
    12     S       0.022688   0.003801  -0.007869
    13     O      -0.067966  -0.007050   0.025998
    14     H      -0.062734  -0.390280   0.376771
 
 Mode:    28      Frequency (cm-1):      529.2649     Intensity (km/mol):       25.8124
 Index  Atom      ---- Displacements (x/y/z) ----
     1    Pa      -0.011826   0.030415  -0.011725
     2     O       0.016476   0.044924  -0.091053
     3     H      -0.043497   0.067280  -0.022050
     4     O       0.015570  -0.047393  -0.004300
     5     O      -0.197386   0.276158  -0.226762
     6     O      -0.016873  -0.007251  -0.009345
     7     H      -0.017268  -0.093532  -0.144989
     8     O      -0.211343  -0.272500   0.231772
     9     H      -0.268022  -0.380239   0.186561
    10     O       0.293678  -0.029580   0.036898
    11     O       0.254908  -0.115767  -0.044009
    12     S       0.160651  -0.081013   0.023869
    13     O      -0.287158  -0.106409   0.225922
    14     H       0.040404   0.095822   0.020631
 
 Mode:    29      Frequency (cm-1):      566.3297     Intensity (km/mol):       49.6566
 Index  Atom      ---- Displacements (x/y/z) ----
     1    Pa       0.004988   0.010524  -0.010703
     2     O      -0.040767  -0.022499   0.019708
     3     H       0.081880  -0.011164   0.169518
     4     O      -0.003555  -0.012557   0.004390
     5     O       0.417408  -0.042660  -0.084121
     6     O       0.008513   0.004281   0.008440
     7     H       0.027222  -0.078309  -0.090127
     8     O      -0.039649  -0.067852   0.060569
     9     H      -0.046301  -0.115955   0.058208
    10     O      -0.111689  -0.304053   0.358741
    11     O      -0.119411  -0.262886   0.341591
    12     S       0.090575   0.174569  -0.232239
    13     O      -0.369971   0.213707  -0.094827
    14     H       0.032691   0.103325  -0.069011
 
 Mode:    30      Frequency (cm-1):      590.4852     Intensity (km/mol):       12.1727
 Index  Atom      ---- Displacements (x/y/z) ----
     1    Pa       0.001238   0.008407   0.005593
     2     O       0.004231   0.005593  -0.019366
     3     H      -0.043822   0.022563   0.034839
     4     O      -0.001659   0.013290   0.010741
     5     O      -0.074223  -0.295990  -0.259708
     6     O       0.002474  -0.000242  -0.000127
     7     H      -0.001808  -0.005118  -0.012974
     8     O      -0.014206  -0.029065   0.017664
     9     H      -0.040315   0.046350  -0.013330
    10     O      -0.479633   0.238821   0.036353
    11     O       0.553359  -0.100684   0.121976
    12     S       0.041777   0.164386   0.138154
    13     O      -0.087320  -0.286420  -0.266777
    14     H       0.015853   0.010452   0.027934
 
 Mode:    31      Frequency (cm-1):      646.2328     Intensity (km/mol):      247.2926
 Index  Atom      ---- Displacements (x/y/z) ----
     1    Pa       0.012919  -0.012869  -0.002865
     2     O      -0.013367  -0.023704   0.057123
     3     H       0.078142  -0.041811   0.039149
     4     O      -0.056076   0.078934   0.040074
     5     O      -0.019292   0.174143  -0.197376
     6     O       0.006419  -0.001555   0.019325
     7     H       0.072546   0.010994   0.113876
     8     O       0.040832   0.075709  -0.054720
     9     H       0.084271  -0.004271  -0.008790
    10     O      -0.371621  -0.293349  -0.372349
    11     O      -0.148797   0.476176   0.317517
    12     S       0.248636  -0.082060   0.023508
    13     O      -0.134422  -0.134614   0.183824
    14     H      -0.033056   0.006137  -0.128668
 
 Mode:    32      Frequency (cm-1):      824.1253     Intensity (km/mol):      187.3584
 Index  Atom      ---- Displacements (x/y/z) ----
     1    Pa      -0.026102   0.034730   0.017074
     2     O       0.006223  -0.029062   0.034872
     3     H       0.002213  -0.003988   0.175705
     4     O       0.336326  -0.574099  -0.319894
     5     O      -0.022503   0.014252   0.058695
     6     O      -0.003075  -0.011705   0.002564
     7     H       0.156573   0.061996   0.292460
     8     O       0.041094   0.033517  -0.038353
     9     H       0.036579   0.167571  -0.055951
    10     O       0.003823   0.051591   0.044369
    11     O       0.232722   0.243497   0.270979
    12     S      -0.115046  -0.155239  -0.162716
    13     O      -0.002135   0.064595  -0.004106
    14     H       0.034935   0.029495   0.056043
 
 Mode:    33      Frequency (cm-1):      844.4255     Intensity (km/mol):      367.7996
 Index  Atom      ---- Displacements (x/y/z) ----
     1    Pa       0.016372  -0.036865  -0.022120
     2     O       0.000275   0.033850  -0.030928
     3     H      -0.102524   0.026959  -0.156027
     4     O      -0.237672   0.432030   0.246030
     5     O      -0.040384   0.009802   0.112855
     6     O       0.003783   0.012441   0.001167
     7     H      -0.146609  -0.070761  -0.298261
     8     O      -0.034498  -0.029646   0.042141
     9     H      -0.077474  -0.065700   0.005304
    10     O       0.068212   0.186986   0.175614
    11     O       0.329590   0.264819   0.320385
    12     S      -0.154656  -0.244238  -0.247866
    13     O       0.004914   0.117673  -0.022294
    14     H      -0.015520  -0.005666  -0.027077
 
 Mode:    34      Frequency (cm-1):      878.2183     Intensity (km/mol):      214.5826
 Index  Atom      ---- Displacements (x/y/z) ----
     1    Pa       0.000594   0.000948   0.003885
     2     O      -0.003252   0.001411  -0.011342
     3     H      -0.085811   0.008024  -0.042745
     4     O      -0.016601   0.020859   0.006950
     5     O      -0.137959  -0.100554   0.121627
     6     O       0.018872   0.027950   0.002087
     7     H      -0.299462  -0.123267  -0.588432
     8     O      -0.004836  -0.010017   0.007409
     9     H      -0.004723  -0.002598   0.008515
    10     O       0.229165  -0.438162  -0.274034
    11     O       0.231900   0.049943   0.119296
    12     S      -0.129291   0.160243   0.084134
    13     O      -0.042686   0.126023  -0.161842
    14     H      -0.002648  -0.063932   0.076032
 
 Mode:    35      Frequency (cm-1):      905.4026     Intensity (km/mol):      252.1056
 Index  Atom      ---- Displacements (x/y/z) ----
     1    Pa       0.000506   0.000724  -0.003784
     2     O       0.005280   0.007221  -0.008682
     3     H       0.124553   0.004557   0.064041
     4     O      -0.015892   0.023126   0.016451
     5     O      -0.012601  -0.010054   0.012983
     6     O      -0.032104  -0.041511  -0.010770
     7     H       0.431678   0.180842   0.856042
     8     O      -0.010847  -0.009847   0.004687
     9     H       0.000300  -0.008028   0.016582
    10     O       0.023289  -0.029675  -0.014125
    11     O       0.022791  -0.001559   0.007996
    12     S      -0.009202   0.009818   0.005152
    13     O      -0.004469   0.014536  -0.016986
    14     H       0.009026   0.103276  -0.098599
 
 Mode:    36      Frequency (cm-1):     1178.5272     Intensity (km/mol):      476.4531
 Index  Atom      ---- Displacements (x/y/z) ----
     1    Pa      -0.005590   0.002489   0.000326
     2     O      -0.000926  -0.007967   0.016427
     3     H       0.008123  -0.015760  -0.004317
     4     O       0.018008  -0.027082  -0.014550
     5     O      -0.463590  -0.193585   0.366132
     6     O       0.005281   0.004509   0.005447
     7     H      -0.037324  -0.019112  -0.084365
     8     O       0.011611   0.014780  -0.010901
     9     H       0.015256  -0.007112  -0.009630
    10     O      -0.068497   0.095098   0.054099
    11     O      -0.079778  -0.027280  -0.047809
    12     S       0.430577  -0.151501   0.013716
    13     O      -0.200602   0.412704  -0.394781
    14     H      -0.008869  -0.026270   0.000003
 
 Mode:    37      Frequency (cm-1):     1315.6611     Intensity (km/mol):      309.8800
 Index  Atom      ---- Displacements (x/y/z) ----
     1    Pa      -0.000493  -0.000911   0.001165
     2     O       0.004468   0.002098  -0.002813
     3     H      -0.017955   0.005149  -0.003641
     4     O       0.000497   0.000517  -0.001130
     5     O       0.399317   0.212805  -0.365166
     6     O      -0.000258   0.000862  -0.000030
     7     H      -0.003233  -0.003303  -0.020509
     8     O       0.000242   0.004197  -0.003903
     9     H       0.006316  -0.001229   0.002052
    10     O       0.009123   0.026049  -0.030198
    11     O       0.008080   0.022915  -0.028987
    12     S      -0.132132  -0.333114   0.413339
    13     O      -0.149076   0.410212  -0.409824
    14     H      -0.003485  -0.010648   0.006204
 
 Mode:    38      Frequency (cm-1):     1613.1842     Intensity (km/mol):       58.0795
 Index  Atom      ---- Displacements (x/y/z) ----
     1    Pa       0.000188  -0.000053  -0.000299
     2     O      -0.003357   0.006730   0.000731
     3     H       0.042137   0.003457   0.027304
     4     O      -0.001436   0.001331   0.000146
     5     O       0.000098  -0.000056   0.000084
     6     O      -0.027885   0.056482  -0.006646
     7     H       0.619010  -0.499762  -0.100662
     8     O       0.000035  -0.000153  -0.000033
     9     H      -0.001487  -0.000333  -0.001536
    10     O       0.000036  -0.000082   0.000097
    11     O       0.000244  -0.000009   0.000234
    12     S      -0.000231   0.000171  -0.000268
    13     O       0.000190  -0.000303   0.000331
    14     H      -0.186350  -0.511506   0.232285
 
 Mode:    39      Frequency (cm-1):     3226.3281     Intensity (km/mol):      477.2555
 Index  Atom      ---- Displacements (x/y/z) ----
     1    Pa      -0.000193  -0.000166   0.000123
     2     O      -0.001770   0.001164  -0.003898
     3     H      -0.003163  -0.005661  -0.001972
     4     O       0.000428   0.000020  -0.000207
     5     O      -0.000026   0.000088  -0.000078
     6     O       0.032257   0.046706  -0.024861
     7     H      -0.526736  -0.704698   0.463970
     8     O       0.000548   0.000344  -0.000033
     9     H      -0.000627   0.000319  -0.001071
    10     O       0.000012   0.000141  -0.000060
    11     O      -0.000023   0.000143  -0.000071
    12     S       0.000058  -0.000143   0.000098
    13     O      -0.000048   0.000127  -0.000104
    14     H       0.074937  -0.020812  -0.026941
 
 Mode:    40      Frequency (cm-1):     3850.8358     Intensity (km/mol):       67.7607
 Index  Atom      ---- Displacements (x/y/z) ----
     1    Pa      -0.000009   0.000009  -0.000019
     2     O       0.000014  -0.002279   0.000650
     3     H       0.004443   0.035435  -0.006837
     4     O      -0.000061   0.000117   0.000110
     5     O       0.000031  -0.000003  -0.000005
     6     O      -0.055893   0.021125   0.018112
     7     H       0.011746   0.061054  -0.024179
     8     O       0.000726  -0.000119  -0.000708
     9     H      -0.012113   0.000690   0.012513
    10     O       0.000066  -0.000021   0.000016
    11     O       0.000060  -0.000041   0.000001
    12     S      -0.000034   0.000023  -0.000005
    13     O       0.000028  -0.000021   0.000023
    14     H       0.872420  -0.397798  -0.265819
 
 Mode:    41      Frequency (cm-1):     3868.1550     Intensity (km/mol):       55.9164
 Index  Atom      ---- Displacements (x/y/z) ----
     1    Pa      -0.000003   0.000020   0.000002
     2     O       0.008426   0.061004  -0.011637
     3     H      -0.131084  -0.971917   0.180964
     4     O      -0.000093   0.000078   0.000192
     5     O       0.000061   0.000012  -0.000012
     6     O      -0.002311   0.000339   0.000774
     7     H       0.002321   0.008140  -0.004017
     8     O       0.000543  -0.000088  -0.000515
     9     H      -0.009002   0.000766   0.009015
    10     O       0.000112  -0.000025   0.000038
    11     O       0.000137  -0.000062  -0.000002
    12     S      -0.000084   0.000012  -0.000008
    13     O       0.000038  -0.000029   0.000027
    14     H       0.031388  -0.013723  -0.009401
 
 Mode:    42      Frequency (cm-1):     3878.4702     Intensity (km/mol):       71.7684
 Index  Atom      ---- Displacements (x/y/z) ----
     1    Pa       0.000019  -0.000016  -0.000004
     2     O      -0.000136  -0.000783   0.000180
     3     H       0.001543   0.011717  -0.002197
     4     O       0.000013  -0.000294  -0.000014
     5     O      -0.000054  -0.000003   0.000020
     6     O       0.001024  -0.000370  -0.000263
     7     H      -0.000313  -0.001149   0.000221
     8     O       0.044489  -0.002722  -0.044259
     9     H      -0.707016   0.051138   0.702214
    10     O      -0.000132   0.000023  -0.000018
    11     O      -0.000139   0.000083  -0.000007
    12     S       0.000076  -0.000031   0.000019
    13     O      -0.000036   0.000035  -0.000037
    14     H      -0.015683   0.006974   0.004604

PES point character: Geometry corresponds to a local minimum on the PES.




 ============================
 Statistical Thermal Analysis  ***  ideal gas assumed  ***
 ============================
  
 Pressure:                  1.000000 atm.
 Temperature:             298.150000 K



 Moments of Inertia [amu*bohr^2] and principal axis
 ==================================================

        1281.2498       3569.1771       3847.7499
 ------------------------------------------------
           0.9447         -0.2786          0.1731
          -0.2785         -0.4024          0.8721
           0.1733          0.8721          0.4577


 The rotational contribution to the molecular entropy includes
 a term, dependent on the symmetry number sigma. The results 
 reported below were computed using sigma = 1, determined from
 the point group symmetry of the input geometry (NOSYM). 
 If this is not the correct symmetry, try symmetrizing the molecule before
 running the calculation (note: linear molecules should be aligned along one
 of the Cartesian axes).
 Contributions from frequencies below 20 1/cm are not included in vibrational sums.
 Their contributions, if any, are reported separately.


     Temp                                                        Transl      Rotat     Vibrat     Total
     ----                                                        ------      -----     ------     -----

     298.15   Entropy (cal/mol-K):                               43.813     31.243     49.593    124.649
              Nuclear Internal Energy (kcal/mol):                 0.889      0.889     50.388     52.165
              Constant Volume Heat Capacity (cal/mol-K):          2.981      2.981     42.671     48.632
          (c) Constant Volume Heat Capacity (cal/mol-K):          2.981      2.981     38.249     44.211

       Summary of energy terms
                                                   hartree              eV         kcal/mol           kJ/mol
                                      --------------------     -----------       ----------      -----------
      Energy from Engine:               -4.055514581987302       -110.3562         -2544.87        -10647.75
      Nuclear Internal Energy:           0.083130253107016          2.2621            52.17           218.26
  (c) Nuclear Internal Energy:           0.080868548099295          2.2005            50.75           212.32
      Internal Energy U:                -3.972384328880286       -108.0941         -2492.71        -10429.49
      pV/n = RT:                         0.000944186013486          0.0257             0.59             2.48
      Enthalpy H:                       -3.971440142866800       -108.0684         -2492.12        -10427.01
      -T*S:                             -0.059224697296707         -1.6116           -37.16          -155.49
  (c) -T*S:                             -0.057035741539914         -1.5520           -35.79          -149.75
      Gibbs free energy:                -4.030664840163507       -109.6800         -2529.28        -10582.51
 
 
 
  (c) The properties marked with this symbol have been corrected using 'low vibrational frequency free rotor
      interpolation corrections'. For those terms all positive frequencies are used (also ones below 20 1/cm),
      but the contribution to the partition function of small vibrational frequencies is modified as described
      in the following paper:
      S. Grimme, 'Supramolecular Binding Thermodynamics by Dispersion-Corrected Density Functional Theory'
      (Chem. Eur. J. 2012, 18, 9955-9964)
      Configuration: Dampener Frequency          :   100.000 1/cm
                     Dampener Alpha              :     4.000
                     Averaging Moment of Inertia : 1.000E-44 kg m2

--------------
Atomic charges
--------------
  Index   Atom    Charge
      1     Pa    2.3168
      2      O   -0.7182
      3      H    0.1068
      4      O   -0.7730
      5      O   -0.6630
      6      O   -0.4824
      7      H    0.2499
      8      O   -0.6704
      9      H    0.0805
     10      O   -0.7891
     11      O   -0.7725
     12      S    1.5753
     13      O   -0.6612
     14      H    0.2005


Dipole moment vector    (Debye):   -14.33692815    6.43415328   -2.46334284
              magnitude (Debye):    15.90641051


Final PES point is a local minimum. Geometry optimization successful!


AMS application finished. Exiting.
NORMAL TERMINATION
     Total cpu time:  125756.95
  Total system time:    2721.34
 Total elapsed time:  128485.65
