

 Parallel Execution: Process Information
 ==============================================================================
 Rank   Node Name                              NodeID   MyNodeRank  NodeMaster
    0   u-0-8.local                               0          0          0
    1   u-0-8.local                               0          1         -1
    2   u-0-8.local                               1          0          1
    3   u-0-8.local                               1          1         -1
    4   u-0-8.local                               2          0          2
    5   u-0-8.local                               2          1         -1
    6   u-0-8.local                               3          0          3
    7   u-0-8.local                               3          1         -1
 ==============================================================================


May use up to 31228MB of RAM as shared memory on node 0
May use up to 31250MB of RAM as shared memory on node 2
May use up to 31250MB of RAM as shared memory on node 3
May use up to 31250MB of RAM as shared memory on node 1

 *******************************************************************************
 *                                                                             *
 *  --------------------------------                                           *
 *   Amsterdam Modeling Suite (AMS)              2023.101                      *
 *  --------------------------------                                           *
 *                                               r111868 2023-03-31            *
 *                                                                             *
 *                                                                             *
 *                              =================                              *
 *                              |               |                              *
 *                              |     A M S     |                              *
 *                              |               |                              *
 *                              =================                              *
 *                                                                             *
 *                                                                             *
 *   Online information and documentation:  https://www.scm.com/support/       *
 *   E-mail:  support@scm.com   info@scm.com                                   *
 *                                                                             *
 *   Scientific publications using AMS results must be properly referenced     *
 *   See the User Manuals (or the web site) for recommended citations          *
 *   The terms and conditions of the End User License Agreement apply to       *
 *   the use of AMS, https://www.scm.com/license-terms/                        *
 *                                                                             *
 **********************  x86_64_linux_intel / intelmpi  ************************
 
 Licensed to: Dr. Val?rie Vallet / Laboratoire PhLAM UMR 8523 / Villeneuve d'Ascq Cedex / FRANCE 2023-12-11 15:27:25
 SCM User ID: u10325
  
 AMS 2023.101  RunTime: Jan15-2024 09:01:38  ShM Nodes: 4  Procs: 8

 AMS jobname: pa_oh4_cl.SO.b3lyp.tz2p.sp-B22
 AMS jobid  : 335989737

 Start   directory: /home/shaaban/ams/PhD/chloride/pa_oh4_cl/gp/B22/SP-SR-SO/
 Results directory: /home/shaaban/ams/PhD/chloride/pa_oh4_cl/gp/B22/SP-SR-SO/pa_oh4_cl.SO.b3lyp.tz2p.sp-B22.results/
 Scratch directory: /state/partition2/shaaban/999610.phlam-s-sakura/amstmp_pa_oh4_cl.SO.b3lyp.tz2p.sp-B22_kid0.335989737/


 Communication costs MPI_COMM_WORLD:      2.748 usec per message,   0.0087 usec per 8-byte item
 Communication costs for intra-node:      0.595 usec per message,   0.0025 usec per 8-byte item

 RNG seed: 590783791 -1131692642 110348439 -1589084669 -538724894 -1895889937 -978200268 1280853274



                      ************************************************************************
                      *  ADF 2023.101  RunTime: Jan15-2024 09:01:39  ShM Nodes: 4  Procs: 8  *
                      ************************************************************************
  

       ****************************
       * SINGLE POINT CALCULATION *
       ****************************
 
--------
Geometry
--------
Formula: H4ClO4Pa
Atoms
  Index Symbol   x (angstrom)   y (angstrom)   z (angstrom)
      1     Pa     0.30700935    -0.11796239     0.06596857
      2     Cl     1.36510650     1.71666867    -1.46136819
      3      H    -1.95493831     1.86078183     0.49156246
      4      O    -1.29239967     1.17063144     0.42951308
      5      H     2.80234605     0.03159036     1.80197212
      6      O     0.20079164    -1.37520972    -1.59551658
      7      H     0.20668271    -1.82257898    -2.44338890
      8      O    -0.54419223    -1.57781690     1.27850005
      9      H    -1.03638615    -2.22255642     1.78968839
     10      O     2.00452215    -0.03966821     1.27548857
 
Total System Charge             0.00000
Bonding info available!
 
 
----------------
ADF Engine Input
----------------
 
 Basis
 Type TZ2P
 Core None
 End
 XC
 Hybrid B3LYP
 End
 Relativity
 Level Spin-Orbit
 End
 NumericalQuality Good
 

 Title: *** (NO TITLE) ***

 *** adf ***



 ===========================
 A T T A C H E D   F I L E S
 ===========================
  



 ===============================
 M O D E L   P A R A M E T E R S
 ===============================
  
 DENSITY FUNCTIONAL POTENTIAL (scf)
    Hybrid:                            B3LYP                                   == Not Default ==

 SPIN  (restricted / unrestr.)
    Molecule:                          Restricted                               
    Fragments:                         Restricted                               

 OTHER ASPECTS
    Relativistic Corrections:          Spin-Orbit (ZORA,MAPA)                  == Not Default ==

    Nuclear Charge Density Model:      Point Charge Nuclei                      
    Core Treatment:                    Frozen Orbital(s)                        

    Hyperfine or Zeeman Interaction:   ---                                      


 Fragment File(s)
 ----------------
 Pa:
         file : /home/shaaban/ams/PhD/chloride/pa_oh4_cl/gp/B22/SP-SR-SO/pa_oh4_cl.SO.b3lyp.tz2p.sp-B22.results/t21.376DF1AB.Pa
         jobid: 0
         title: Protactinium (TZ2P, all electron)
 Cl:
         file : /home/shaaban/ams/PhD/chloride/pa_oh4_cl/gp/B22/SP-SR-SO/pa_oh4_cl.SO.b3lyp.tz2p.sp-B22.results/t21.16A3175F.Cl
         jobid: 0
         title: Chlorine (TZ2P)
 H:
         file : /home/shaaban/ams/PhD/chloride/pa_oh4_cl/gp/B22/SP-SR-SO/pa_oh4_cl.SO.b3lyp.tz2p.sp-B22.results/t21.1FC863BF.H
         jobid: 0
         title: Hydrogen (TZ2P)
 O:
         file : /home/shaaban/ams/PhD/chloride/pa_oh4_cl/gp/B22/SP-SR-SO/pa_oh4_cl.SO.b3lyp.tz2p.sp-B22.results/t21.6BA271D4.O
         jobid: 0
         title: Oxygen (TZ2P)



 ===============
 G E O M E T R Y  ***  3D  Molecule  ***
 ===============
  

 ATOMS
 =====                            X Y Z                    CHARGE
                                (Angstrom)             Nucl     +Core       At.Mass
                       --------------------------    ----------------       -------
    1  Pa              0.3070   -0.1180    0.0660     91.00     91.00      231.0359
    2  Cl              1.3651    1.7167   -1.4614     17.00     17.00       34.9689
    3  H              -1.9549    1.8608    0.4916      1.00      1.00        1.0078
    4  O              -1.2924    1.1706    0.4295      8.00      8.00       15.9949
    5  H               2.8023    0.0316    1.8020      1.00      1.00        1.0078
    6  O               0.2008   -1.3752   -1.5955      8.00      8.00       15.9949
    7  H               0.2067   -1.8226   -2.4434      1.00      1.00        1.0078
    8  O              -0.5442   -1.5778    1.2785      8.00      8.00       15.9949
    9  H              -1.0364   -2.2226    1.7897      1.00      1.00        1.0078
   10  O               2.0045   -0.0397    1.2755      8.00      8.00       15.9949


 FRAGMENTS
 =========                                     Atoms in this Fragment     Cart. coord.s (Angstrom)
                                               -------------------------------------------------------
    1  Pa                                                1  Pa           0.3070   -0.1180    0.0660
    2  Cl                                                2  Cl           1.3651    1.7167   -1.4614
    3  H                                                 3  H           -1.9549    1.8608    0.4916
    4  H                                                 5  H            2.8023    0.0316    1.8020
    5  H                                                 7  H            0.2067   -1.8226   -2.4434
    6  H                                                 9  H           -1.0364   -2.2226    1.7897
    7  O                                                 4  O           -1.2924    1.1706    0.4295
    8  O                                                 6  O            0.2008   -1.3752   -1.5955
    9  O                                                 8  O           -0.5442   -1.5778    1.2785
   10  O                                                10  O            2.0045   -0.0397    1.2755


 Interatomic Distance Matrix (Angstrom)
 --------------------------------------

   1)     0.000
   2)     2.611   0.000
   3)     3.035   3.855   0.000
   4)     2.086   3.307   0.959   0.000
   5)     3.043   3.944   5.263   4.466   0.000
   6)     2.086   3.307   4.413   3.579   4.504   0.000
   7)     3.035   3.851   5.182   4.411   5.310   0.959   0.000
   8)     2.080   4.691   3.799   2.972   3.750   2.976   3.805   0.000
   9)     3.034   5.644   4.382   3.665   4.452   3.702   4.430   0.959   0.000
  10)     2.086   3.314   4.461   3.613   0.959   3.644   4.499   2.977   3.778   0.000

 Min. Distance =    0.9585
 Max. Distance =    5.6439



 =====================================
 S Y M M E T R Y ,   E L E C T R O N S
 =====================================
  
 Symmetry: NOSYM

 Double Group Irreducible Representations (spinor symmetry)
 -----------------------------------------------------------
 A1/2

 Symmetry is NOT used when fitting density


 Configuration of Valence Electrons
 ==================================
 ( determined in the SCF procedure )

 Total:   144

 Net Charge: 0 (Nuclei minus Electrons)

 Aufbau principle for MO occupations will be applied through SCF cycle no.     150
 Thereafter, the program will assign electrons to MOs that are spatially
 similar to the occupied MOs in a "reference" cycle ("KeepOrbitals").
 The reference cycle is always the PREVIOUS cycle: it will evolve with
 the SCF procedure.
1
 ***************************************************************************************************



                                      ****************************************
                                      *  B U I L D : (Fragments, Functions)  *
                                      ****************************************
  



 =======
 S F O s  ***  (Symmetrized Fragment Orbitals)  ***
 =======
  
 SFOs are linear combinations of (valence) Fragment Orbitals (FOs), such that the SFOs transform as the
 irreducible representations of the (molecular) symmetry group. Each SFO is therefore characterized by
 an irrep of the molecule and by a few (or only one) generating FOs.
 The SFOs constitute a symmetry-adapted basis for the Fock matrix. The MO eigenvector coefficients in
 this basis provide a direct interpretation of the MOs in terms of Frontier Orbital Theory.

 The SFOs are combined with auxiliary Core Functions (CFs) to ensure orthogonalization on the (frozen)
 Core Orbitals (COs). The Core-orthogonalized SFOs (CSFOs) constitute the true Fock basis.

 The FOs, and hence also the (C)SFOs are combinations of the elementary basis functions (BAS). The basis
 functions that participate in the description of the SFOs depend on the irrep. The indices of the
 involved functions are printed below for each irrep.
 (The complete list of primitive basis functions is printed in another section)

 Total nr. of (C)SFOs (summation over all irreps) :   317

 NOTE: a (C)SFO that is defined as a combination of more than one FO is usually NOT normalized.

 NOTE: the (C)SFOs are single group symmetry adapted orbitals.



                                       === A ===
 Nr. of SFOs :  317
 Cartesian basis functions that participate in this irrep (total number =   365) :
      1     2     3     4     5     6     7     8     9    10
     11    12    13    14    15    16    17    20    23    26
     29    32    35    38    41    44    47    50   157    18
     21    24    27    30    33    36    39    42    45    48
     51   158    19    22    25    28    31    34    37    40
     43    46    49    52   159    53    59    65    71    77
     83    89    95   101    54    60    66    72    78    84
     90    96   102    55    61    67    73    79    85    91
     97   103    56    62    68    74    80    86    92    98
    104    57    63    69    75    81    87    93    99   105
     58    64    70    76    82    88    94   100   106   107
    117   127   137   147   108   118   128   138   148   109
    119   129   139   149   110   120   130   140   150   111
    121   131   141   151   112   122   132   142   152   113
    123   133   143   153   114   124   134   144   154   115
    125   135   145   155   116   126   136   146   156   160
    161   162   163   170   171   172   164   167   173   176
    179   165   168   174   177   180   166   169   175   178
    181   182   183   184   185   186   187   188   189   190
    191   192   193   194   195   196   197   198   199   200
    201   202   203   204   205   206   207   208   209   210
    211   212   213   214   215   216   217   218   219   220
    221   222   223   224   225   226   227   228   229   230
    231   232   233   234   235   236   237   238   239   240
    241   242   243   244   245   246   247   248   249   250
    251   254   257   252   255   258   253   256   259   260
    261   262   263   264   265   266   267   268   269   270
    271   272   273   274   275   276   277   278   279   280
    281   284   287   282   285   288   283   286   289   290
    291   292   293   294   295   296   297   298   299   300
    301   302   303   304   305   306   307   308   309   310
    311   314   317   312   315   318   313   316   319   320
    321   322   323   324   325   326   327   328   329   330
    331   332   333   334   335   336   337   338   339   340
    341   344   347   342   345   348   343   346   349   350
    351   352   353   354   355   356   357   358   359   360
    361   362   363   364   365

    SFO  (index         Fragment          Generating    Expansion in Fragment Orbitals
  indx  incl.CFs)   Occup   Orb.Energy   FragmentType  Coeff.   Orbital     on Fragment
 --------------------------------------------------------------------------------------
     1       1      2.000   -4140.144 au  Pa            1.00      1 S               1
                        ( -112659.040 eV)
     2       2      2.000    -772.390 au  Pa            1.00      2 S               1
                        (  -21017.794 eV)
     3       3      2.000    -195.003 au  Pa            1.00      3 S               1
                        (   -5306.298 eV)
     4       4      2.000     -49.664 au  Pa            1.00      4 S               1
                        (   -1351.436 eV)
     5       5      2.000     -11.057 au  Pa            1.00      5 S               1
                        (    -300.888 eV)
     6       6      2.000      -1.766 au  Pa            1.00      6 S               1
                        (     -48.049 eV)
     7       7      2.000      -0.167 au  Pa            1.00      7 S               1
                        (      -4.550 eV)
     8       8       --         0.031 au  Pa            1.00      8 S               1
                        (       0.841 eV)
     9       9       --         0.336 au  Pa            1.00      9 S               1
                        (       9.133 eV)
    10      10       --         1.674 au  Pa            1.00     10 S               1
                        (      45.549 eV)
    11      11       --         8.680 au  Pa            1.00     11 S               1
                        (     236.196 eV)
    12      12       --        46.308 au  Pa            1.00     12 S               1
                        (    1260.118 eV)
    13      13       --      1052.293 au  Pa            1.00     13 S               1
                        (   28634.347 eV)
    14      14       --      5423.866 au  Pa            1.00     14 S               1
                        (  147590.909 eV)
    15      15       --     16326.809 au  Pa            1.00     15 S               1
                        (  444275.077 eV)
    16      16       --     46434.730 au  Pa            1.00     16 S               1
                        ( 1263553.301 eV)
    17      17      2.000    -644.804 au  Pa            1.00      1 P:x             1
                        (  -17546.004 eV)
    18      18      2.000    -159.382 au  Pa            1.00      2 P:x             1
                        (   -4336.995 eV)
    19      19      2.000     -38.001 au  Pa            1.00      3 P:x             1
                        (   -1034.059 eV)
    20      20      2.000      -7.452 au  Pa            1.00      4 P:x             1
                        (    -202.774 eV)
    21      21      2.000      -0.880 au  Pa            1.00      5 P:x             1
                        (     -23.949 eV)
    22      22       --        -0.008 au  Pa            1.00      6 P:x             1
                        (      -0.215 eV)
    23      23       --         0.404 au  Pa            1.00      7 P:x             1
                        (      10.994 eV)
    24      24       --         1.850 au  Pa            1.00      8 P:x             1
                        (      50.342 eV)
    25      25       --         7.570 au  Pa            1.00      9 P:x             1
                        (     205.994 eV)
    26      26       --        35.931 au  Pa            1.00     10 P:x             1
                        (     977.731 eV)
    27      27       --       178.469 au  Pa            1.00     11 P:x             1
                        (    4856.387 eV)
    28      28       --      1509.400 au  Pa            1.00     12 P:x             1
                        (   41072.871 eV)
    29      29       --     10783.504 au  Pa            1.00     13 P:x             1
                        (  293434.081 eV)
    30      30      2.000    -644.804 au  Pa            1.00      1 P:y             1
                        (  -17546.004 eV)
    31      31      2.000    -159.382 au  Pa            1.00      2 P:y             1
                        (   -4336.995 eV)
    32      32      2.000     -38.001 au  Pa            1.00      3 P:y             1
                        (   -1034.059 eV)
    33      33      2.000      -7.452 au  Pa            1.00      4 P:y             1
                        (    -202.774 eV)
    34      34      2.000      -0.880 au  Pa            1.00      5 P:y             1
                        (     -23.949 eV)
    35      35       --        -0.008 au  Pa            1.00      6 P:y             1
                        (      -0.215 eV)
    36      36       --         0.404 au  Pa            1.00      7 P:y             1
                        (      10.994 eV)
    37      37       --         1.850 au  Pa            1.00      8 P:y             1
                        (      50.342 eV)
    38      38       --         7.570 au  Pa            1.00      9 P:y             1
                        (     205.994 eV)
    39      39       --        35.931 au  Pa            1.00     10 P:y             1
                        (     977.731 eV)
    40      40       --       178.469 au  Pa            1.00     11 P:y             1
                        (    4856.387 eV)
    41      41       --      1509.400 au  Pa            1.00     12 P:y             1
                        (   41072.871 eV)
    42      42       --     10783.504 au  Pa            1.00     13 P:y             1
                        (  293434.081 eV)
    43      43      2.000    -644.804 au  Pa            1.00      1 P:z             1
                        (  -17546.004 eV)
    44      44      2.000    -159.382 au  Pa            1.00      2 P:z             1
                        (   -4336.995 eV)
    45      45      2.000     -38.001 au  Pa            1.00      3 P:z             1
                        (   -1034.059 eV)
    46      46      2.000      -7.452 au  Pa            1.00      4 P:z             1
                        (    -202.774 eV)
    47      47      2.000      -0.880 au  Pa            1.00      5 P:z             1
                        (     -23.949 eV)
    48      48       --        -0.008 au  Pa            1.00      6 P:z             1
                        (      -0.215 eV)
    49      49       --         0.404 au  Pa            1.00      7 P:z             1
                        (      10.994 eV)
    50      50       --         1.850 au  Pa            1.00      8 P:z             1
                        (      50.342 eV)
    51      51       --         7.570 au  Pa            1.00      9 P:z             1
                        (     205.994 eV)
    52      52       --        35.931 au  Pa            1.00     10 P:z             1
                        (     977.731 eV)
    53      53       --       178.469 au  Pa            1.00     11 P:z             1
                        (    4856.387 eV)
    54      54       --      1509.400 au  Pa            1.00     12 P:z             1
                        (   41072.871 eV)
    55      55       --     10783.504 au  Pa            1.00     13 P:z             1
                        (  293434.081 eV)
    56      56      2.000    -127.750 au  Pa            1.00      1 D:z2            1
                        (   -3476.261 eV)
    57      57      2.000     -25.974 au  Pa            1.00      2 D:z2            1
                        (    -706.779 eV)
    58      58      2.000      -3.548 au  Pa            1.00      3 D:z2            1
                        (     -96.540 eV)
    59      59      0.200      -0.066 au  Pa            1.00      4 D:z2            1
                        (      -1.808 eV)
    60      60       --         0.084 au  Pa            1.00      5 D:z2            1
                        (       2.281 eV)
    61      61       --         0.569 au  Pa            1.00      6 D:z2            1
                        (      15.477 eV)
    62      62       --         3.594 au  Pa            1.00      7 D:z2            1
                        (      97.805 eV)
    63      63       --        24.986 au  Pa            1.00      8 D:z2            1
                        (     679.903 eV)
    64      64       --       204.782 au  Pa            1.00      9 D:z2            1
                        (    5572.393 eV)
    65      65      2.000    -127.750 au  Pa            1.00      1 D:x2-y2         1
                        (   -3476.261 eV)
    66      66      2.000     -25.974 au  Pa            1.00      2 D:x2-y2         1
                        (    -706.779 eV)
    67      67      2.000      -3.548 au  Pa            1.00      3 D:x2-y2         1
                        (     -96.540 eV)
    68      68      0.200      -0.066 au  Pa            1.00      4 D:x2-y2         1
                        (      -1.808 eV)
    69      69       --         0.084 au  Pa            1.00      5 D:x2-y2         1
                        (       2.281 eV)
    70      70       --         0.569 au  Pa            1.00      6 D:x2-y2         1
                        (      15.477 eV)
    71      71       --         3.594 au  Pa            1.00      7 D:x2-y2         1
                        (      97.805 eV)
    72      72       --        24.986 au  Pa            1.00      8 D:x2-y2         1
                        (     679.903 eV)
    73      73       --       204.782 au  Pa            1.00      9 D:x2-y2         1
                        (    5572.393 eV)
    74      74      2.000    -127.750 au  Pa            1.00      1 D:xy            1
                        (   -3476.261 eV)
    75      75      2.000     -25.974 au  Pa            1.00      2 D:xy            1
                        (    -706.779 eV)
    76      76      2.000      -3.548 au  Pa            1.00      3 D:xy            1
                        (     -96.540 eV)
    77      77      0.200      -0.066 au  Pa            1.00      4 D:xy            1
                        (      -1.808 eV)
    78      78       --         0.084 au  Pa            1.00      5 D:xy            1
                        (       2.281 eV)
    79      79       --         0.569 au  Pa            1.00      6 D:xy            1
                        (      15.477 eV)
    80      80       --         3.594 au  Pa            1.00      7 D:xy            1
                        (      97.805 eV)
    81      81       --        24.986 au  Pa            1.00      8 D:xy            1
                        (     679.903 eV)
    82      82       --       204.782 au  Pa            1.00      9 D:xy            1
                        (    5572.393 eV)
    83      83      2.000    -127.750 au  Pa            1.00      1 D:xz            1
                        (   -3476.261 eV)
    84      84      2.000     -25.974 au  Pa            1.00      2 D:xz            1
                        (    -706.779 eV)
    85      85      2.000      -3.548 au  Pa            1.00      3 D:xz            1
                        (     -96.540 eV)
    86      86      0.200      -0.066 au  Pa            1.00      4 D:xz            1
                        (      -1.808 eV)
    87      87       --         0.084 au  Pa            1.00      5 D:xz            1
                        (       2.281 eV)
    88      88       --         0.569 au  Pa            1.00      6 D:xz            1
                        (      15.477 eV)
    89      89       --         3.594 au  Pa            1.00      7 D:xz            1
                        (      97.805 eV)
    90      90       --        24.986 au  Pa            1.00      8 D:xz            1
                        (     679.903 eV)
    91      91       --       204.782 au  Pa            1.00      9 D:xz            1
                        (    5572.393 eV)
    92      92      2.000    -127.750 au  Pa            1.00      1 D:yz            1
                        (   -3476.261 eV)
    93      93      2.000     -25.974 au  Pa            1.00      2 D:yz            1
                        (    -706.779 eV)
    94      94      2.000      -3.548 au  Pa            1.00      3 D:yz            1
                        (     -96.540 eV)
    95      95      0.200      -0.066 au  Pa            1.00      4 D:yz            1
                        (      -1.808 eV)
    96      96       --         0.084 au  Pa            1.00      5 D:yz            1
                        (       2.281 eV)
    97      97       --         0.569 au  Pa            1.00      6 D:yz            1
                        (      15.477 eV)
    98      98       --         3.594 au  Pa            1.00      7 D:yz            1
                        (      97.805 eV)
    99      99       --        24.986 au  Pa            1.00      8 D:yz            1
                        (     679.903 eV)
   100     100       --       204.782 au  Pa            1.00      9 D:yz            1
                        (    5572.393 eV)
   101     101      2.000     -13.085 au  Pa            1.00      1 F:z3            1
                        (    -356.050 eV)
   102     102      0.286      -0.042 au  Pa            1.00      2 F:z3            1
                        (      -1.139 eV)
   103     103       --         0.419 au  Pa            1.00      3 F:z3            1
                        (      11.400 eV)
   104     104       --         2.553 au  Pa            1.00      4 F:z3            1
                        (      69.470 eV)
   105     105       --        21.603 au  Pa            1.00      5 F:z3            1
                        (     587.835 eV)
   106     106      2.000     -13.085 au  Pa            1.00      1 F:z             1
                        (    -356.050 eV)
   107     107      0.286      -0.042 au  Pa            1.00      2 F:z             1
                        (      -1.139 eV)
   108     108       --         0.419 au  Pa            1.00      3 F:z             1
                        (      11.400 eV)
   109     109       --         2.553 au  Pa            1.00      4 F:z             1
                        (      69.470 eV)
   110     110       --        21.603 au  Pa            1.00      5 F:z             1
                        (     587.835 eV)
   111     111      2.000     -13.085 au  Pa            1.00      1 F:xyz           1
                        (    -356.050 eV)
   112     112      0.286      -0.042 au  Pa            1.00      2 F:xyz           1
                        (      -1.139 eV)
   113     113       --         0.419 au  Pa            1.00      3 F:xyz           1
                        (      11.400 eV)
   114     114       --         2.553 au  Pa            1.00      4 F:xyz           1
                        (      69.470 eV)
   115     115       --        21.603 au  Pa            1.00      5 F:xyz           1
                        (     587.835 eV)
   116     116      2.000     -13.085 au  Pa            1.00      1 F:z2x           1
                        (    -356.050 eV)
   117     117      0.286      -0.042 au  Pa            1.00      2 F:z2x           1
                        (      -1.139 eV)
   118     118       --         0.419 au  Pa            1.00      3 F:z2x           1
                        (      11.400 eV)
   119     119       --         2.553 au  Pa            1.00      4 F:z2x           1
                        (      69.470 eV)
   120     120       --        21.603 au  Pa            1.00      5 F:z2x           1
                        (     587.835 eV)
   121     121      2.000     -13.085 au  Pa            1.00      1 F:z2y           1
                        (    -356.050 eV)
   122     122      0.286      -0.042 au  Pa            1.00      2 F:z2y           1
                        (      -1.139 eV)
   123     123       --         0.419 au  Pa            1.00      3 F:z2y           1
                        (      11.400 eV)
   124     124       --         2.553 au  Pa            1.00      4 F:z2y           1
                        (      69.470 eV)
   125     125       --        21.603 au  Pa            1.00      5 F:z2y           1
                        (     587.835 eV)
   126     126      2.000     -13.085 au  Pa            1.00      1 F:x             1
                        (    -356.050 eV)
   127     127      0.286      -0.042 au  Pa            1.00      2 F:x             1
                        (      -1.139 eV)
   128     128       --         0.419 au  Pa            1.00      3 F:x             1
                        (      11.400 eV)
   129     129       --         2.553 au  Pa            1.00      4 F:x             1
                        (      69.470 eV)
   130     130       --        21.603 au  Pa            1.00      5 F:x             1
                        (     587.835 eV)
   131     131      2.000     -13.085 au  Pa            1.00      1 F:y             1
                        (    -356.050 eV)
   132     132      0.286      -0.042 au  Pa            1.00      2 F:y             1
                        (      -1.139 eV)
   133     133       --         0.419 au  Pa            1.00      3 F:y             1
                        (      11.400 eV)
   134     134       --         2.553 au  Pa            1.00      4 F:y             1
                        (      69.470 eV)
   135     135       --        21.603 au  Pa            1.00      5 F:y             1
                        (     587.835 eV)
   136     136      2.000    -101.931 au  Cl            1.00      1 S               2
                        (   -2773.692 eV)
   137     137      2.000      -9.568 au  Cl            1.00      2 S               2
                        (    -260.360 eV)
   138     138      2.000      -0.832 au  Cl            1.00      3 S               2
                        (     -22.635 eV)
   139     139       --         0.222 au  Cl            1.00      4 S               2
                        (       6.028 eV)
   140     140       --         2.061 au  Cl            1.00      5 S               2
                        (      56.081 eV)
   141     141       --        12.798 au  Cl            1.00      6 S               2
                        (     348.243 eV)
   142     142       --       206.209 au  Cl            1.00      7 S               2
                        (    5611.244 eV)
   143     143      2.000      -7.260 au  Cl            1.00      1 P:x             2
                        (    -197.562 eV)
   144     144      1.667      -0.345 au  Cl            1.00      2 P:x             2
                        (      -9.384 eV)
   145     145       --         0.251 au  Cl            1.00      3 P:x             2
                        (       6.840 eV)
   146     146       --         2.177 au  Cl            1.00      4 P:x             2
                        (      59.250 eV)
   147     147       --        18.923 au  Cl            1.00      5 P:x             2
                        (     514.910 eV)
   148     148      2.000      -7.260 au  Cl            1.00      1 P:y             2
                        (    -197.562 eV)
   149     149      1.667      -0.345 au  Cl            1.00      2 P:y             2
                        (      -9.384 eV)
   150     150       --         0.251 au  Cl            1.00      3 P:y             2
                        (       6.840 eV)
   151     151       --         2.177 au  Cl            1.00      4 P:y             2
                        (      59.250 eV)
   152     152       --        18.923 au  Cl            1.00      5 P:y             2
                        (     514.910 eV)
   153     153      2.000      -7.260 au  Cl            1.00      1 P:z             2
                        (    -197.562 eV)
   154     154      1.667      -0.345 au  Cl            1.00      2 P:z             2
                        (      -9.384 eV)
   155     155       --         0.251 au  Cl            1.00      3 P:z             2
                        (       6.840 eV)
   156     156       --         2.177 au  Cl            1.00      4 P:z             2
                        (      59.250 eV)
   157     157       --        18.923 au  Cl            1.00      5 P:z             2
                        (     514.910 eV)
   158     158       --         0.435 au  Cl            1.00      1 D:z2            2
                        (      11.834 eV)
   159     159       --         0.435 au  Cl            1.00      1 D:x2-y2         2
                        (      11.834 eV)
   160     160       --         0.435 au  Cl            1.00      1 D:xy            2
                        (      11.834 eV)
   161     161       --         0.435 au  Cl            1.00      1 D:xz            2
                        (      11.834 eV)
   162     162       --         0.435 au  Cl            1.00      1 D:yz            2
                        (      11.834 eV)
   163     163       --         1.241 au  Cl            1.00      1 F:z3            2
                        (      33.783 eV)
   164     164       --         1.241 au  Cl            1.00      1 F:z             2
                        (      33.783 eV)
   165     165       --         1.241 au  Cl            1.00      1 F:xyz           2
                        (      33.783 eV)
   166     166       --         1.241 au  Cl            1.00      1 F:z2x           2
                        (      33.783 eV)
   167     167       --         1.241 au  Cl            1.00      1 F:z2y           2
                        (      33.783 eV)
   168     168       --         1.241 au  Cl            1.00      1 F:x             2
                        (      33.783 eV)
   169     169       --         1.241 au  Cl            1.00      1 F:y             2
                        (      33.783 eV)
   170     170      1.000      -0.244 au  H             1.00      1 S               3
                        (      -6.641 eV)
   171     171       --         0.104 au  H             1.00      2 S               3
                        (       2.836 eV)
   172     172       --         1.564 au  H             1.00      3 S               3
                        (      42.560 eV)
   173     173       --         0.436 au  H             1.00      1 P:x             3
                        (      11.864 eV)
   174     174       --         0.436 au  H             1.00      1 P:y             3
                        (      11.864 eV)
   175     175       --         0.436 au  H             1.00      1 P:z             3
                        (      11.864 eV)
   176     176       --         2.617 au  H             1.00      1 D:z2            3
                        (      71.221 eV)
   177     177       --         2.617 au  H             1.00      1 D:x2-y2         3
                        (      71.221 eV)
   178     178       --         2.617 au  H             1.00      1 D:xy            3
                        (      71.221 eV)
   179     179       --         2.617 au  H             1.00      1 D:xz            3
                        (      71.221 eV)
   180     180       --         2.617 au  H             1.00      1 D:yz            3
                        (      71.221 eV)
   181     181      1.000      -0.244 au  H             1.00      1 S               4
                        (      -6.641 eV)
   182     182       --         0.104 au  H             1.00      2 S               4
                        (       2.836 eV)
   183     183       --         1.564 au  H             1.00      3 S               4
                        (      42.560 eV)
   184     184       --         0.436 au  H             1.00      1 P:x             4
                        (      11.864 eV)
   185     185       --         0.436 au  H             1.00      1 P:y             4
                        (      11.864 eV)
   186     186       --         0.436 au  H             1.00      1 P:z             4
                        (      11.864 eV)
   187     187       --         2.617 au  H             1.00      1 D:z2            4
                        (      71.221 eV)
   188     188       --         2.617 au  H             1.00      1 D:x2-y2         4
                        (      71.221 eV)
   189     189       --         2.617 au  H             1.00      1 D:xy            4
                        (      71.221 eV)
   190     190       --         2.617 au  H             1.00      1 D:xz            4
                        (      71.221 eV)
   191     191       --         2.617 au  H             1.00      1 D:yz            4
                        (      71.221 eV)
   192     192      1.000      -0.244 au  H             1.00      1 S               5
                        (      -6.641 eV)
   193     193       --         0.104 au  H             1.00      2 S               5
                        (       2.836 eV)
   194     194       --         1.564 au  H             1.00      3 S               5
                        (      42.560 eV)
   195     195       --         0.436 au  H             1.00      1 P:x             5
                        (      11.864 eV)
   196     196       --         0.436 au  H             1.00      1 P:y             5
                        (      11.864 eV)
   197     197       --         0.436 au  H             1.00      1 P:z             5
                        (      11.864 eV)
   198     198       --         2.617 au  H             1.00      1 D:z2            5
                        (      71.221 eV)
   199     199       --         2.617 au  H             1.00      1 D:x2-y2         5
                        (      71.221 eV)
   200     200       --         2.617 au  H             1.00      1 D:xy            5
                        (      71.221 eV)
   201     201       --         2.617 au  H             1.00      1 D:xz            5
                        (      71.221 eV)
   202     202       --         2.617 au  H             1.00      1 D:yz            5
                        (      71.221 eV)
   203     203      1.000      -0.244 au  H             1.00      1 S               6
                        (      -6.641 eV)
   204     204       --         0.104 au  H             1.00      2 S               6
                        (       2.836 eV)
   205     205       --         1.564 au  H             1.00      3 S               6
                        (      42.560 eV)
   206     206       --         0.436 au  H             1.00      1 P:x             6
                        (      11.864 eV)
   207     207       --         0.436 au  H             1.00      1 P:y             6
                        (      11.864 eV)
   208     208       --         0.436 au  H             1.00      1 P:z             6
                        (      11.864 eV)
   209     209       --         2.617 au  H             1.00      1 D:z2            6
                        (      71.221 eV)
   210     210       --         2.617 au  H             1.00      1 D:x2-y2         6
                        (      71.221 eV)
   211     211       --         2.617 au  H             1.00      1 D:xy            6
                        (      71.221 eV)
   212     212       --         2.617 au  H             1.00      1 D:xz            6
                        (      71.221 eV)
   213     213       --         2.617 au  H             1.00      1 D:yz            6
                        (      71.221 eV)
   214     214      2.000     -19.315 au  O             1.00      1 S               7
                        (    -525.599 eV)
   215     215      2.000      -0.972 au  O             1.00      2 S               7
                        (     -26.457 eV)
   216     216       --         0.838 au  O             1.00      3 S               7
                        (      22.795 eV)
   217     217       --        13.598 au  O             1.00      4 S               7
                        (     370.019 eV)
   218     218       --       122.184 au  O             1.00      5 S               7
                        (    3324.790 eV)
   219     219      1.333      -0.361 au  O             1.00      1 P:x             7
                        (      -9.818 eV)
   220     220       --         0.380 au  O             1.00      2 P:x             7
                        (      10.337 eV)
   221     221       --         3.931 au  O             1.00      3 P:x             7
                        (     106.958 eV)
   222     222      1.333      -0.361 au  O             1.00      1 P:y             7
                        (      -9.818 eV)
   223     223       --         0.380 au  O             1.00      2 P:y             7
                        (      10.337 eV)
   224     224       --         3.931 au  O             1.00      3 P:y             7
                        (     106.958 eV)
   225     225      1.333      -0.361 au  O             1.00      1 P:z             7
                        (      -9.818 eV)
   226     226       --         0.380 au  O             1.00      2 P:z             7
                        (      10.337 eV)
   227     227       --         3.931 au  O             1.00      3 P:z             7
                        (     106.958 eV)
   228     228       --         1.117 au  O             1.00      1 D:z2            7
                        (      30.399 eV)
   229     229       --         1.117 au  O             1.00      1 D:x2-y2         7
                        (      30.399 eV)
   230     230       --         1.117 au  O             1.00      1 D:xy            7
                        (      30.399 eV)
   231     231       --         1.117 au  O             1.00      1 D:xz            7
                        (      30.399 eV)
   232     232       --         1.117 au  O             1.00      1 D:yz            7
                        (      30.399 eV)
   233     233       --         3.432 au  O             1.00      1 F:z3            7
                        (      93.382 eV)
   234     234       --         3.432 au  O             1.00      1 F:z             7
                        (      93.382 eV)
   235     235       --         3.432 au  O             1.00      1 F:xyz           7
                        (      93.382 eV)
   236     236       --         3.432 au  O             1.00      1 F:z2x           7
                        (      93.382 eV)
   237     237       --         3.432 au  O             1.00      1 F:z2y           7
                        (      93.382 eV)
   238     238       --         3.432 au  O             1.00      1 F:x             7
                        (      93.382 eV)
   239     239       --         3.432 au  O             1.00      1 F:y             7
                        (      93.382 eV)
   240     240      2.000     -19.315 au  O             1.00      1 S               8
                        (    -525.599 eV)
   241     241      2.000      -0.972 au  O             1.00      2 S               8
                        (     -26.457 eV)
   242     242       --         0.838 au  O             1.00      3 S               8
                        (      22.795 eV)
   243     243       --        13.598 au  O             1.00      4 S               8
                        (     370.019 eV)
   244     244       --       122.184 au  O             1.00      5 S               8
                        (    3324.790 eV)
   245     245      1.333      -0.361 au  O             1.00      1 P:x             8
                        (      -9.818 eV)
   246     246       --         0.380 au  O             1.00      2 P:x             8
                        (      10.337 eV)
   247     247       --         3.931 au  O             1.00      3 P:x             8
                        (     106.958 eV)
   248     248      1.333      -0.361 au  O             1.00      1 P:y             8
                        (      -9.818 eV)
   249     249       --         0.380 au  O             1.00      2 P:y             8
                        (      10.337 eV)
   250     250       --         3.931 au  O             1.00      3 P:y             8
                        (     106.958 eV)
   251     251      1.333      -0.361 au  O             1.00      1 P:z             8
                        (      -9.818 eV)
   252     252       --         0.380 au  O             1.00      2 P:z             8
                        (      10.337 eV)
   253     253       --         3.931 au  O             1.00      3 P:z             8
                        (     106.958 eV)
   254     254       --         1.117 au  O             1.00      1 D:z2            8
                        (      30.399 eV)
   255     255       --         1.117 au  O             1.00      1 D:x2-y2         8
                        (      30.399 eV)
   256     256       --         1.117 au  O             1.00      1 D:xy            8
                        (      30.399 eV)
   257     257       --         1.117 au  O             1.00      1 D:xz            8
                        (      30.399 eV)
   258     258       --         1.117 au  O             1.00      1 D:yz            8
                        (      30.399 eV)
   259     259       --         3.432 au  O             1.00      1 F:z3            8
                        (      93.382 eV)
   260     260       --         3.432 au  O             1.00      1 F:z             8
                        (      93.382 eV)
   261     261       --         3.432 au  O             1.00      1 F:xyz           8
                        (      93.382 eV)
   262     262       --         3.432 au  O             1.00      1 F:z2x           8
                        (      93.382 eV)
   263     263       --         3.432 au  O             1.00      1 F:z2y           8
                        (      93.382 eV)
   264     264       --         3.432 au  O             1.00      1 F:x             8
                        (      93.382 eV)
   265     265       --         3.432 au  O             1.00      1 F:y             8
                        (      93.382 eV)
   266     266      2.000     -19.315 au  O             1.00      1 S               9
                        (    -525.599 eV)
   267     267      2.000      -0.972 au  O             1.00      2 S               9
                        (     -26.457 eV)
   268     268       --         0.838 au  O             1.00      3 S               9
                        (      22.795 eV)
   269     269       --        13.598 au  O             1.00      4 S               9
                        (     370.019 eV)
   270     270       --       122.184 au  O             1.00      5 S               9
                        (    3324.790 eV)
   271     271      1.333      -0.361 au  O             1.00      1 P:x             9
                        (      -9.818 eV)
   272     272       --         0.380 au  O             1.00      2 P:x             9
                        (      10.337 eV)
   273     273       --         3.931 au  O             1.00      3 P:x             9
                        (     106.958 eV)
   274     274      1.333      -0.361 au  O             1.00      1 P:y             9
                        (      -9.818 eV)
   275     275       --         0.380 au  O             1.00      2 P:y             9
                        (      10.337 eV)
   276     276       --         3.931 au  O             1.00      3 P:y             9
                        (     106.958 eV)
   277     277      1.333      -0.361 au  O             1.00      1 P:z             9
                        (      -9.818 eV)
   278     278       --         0.380 au  O             1.00      2 P:z             9
                        (      10.337 eV)
   279     279       --         3.931 au  O             1.00      3 P:z             9
                        (     106.958 eV)
   280     280       --         1.117 au  O             1.00      1 D:z2            9
                        (      30.399 eV)
   281     281       --         1.117 au  O             1.00      1 D:x2-y2         9
                        (      30.399 eV)
   282     282       --         1.117 au  O             1.00      1 D:xy            9
                        (      30.399 eV)
   283     283       --         1.117 au  O             1.00      1 D:xz            9
                        (      30.399 eV)
   284     284       --         1.117 au  O             1.00      1 D:yz            9
                        (      30.399 eV)
   285     285       --         3.432 au  O             1.00      1 F:z3            9
                        (      93.382 eV)
   286     286       --         3.432 au  O             1.00      1 F:z             9
                        (      93.382 eV)
   287     287       --         3.432 au  O             1.00      1 F:xyz           9
                        (      93.382 eV)
   288     288       --         3.432 au  O             1.00      1 F:z2x           9
                        (      93.382 eV)
   289     289       --         3.432 au  O             1.00      1 F:z2y           9
                        (      93.382 eV)
   290     290       --         3.432 au  O             1.00      1 F:x             9
                        (      93.382 eV)
   291     291       --         3.432 au  O             1.00      1 F:y             9
                        (      93.382 eV)
   292     292      2.000     -19.315 au  O             1.00      1 S              10
                        (    -525.599 eV)
   293     293      2.000      -0.972 au  O             1.00      2 S              10
                        (     -26.457 eV)
   294     294       --         0.838 au  O             1.00      3 S              10
                        (      22.795 eV)
   295     295       --        13.598 au  O             1.00      4 S              10
                        (     370.019 eV)
   296     296       --       122.184 au  O             1.00      5 S              10
                        (    3324.790 eV)
   297     297      1.333      -0.361 au  O             1.00      1 P:x            10
                        (      -9.818 eV)
   298     298       --         0.380 au  O             1.00      2 P:x            10
                        (      10.337 eV)
   299     299       --         3.931 au  O             1.00      3 P:x            10
                        (     106.958 eV)
   300     300      1.333      -0.361 au  O             1.00      1 P:y            10
                        (      -9.818 eV)
   301     301       --         0.380 au  O             1.00      2 P:y            10
                        (      10.337 eV)
   302     302       --         3.931 au  O             1.00      3 P:y            10
                        (     106.958 eV)
   303     303      1.333      -0.361 au  O             1.00      1 P:z            10
                        (      -9.818 eV)
   304     304       --         0.380 au  O             1.00      2 P:z            10
                        (      10.337 eV)
   305     305       --         3.931 au  O             1.00      3 P:z            10
                        (     106.958 eV)
   306     306       --         1.117 au  O             1.00      1 D:z2           10
                        (      30.399 eV)
   307     307       --         1.117 au  O             1.00      1 D:x2-y2        10
                        (      30.399 eV)
   308     308       --         1.117 au  O             1.00      1 D:xy           10
                        (      30.399 eV)
   309     309       --         1.117 au  O             1.00      1 D:xz           10
                        (      30.399 eV)
   310     310       --         1.117 au  O             1.00      1 D:yz           10
                        (      30.399 eV)
   311     311       --         3.432 au  O             1.00      1 F:z3           10
                        (      93.382 eV)
   312     312       --         3.432 au  O             1.00      1 F:z            10
                        (      93.382 eV)
   313     313       --         3.432 au  O             1.00      1 F:xyz          10
                        (      93.382 eV)
   314     314       --         3.432 au  O             1.00      1 F:z2x          10
                        (      93.382 eV)
   315     315       --         3.432 au  O             1.00      1 F:z2y          10
                        (      93.382 eV)
   316     316       --         3.432 au  O             1.00      1 F:x            10
                        (      93.382 eV)
   317     317       --         3.432 au  O             1.00      1 F:y            10
                        (      93.382 eV)



 ================================
 (Slater-type)  F U N C T I O N S  ***  (Basis and Fit)  ***
 ================================
  

 Atom Type    1  (Pa)
 ==============

 Valence Basis Sets:  43
 -----------------------
   1 S 1028.000000
   1 S  240.000000
   1 S  107.000000
   2 S  131.500000
   2 S   46.500000
   3 S   59.100000
   3 S   25.450000
   4 S   15.550000
   4 S   11.050000
   5 S   10.200000
   5 S    7.100000
   6 S    4.950000
   6 S    3.250000
   7 S    2.350000
   7 S    1.550000
   7 S    1.020000
   2 P  240.000000
   2 P   84.000000
   2 P   43.600000
   3 P   24.750000
   3 P   17.850000
   4 P   17.650000
   4 P   12.100000
   5 P    8.500000
   5 P    5.900000
   6 P    4.400000
   6 P    3.000000
   6 P    2.100000
   3 D   33.750000
   3 D   21.750000
   4 D   15.300000
   4 D   10.450000
   5 D    7.150000
   5 D    4.600000
   6 D    3.000000
   6 D    1.700000
   6 D    0.980000
   4 F   17.100000
   4 F    9.350000
   5 F    5.850000
   5 F    3.150000
   5 F    1.550000
   7 P    1.550000

 Charge Fitting Sets (for the computation of the Coulomb Potential):  87
 -----------------------------------------------------------------------
   1 S 2056.000000
   1 S 1549.519000
   1 S 1167.806000
   1 S  880.126000
   1 S  663.313000
   1 S  499.911000
   1 S  376.761000
   1 S  283.949000
   1 S  214.000000
   1 S  127.280000
   2 S  140.220000
   2 S   93.850000
   3 S   92.230000
   3 S   65.710000
   4 S   61.900000
   4 S   45.910000
   5 S   42.420000
   5 S   32.370000
   6 S   29.610000
   6 S   23.090000
   7 S   21.000000
   7 S   16.670000
   8 S   15.120000
   8 S   12.170000
   9 S   11.020000
   9 S    8.970000
  10 S    8.120000
  10 S    6.680000
  11 S    6.050000
  11 S    5.020000
  12 S    4.550000
  12 S    3.800000
  12 S    3.180000
  13 S    2.880000
  13 S    2.420000
  13 S    2.040000
   2 P  150.600000
   3 P  125.870000
   4 P  103.260000
   5 P   84.350000
   6 P   68.960000
   7 P   56.560000
   7 P   40.600000
   8 P   33.430000
   8 P   24.490000
   9 P   20.250000
   9 P   15.090000
  10 P   12.530000
  10 P    9.470000
  11 P    7.900000
  11 P    6.040000
  12 P    5.060000
  12 P    3.910000
  13 P    3.290000
  13 P    2.570000
   3 D  128.750000
   4 D   91.090000
   5 D   65.210000
   6 D   47.270000
   7 D   34.690000
   8 D   25.740000
   9 D   19.290000
   9 D   13.060000
  10 D    9.880000
  10 D    6.820000
  11 D    5.210000
  11 D    3.650000
  12 D    2.810000
  12 D    2.000000
   4 F  116.350000
   5 F   72.360000
   6 F   46.140000
   7 F   30.070000
   8 F   19.970000
   9 F   13.480000
  10 F    9.240000
  10 F    5.790000
  11 F    4.020000
  11 F    2.570000
   5 G   52.950000
   6 G   31.380000
   7 G   19.110000
   8 G   11.920000
   9 G    7.580000
  10 G    4.910000
  11 G    3.230000
  11 G    1.960000

 Atom Type    2  (Cl)
 ==============

 Valence Basis Sets:  14
 -----------------------
   1 S   20.300000
   1 S   15.250000
   2 S    6.250000
   2 S    4.450000
   2 P    8.850000
   2 P    5.050000
   3 S    3.450000
   3 S    2.300000
   3 S    1.600000
   3 P    3.350000
   3 P    2.050000
   3 P    1.200000
   3 D    2.000000
   4 F    2.000000

 Charge Fitting Sets (for the computation of the Coulomb Potential):  30
 -----------------------------------------------------------------------
   1 S   40.600000
   1 S   24.830000
   2 S   28.080000
   2 S   19.200000
   3 S   19.250000
   3 S   13.970000
   3 S   10.130000
   4 S    9.710000
   4 S    7.320000
   4 S    5.510000
   5 S    5.170000
   5 S    4.000000
   5 S    3.100000
   5 S    2.400000
   2 P   29.150000
   3 P   21.740000
   4 P   16.160000
   4 P    9.600000
   5 P    7.180000
   5 P    4.480000
   5 P    2.800000
   3 D   21.950000
   4 D   15.750000
   4 D    9.040000
   5 D    6.550000
   5 D    3.960000
   5 D    2.400000
   4 F    5.000000
   4 F    3.000000
   5 G    3.500000

 Atom Type    3  (H)
 ==============

 Valence Basis Sets:   5
 -----------------------
   1 S    0.690000
   1 S    0.920000
   1 S    1.580000
   2 P    1.250000
   3 D    2.500000

 Charge Fitting Sets (for the computation of the Coulomb Potential):  11
 -----------------------------------------------------------------------
   1 S    3.160000
   1 S    2.090000
   1 S    1.380000
   2 S    1.500000
   2 P    4.000000
   2 P    2.650000
   2 P    1.750000
   3 D    4.000000
   3 D    2.500000
   4 F    3.000000
   5 G    4.000000

 Atom Type    4  (O)
 ==============

 Valence Basis Sets:  10
 -----------------------
   1 S    9.800000
   1 S    6.800000
   2 S    7.580000
   2 S    2.880000
   2 S    1.720000
   2 P    4.080000
   2 P    2.080000
   2 P    1.120000
   3 D    2.000000
   4 F    3.000000

 Charge Fitting Sets (for the computation of the Coulomb Potential):  22
 -----------------------------------------------------------------------
   1 S   19.600000
   2 S   22.600000
   2 S   15.680000
   2 S   10.890000
   2 S    7.560000
   3 S    7.690000
   3 S    5.650000
   3 S    4.150000
   3 S    3.050000
   3 S    2.240000
   2 P   12.860000
   2 P    7.680000
   3 P    6.780000
   3 P    4.390000
   3 P    2.840000
   3 D    8.800000
   3 D    5.580000
   3 D    3.530000
   3 D    2.240000
   4 F    6.200000
   4 F    3.700000
   5 G    4.500000


 BAS: List of all Elementary Cartesian Basis Functions
 =====================================================

 The numbering in the list below (to the right of the function characteristics) is referred
 to in print-outs of MO eigenvectors and Mulliken populations in the BAS representation
 (as contrasted to the SFO representation).

 Notes:
 1. The functions are characterized by a polynomial prefactor (powers of x,y,z and r) and
    an exponential decay factor alpha.
 2. Since the basis sets are specific for an atom TYPE, the individual functions occur on
    all atoms of that type.
 3. The word 'Core' in the left margin signals that it is a Core Function (CF) : not a
    degree of freedom in the valence set, but only used to ensure orthogonalization of
    the other valence basis functions on the frozen Core Orbitals.


 (power of) X  Y  Z  R     Alpha  on Atom
            ==========     =====     ==========

 Pa                                   1
                                  ---------------------------------------------------------------------------
            0  0  0  0  1028.000      1
            0  0  0  0   240.000      2
            0  0  0  0   107.000      3
            0  0  0  1   131.500      4
            0  0  0  1    46.500      5
            0  0  0  2    59.100      6
            0  0  0  2    25.450      7
            0  0  0  3    15.550      8
            0  0  0  3    11.050      9
            0  0  0  4    10.200     10
            0  0  0  4     7.100     11
            0  0  0  5     4.950     12
            0  0  0  5     3.250     13
            0  0  0  6     2.350     14
            0  0  0  6     1.550     15
            0  0  0  6     1.020     16
            1  0  0  0   240.000     17
            0  1  0  0   240.000     18
            0  0  1  0   240.000     19
            1  0  0  0    84.000     20
            0  1  0  0    84.000     21
            0  0  1  0    84.000     22
            1  0  0  0    43.600     23
            0  1  0  0    43.600     24
            0  0  1  0    43.600     25
            1  0  0  1    24.750     26
            0  1  0  1    24.750     27
            0  0  1  1    24.750     28
            1  0  0  1    17.850     29
            0  1  0  1    17.850     30
            0  0  1  1    17.850     31
            1  0  0  2    17.650     32
            0  1  0  2    17.650     33
            0  0  1  2    17.650     34
            1  0  0  2    12.100     35
            0  1  0  2    12.100     36
            0  0  1  2    12.100     37
            1  0  0  3     8.500     38
            0  1  0  3     8.500     39
            0  0  1  3     8.500     40
            1  0  0  3     5.900     41
            0  1  0  3     5.900     42
            0  0  1  3     5.900     43
            1  0  0  4     4.400     44
            0  1  0  4     4.400     45
            0  0  1  4     4.400     46
            1  0  0  4     3.000     47
            0  1  0  4     3.000     48
            0  0  1  4     3.000     49
            1  0  0  4     2.100     50
            0  1  0  4     2.100     51
            0  0  1  4     2.100     52
            2  0  0  0    33.750     53
            1  1  0  0    33.750     54
            1  0  1  0    33.750     55
            0  2  0  0    33.750     56
            0  1  1  0    33.750     57
            0  0  2  0    33.750     58
            2  0  0  0    21.750     59
            1  1  0  0    21.750     60
            1  0  1  0    21.750     61
            0  2  0  0    21.750     62
            0  1  1  0    21.750     63
            0  0  2  0    21.750     64
            2  0  0  1    15.300     65
            1  1  0  1    15.300     66
            1  0  1  1    15.300     67
            0  2  0  1    15.300     68
            0  1  1  1    15.300     69
            0  0  2  1    15.300     70
            2  0  0  1    10.450     71
            1  1  0  1    10.450     72
            1  0  1  1    10.450     73
            0  2  0  1    10.450     74
            0  1  1  1    10.450     75
            0  0  2  1    10.450     76
            2  0  0  2     7.150     77
            1  1  0  2     7.150     78
            1  0  1  2     7.150     79
            0  2  0  2     7.150     80
            0  1  1  2     7.150     81
            0  0  2  2     7.150     82
            2  0  0  2     4.600     83
            1  1  0  2     4.600     84
            1  0  1  2     4.600     85
            0  2  0  2     4.600     86
            0  1  1  2     4.600     87
            0  0  2  2     4.600     88
            2  0  0  3     3.000     89
            1  1  0  3     3.000     90
            1  0  1  3     3.000     91
            0  2  0  3     3.000     92
            0  1  1  3     3.000     93
            0  0  2  3     3.000     94
            2  0  0  3     1.700     95
            1  1  0  3     1.700     96
            1  0  1  3     1.700     97
            0  2  0  3     1.700     98
            0  1  1  3     1.700     99
            0  0  2  3     1.700    100
            2  0  0  3     0.980    101
            1  1  0  3     0.980    102
            1  0  1  3     0.980    103
            0  2  0  3     0.980    104
            0  1  1  3     0.980    105
            0  0  2  3     0.980    106
            3  0  0  0    17.100    107
            2  1  0  0    17.100    108
            2  0  1  0    17.100    109
            1  2  0  0    17.100    110
            1  1  1  0    17.100    111
            1  0  2  0    17.100    112
            0  3  0  0    17.100    113
            0  2  1  0    17.100    114
            0  1  2  0    17.100    115
            0  0  3  0    17.100    116
            3  0  0  0     9.350    117
            2  1  0  0     9.350    118
            2  0  1  0     9.350    119
            1  2  0  0     9.350    120
            1  1  1  0     9.350    121
            1  0  2  0     9.350    122
            0  3  0  0     9.350    123
            0  2  1  0     9.350    124
            0  1  2  0     9.350    125
            0  0  3  0     9.350    126
            3  0  0  1     5.850    127
            2  1  0  1     5.850    128
            2  0  1  1     5.850    129
            1  2  0  1     5.850    130
            1  1  1  1     5.850    131
            1  0  2  1     5.850    132
            0  3  0  1     5.850    133
            0  2  1  1     5.850    134
            0  1  2  1     5.850    135
            0  0  3  1     5.850    136
            3  0  0  1     3.150    137
            2  1  0  1     3.150    138
            2  0  1  1     3.150    139
            1  2  0  1     3.150    140
            1  1  1  1     3.150    141
            1  0  2  1     3.150    142
            0  3  0  1     3.150    143
            0  2  1  1     3.150    144
            0  1  2  1     3.150    145
            0  0  3  1     3.150    146
            3  0  0  1     1.550    147
            2  1  0  1     1.550    148
            2  0  1  1     1.550    149
            1  2  0  1     1.550    150
            1  1  1  1     1.550    151
            1  0  2  1     1.550    152
            0  3  0  1     1.550    153
            0  2  1  1     1.550    154
            0  1  2  1     1.550    155
            0  0  3  1     1.550    156
            1  0  0  5     1.550    157
            0  1  0  5     1.550    158
            0  0  1  5     1.550    159

 Cl                                   2
                                  ---------------------------------------------------------------------------
            0  0  0  0    20.300    160
            0  0  0  0    15.250    161
            0  0  0  1     6.250    162
            0  0  0  1     4.450    163
            1  0  0  0     8.850    164
            0  1  0  0     8.850    165
            0  0  1  0     8.850    166
            1  0  0  0     5.050    167
            0  1  0  0     5.050    168
            0  0  1  0     5.050    169
            0  0  0  2     3.450    170
            0  0  0  2     2.300    171
            0  0  0  2     1.600    172
            1  0  0  1     3.350    173
            0  1  0  1     3.350    174
            0  0  1  1     3.350    175
            1  0  0  1     2.050    176
            0  1  0  1     2.050    177
            0  0  1  1     2.050    178
            1  0  0  1     1.200    179
            0  1  0  1     1.200    180
            0  0  1  1     1.200    181
            2  0  0  0     2.000    182
            1  1  0  0     2.000    183
            1  0  1  0     2.000    184
            0  2  0  0     2.000    185
            0  1  1  0     2.000    186
            0  0  2  0     2.000    187
            3  0  0  0     2.000    188
            2  1  0  0     2.000    189
            2  0  1  0     2.000    190
            1  2  0  0     2.000    191
            1  1  1  0     2.000    192
            1  0  2  0     2.000    193
            0  3  0  0     2.000    194
            0  2  1  0     2.000    195
            0  1  2  0     2.000    196
            0  0  3  0     2.000    197

 H                                    3    4    5    6
                                  ---------------------------------------------------------------------------
            0  0  0  0     0.690    198  210  222  234
            0  0  0  0     0.920    199  211  223  235
            0  0  0  0     1.580    200  212  224  236
            1  0  0  0     1.250    201  213  225  237
            0  1  0  0     1.250    202  214  226  238
            0  0  1  0     1.250    203  215  227  239
            2  0  0  0     2.500    204  216  228  240
            1  1  0  0     2.500    205  217  229  241
            1  0  1  0     2.500    206  218  230  242
            0  2  0  0     2.500    207  219  231  243
            0  1  1  0     2.500    208  220  232  244
            0  0  2  0     2.500    209  221  233  245

 O                                    7    8    9   10
                                  ---------------------------------------------------------------------------
            0  0  0  0     9.800    246  276  306  336
            0  0  0  0     6.800    247  277  307  337
            0  0  0  1     7.580    248  278  308  338
            0  0  0  1     2.880    249  279  309  339
            0  0  0  1     1.720    250  280  310  340
            1  0  0  0     4.080    251  281  311  341
            0  1  0  0     4.080    252  282  312  342
            0  0  1  0     4.080    253  283  313  343
            1  0  0  0     2.080    254  284  314  344
            0  1  0  0     2.080    255  285  315  345
            0  0  1  0     2.080    256  286  316  346
            1  0  0  0     1.120    257  287  317  347
            0  1  0  0     1.120    258  288  318  348
            0  0  1  0     1.120    259  289  319  349
            2  0  0  0     2.000    260  290  320  350
            1  1  0  0     2.000    261  291  321  351
            1  0  1  0     2.000    262  292  322  352
            0  2  0  0     2.000    263  293  323  353
            0  1  1  0     2.000    264  294  324  354
            0  0  2  0     2.000    265  295  325  355
            3  0  0  0     3.000    266  296  326  356
            2  1  0  0     3.000    267  297  327  357
            2  0  1  0     3.000    268  298  328  358
            1  2  0  0     3.000    269  299  329  359
            1  1  1  0     3.000    270  300  330  360
            1  0  2  0     3.000    271  301  331  361
            0  3  0  0     3.000    272  302  332  362
            0  2  1  0     3.000    273  303  333  363
            0  1  2  0     3.000    274  304  334  364
            0  0  3  0     3.000    275  305  335  365

 Total number of charge fitting functions (nprimf)      1039
 Total number of Cartesian basis functions (naos)        365
 Total number of Cartesian core functions  (ncos)          0

1
 ***************************************************************************************************



                                              ***********************
                                              *  T E C H N I C A L  *
                                              ***********************
  



 =============================================================
 P A R A L L E L I Z A T I O N  and  V E C T O R I Z A T I O N
 =============================================================
  
 Nr of parallel processes:                                8
 Maximum vector length in NumInt loops:                 128



 =====================
 S C F   U P D A T E S
 =====================
  
 Max. nr. of cycles:                               300
 Convergence criterion:                              0.0000010000
   secondary criterion:                              0.0010000000

 Mix parameter (when DIIS does not apply):           0.2000000000
 Mixed ADIIS+SDIIS will be used                  
    Max number of expansion vectors:                10
    Pure ADIIS when Max([F,P]) is above              0.1000000000
    Pure SDIIS when Max([F,P]) is below              0.0010000000
 Automatic ElectronSmearing (in case of problematic SCF convergence) disabled



 =================
 P R E C I S I O N  ***  (General: NumInt, NeglectFunctionTails, ...)  ***
 =================
  

 NumInt:           Target precision:                 6.0000000000
 -------           Initial precision:                6.0000000000
                   Min. precision (optimization):    6.0000000000

 Neglect Functions:          Basis functions:        0.1000000000E-07
 ------------------          Fit functions:          0.1000000000E-07



 ===========================
 L I N E A R   S C A L I N G
 ===========================
  

 Cut-off radii density fit:                        0.1000000000E-09
 Overlap cut-off criterion AO matrix elements:     0.1000000000E-07
 Cut-offs for Coulomb potential and fitted density:0.1000000000E-09
 Cut-off criterion for Coulomb multipole terms:    0.1000000000E-09
 Progressive Convergence parameter:                 0.000000000    
1
 ***************************************************************************************************



                                            ***************************
                                            *  C O M P U T A T I O N  *
                                            ***************************
  



 ==============================
 Double group spinor symmetries  ***  (Spin-Orbit)  ***
 ==============================
  

 The double group Lowdins are spinors adapted to the irreducible representations
 of the double group. These double group Lowdins are linear combinations of
 products of the single group Lowdins and the spinfunctions. The single group
 Lowdins are  orthonormalized symmetrized fragment orbitals (SFOs).
 The complex coefficients that are used in the linear combinations are also
 known as Clebsch-Gordan coefficients.
 The spin functions (alpha,beta) span irrep e1/2


          A * e 1/2 :      A1/2

  A1/2:1 = A.alpha
  A1/2:1 = A.beta

 The table summarizes which one-electron orbital irreps (single group) couple
 with spin to which spinor irreps (double group).
 The Clebsch-Gordan series for each direct product: orbital irrep times e1/2.
                  A
            -------
  A1/2           X


 dimension (equal to the max. nr. of electrons per spinor) of the double group irreps
 ------------------------------------------------------------------------------------
  A1/2           1

 Number of elements of the density matrix on this node (used, total):     12720     66795



 ===========================================
 Numerical Integration : Fuzzy Cells (Becke)
 ===========================================
  
 Becke grid quality: GOOD           
  
 Lebedev angular grid order:             min:  11 max:  35
 Nr. of radial points:                   min:  54 max: 196

 Total nr. of points:     164657
 Nr. of blocks:             1287
 Block length:               128
 Nr. of dummy points:         79


 Test of Precision of the Numerical Integration Grid
 ===================================================

 Integral of the Total Core Density:                   0.00000000000000



 ========================
 Density Fitting (zlmFit)
 ========================
  
 ZlmFit Fit Quality: GOOD           
  
 Max L-expansion:                        min:   8 max:  10
 Nr. of radial interpolation points:     min:  78 max: 324



 ======================
 RI Hartree-Fock Scheme
 ======================
  
 Fit Set Quality     : GOOD
 Threshold Quality   : GOOD
 Integration Quality : GOOD
 Fit Generation Method : AUTO
 Response Quality    : DEFAULT
 Is Range Separated  :  F
 
 RIHartreeFock Dependency: number of modified vectors:           5



 =====
 S C F  ***  ScaSCF  ***
 =====
  
 Initial density matrix is calculated as sum of fragments

 CYCLE    1
 SCF Error: norm([F,P])=   1343.923780133465, max([F,P])=    306.503716683677
 orbitals (Q,E):
 ---------------
 A1/2 :135...154     ( 1.00    -0.4887)  ( 1.00    -0.4887)  ( 1.00    -0.4802)  ( 1.00    -0.4802)
                     ( 1.00    -0.3895)  ( 1.00    -0.3895)  ( 1.00    -0.3821)  ( 1.00    -0.3821)
                     ( 1.00    -0.3786)  ( 1.00    -0.3786)  ( 0.00    -0.1073)  ( 0.00    -0.1073)
                     ( 0.00    -0.0706)  ( 0.00    -0.0706)  ( 0.00    -0.0645)  ( 0.00    -0.0645)
                     ( 0.00    -0.0597)  ( 0.00    -0.0597)  ( 0.00    -0.0503)  ( 0.00    -0.0503)

 CYCLE    2
   MIX coefficients:  0.8000  0.2000
 SCF Error: norm([F,P])=      2.741024466130, max([F,P])=      0.481815385100
 orbitals (Q,E):
 ---------------
 A1/2 :135...154     ( 1.00    -0.4090)  ( 1.00    -0.4090)  ( 1.00    -0.4022)  ( 1.00    -0.4022)
                     ( 1.00    -0.3674)  ( 1.00    -0.3674)  ( 1.00    -0.3527)  ( 1.00    -0.3527)
                     ( 1.00    -0.3495)  ( 1.00    -0.3495)  ( 0.00    -0.1388)  ( 0.00    -0.1388)
                     ( 0.00    -0.1315)  ( 0.00    -0.1315)  ( 0.00    -0.1203)  ( 0.00    -0.1203)
                     ( 0.00    -0.1126)  ( 0.00    -0.1126)  ( 0.00    -0.1022)  ( 0.00    -0.1022)

 CYCLE    3
  SDIIS (wt  0.000): -1.4582  2.4582
 A-DIIS (wt  1.000):  0.0000  1.0000
  DIIS coefficients:  0.0000  1.0000
 SCF Error: norm([F,P])=      1.941747115620, max([F,P])=      0.383688596005
 orbitals (Q,E):
 ---------------
 A1/2 :135...154     ( 1.00    -0.2653)  ( 1.00    -0.2653)  ( 1.00    -0.2638)  ( 1.00    -0.2638)
                     ( 1.00    -0.2541)  ( 1.00    -0.2541)  ( 1.00    -0.2429)  ( 1.00    -0.2429)
                     ( 1.00    -0.2406)  ( 1.00    -0.2406)  ( 0.00    -0.2300)  ( 0.00    -0.2300)
                     ( 0.00    -0.1996)  ( 0.00    -0.1996)  ( 0.00    -0.1974)  ( 0.00    -0.1974)
                     ( 0.00    -0.1722)  ( 0.00    -0.1722)  ( 0.00    -0.1677)  ( 0.00    -0.1677)

 CYCLE    4
[...]



 =======================================================================
 Electrostatic potential at the Nuclei due to electrons and other nuclei
 =======================================================================
  
         Atom                  Potential
         ----                  ---------
     1)   Pa                791.37458487
     2)   Cl                 64.92669891
     3)   H                   0.97416653
     4)   O                  22.39235550
     5)   H                   0.97399825
     6)   O                  22.39247271
     7)   H                   0.97425113
     8)   O                  22.39577599
     9)   H                   0.97608047
    10)   O                  22.39231669
 Mulliken charges used for AMS results%charges...


    =====================
     CALCULATION RESULTS
    =====================

Energy (hartree)           -87.77542302


--------------
Atomic charges
--------------
  Index   Atom    Charge
      1     Pa    2.6602
      2     Cl   -0.3862
      3      H    0.0221
      4      O   -0.5871
      5      H    0.0144
      6      O   -0.5865
      7      H    0.0224
      8      O   -0.5860
      9      H    0.0078
     10      O   -0.5811


Dipole moment vector    (Debye):    -1.47954154   -2.31882771    1.89652648
              magnitude (Debye):     3.34108034


-----------------------
Molecular orbitals info
-----------------------
n orbitals:              634
n spin:                    1

Note: only printing virtual orbitals with
      energy smaller than HOMO + 100. eV

HOMO (eV):              -7.7602
LUMO (eV):              -2.8131
HOMO-LUMO gap (eV):      4.9471

   Index   Energy (eV)    Occupation
     412       91.7942         0.000       
     411       91.7942         0.000       
     410       89.5827         0.000       
     409       89.5827         0.000       
     408       87.1856         0.000       
     407       87.1856         0.000       
     406       81.5874         0.000       
     405       81.5874         0.000       
     404       81.0070         0.000       
     403       81.0070         0.000       
     402       80.1377         0.000       
     401       80.1377         0.000       
     400       78.1179         0.000       
     399       78.1179         0.000       
     398       77.0053         0.000       
     397       77.0053         0.000       
     396       76.4373         0.000       
     395       76.4373         0.000       
     394       76.3878         0.000       
     393       76.3878         0.000       
     392       74.8260         0.000       
     391       74.8260         0.000       
     390       74.6869         0.000       
     389       74.6869         0.000       
     388       73.9884         0.000       
     387       73.9884         0.000       
     386       73.6716         0.000       
     385       73.6716         0.000       
     384       73.6305         0.000       
     383       73.6305         0.000       
     382       72.1821         0.000       
     381       72.1821         0.000       
     380       72.0171         0.000       
     379       72.0171         0.000       
     378       71.6794         0.000       
     377       71.6794         0.000       
     376       71.6245         0.000       
     375       71.6245         0.000       
     374       70.1722         0.000       
     373       70.1722         0.000       
     372       69.6580         0.000       
     371       69.6580         0.000       
     370       67.0071         0.000       
     369       67.0071         0.000       
     368       65.8187         0.000       
     367       65.8187         0.000       
     366       65.5799         0.000       
     365       65.5799         0.000       
     364       61.6995         0.000       
     363       61.6995         0.000       
     362       60.8883         0.000       
     361       60.8883         0.000       
     360       60.6344         0.000       
     359       60.6344         0.000       
     358       58.3547         0.000       
     357       58.3547         0.000       
     356       55.6810         0.000       
     355       55.6810         0.000       
     354       55.1413         0.000       
     353       55.1413         0.000       
     352       53.9986         0.000       
     351       53.9986         0.000       
     350       53.3682         0.000       
     349       53.3682         0.000       
     348       52.5794         0.000       
     347       52.5794         0.000       
     346       50.5254         0.000       
     345       50.5254         0.000       
     344       47.8330         0.000       
     343       47.8330         0.000       
     342       47.3455         0.000       
     341       47.3455         0.000       
     340       47.1007         0.000       
     339       47.1007         0.000       
     338       46.8903         0.000       
     337       46.8903         0.000       
     336       46.3250         0.000       
     335       46.3250         0.000       
     334       44.7381         0.000       
     333       44.7381         0.000       
     332       40.6194         0.000       
     331       40.6194         0.000       
     330       39.9121         0.000       
     329       39.9121         0.000       
     328       39.7158         0.000       
     327       39.7158         0.000       
     326       39.6136         0.000       
     325       39.6136         0.000       
     324       39.5727         0.000       
     323       39.5727         0.000       
     322       37.9289         0.000       
     321       37.9289         0.000       
     320       37.6369         0.000       
     319       37.6369         0.000       
     318       37.4459         0.000       
     317       37.4459         0.000       
     316       36.9982         0.000       
     315       36.9982         0.000       
     314       36.8674         0.000       
     313       36.8674         0.000       
     312       36.3080         0.000       
     311       36.3080         0.000       
     310       35.9877         0.000       
     309       35.9877         0.000       
     308       35.8729         0.000       
     307       35.8729         0.000       
     306       35.7736         0.000       
     305       35.7736         0.000       
     304       35.6983         0.000       
     303       35.6983         0.000       
     302       35.4804         0.000       
     301       35.4804         0.000       
     300       34.8201         0.000       
     299       34.8201         0.000       
     298       34.3910         0.000       
     297       34.3910         0.000       
     296       34.0024         0.000       
     295       34.0024         0.000       
     294       33.8511         0.000       
     293       33.8511         0.000       
     292       33.7846         0.000       
     291       33.7846         0.000       
     290       33.0460         0.000       
     289       33.0460         0.000       
     288       32.4490         0.000       
     287       32.4490         0.000       
     286       31.4282         0.000       
     285       31.4282         0.000       
     284       30.8128         0.000       
     283       30.8128         0.000       
     282       30.2395         0.000       
     281       30.2395         0.000       
     280       29.6352         0.000       
     279       29.6352         0.000       
     278       29.1555         0.000       
     277       29.1555         0.000       
     276       28.8322         0.000       
     275       28.8322         0.000       
     274       27.3892         0.000       
     273       27.3892         0.000       
     272       26.7442         0.000       
     271       26.7442         0.000       
     270       26.3846         0.000       
     269       26.3846         0.000       
     268       21.9110         0.000       
     267       21.9110         0.000       
     266       21.8130         0.000       
     265       21.8130         0.000       
     264       21.7228         0.000       
     263       21.7228         0.000       
     262       19.7715         0.000       
     261       19.7715         0.000       
     260       19.2702         0.000       
     259       19.2702         0.000       
     258       18.5570         0.000       
     257       18.5570         0.000       
     256       17.8981         0.000       
     255       17.8981         0.000       
     254       16.7746         0.000       
     253       16.7746         0.000       
     252       16.5695         0.000       
     251       16.5695         0.000       
     250       16.5164         0.000       
     249       16.5164         0.000       
     248       15.9853         0.000       
     247       15.9853         0.000       
     246       15.8378         0.000       
     245       15.8378         0.000       
     244       15.5976         0.000       
     243       15.5976         0.000       
     242       15.5552         0.000       
     241       15.5552         0.000       
     240       15.1906         0.000       
     239       15.1906         0.000       
     238       15.1324         0.000       
     237       15.1324         0.000       
     236       15.0696         0.000       
     235       15.0696         0.000       
     234       14.3767         0.000       
     233       14.3767         0.000       
     232       14.2090         0.000       
     231       14.2090         0.000       
     230       13.8851         0.000       
     229       13.8851         0.000       
     228       13.5749         0.000       
     227       13.5749         0.000       
     226       13.4490         0.000       
     225       13.4490         0.000       
     224       12.5913         0.000       
     223       12.5913         0.000       
     222       12.4688         0.000       
     221       12.4688         0.000       
     220       12.3097         0.000       
     219       12.3097         0.000       
     218       12.1682         0.000       
     217       12.1682         0.000       
     216       11.3384         0.000       
     215       11.3384         0.000       
     214       11.2395         0.000       
     213       11.2395         0.000       
     212       11.1817         0.000       
     211       11.1817         0.000       
     210       10.4152         0.000       
     209       10.4152         0.000       
     208        9.9256         0.000       
     207        9.9256         0.000       
     206        9.8789         0.000       
     205        9.8789         0.000       
     204        9.1910         0.000       
     203        9.1910         0.000       
     202        8.0852         0.000       
     201        8.0852         0.000       
     200        7.9419         0.000       
     199        7.9419         0.000       
     198        7.7072         0.000       
     197        7.7072         0.000       
     196        6.1165         0.000       
     195        6.1165         0.000       
     194        5.9398         0.000       
     193        5.9398         0.000       
     192        5.4498         0.000       
     191        5.4498         0.000       
     190        4.4991         0.000       
     189        4.4991         0.000       
     188        3.7292         0.000       
     187        3.7292         0.000       
     186        2.9231         0.000       
     185        2.9231         0.000       
     184        2.8349         0.000       
     183        2.8349         0.000       
     182        2.7530         0.000       
     181        2.7530         0.000       
     180        2.3431         0.000       
     179        2.3431         0.000       
     178        2.3394         0.000       
     177        2.3394         0.000       
     176        2.1471         0.000       
     175        2.1471         0.000       
     174        1.5256         0.000       
     173        1.5256         0.000       
     172        1.4034         0.000       
     171        1.4034         0.000       
     170        1.1562         0.000       
     169        1.1562         0.000       
     168        0.9849         0.000       
     167        0.9849         0.000       
     166        0.4509         0.000       
     165        0.4509         0.000       
     164        0.4045         0.000       
     163        0.4045         0.000       
     162        0.3626         0.000       
     161        0.3626         0.000       
     160       -0.4541         0.000       
     159       -0.4541         0.000       
     158       -1.5611         0.000       
     157       -1.5611         0.000       
     156       -1.8485         0.000       
     155       -1.8485         0.000       
     154       -1.8732         0.000       
     153       -1.8732         0.000       
     152       -2.1795         0.000       
     151       -2.1795         0.000       
     150       -2.3776         0.000       
     149       -2.3776         0.000       
     148       -2.7528         0.000       
     147       -2.7528         0.000       
     146       -2.8131         0.000       
     145       -2.8131         0.000 < LUMO
     144       -7.7602         1.000 < HOMO
     143       -7.7602         1.000       
     142       -7.8340         1.000       
     141       -7.8340         1.000       
     140       -8.2836         1.000       
     139       -8.2836         1.000       
     138       -8.6928         1.000       
     137       -8.6928         1.000       
     136       -8.8954         1.000       
     135       -8.8954         1.000       
     134       -9.1049         1.000       
     133       -9.1049         1.000       
     132       -9.2409         1.000       
     131       -9.2409         1.000       
     130       -9.3764         1.000       
     129       -9.3764         1.000       
     128       -9.5254         1.000       
     127       -9.5254         1.000       
     126      -10.1135         1.000       
     125      -10.1135         1.000       
     124      -10.1467         1.000       
     123      -10.1467         1.000       
     122      -12.7525         1.000       
     121      -12.7525         1.000       
     120      -12.9550         1.000       
     119      -12.9550         1.000       
     118      -13.5372         1.000       
     117      -13.5372         1.000       
     116      -14.3788         1.000       
     115      -14.3788         1.000       
     114      -20.4059         1.000       
     113      -20.4059         1.000       
     112      -22.5933         1.000       
     111      -22.5933         1.000       
     110      -22.9815         1.000       
     109      -22.9815         1.000       
     108      -26.0324         1.000       
     107      -26.0324         1.000       
     106      -26.6623         1.000       
     105      -26.6623         1.000       
     104      -27.6200         1.000       
     103      -27.6200         1.000       
     102      -27.8865         1.000       
     101      -27.8865         1.000       
     100      -32.2836         1.000       
      99      -32.2836         1.000       
      98      -49.9995         1.000       
      97      -49.9995         1.000       
      96      -96.7570         1.000       
      95      -96.7570         1.000       
      94      -96.7819         1.000       
      93      -96.7819         1.000       
      92      -96.8276         1.000       
      91      -96.8276         1.000       
      90     -104.1798         1.000       
      89     -104.1798         1.000       
      88     -104.2281         1.000       
      87     -104.2281         1.000       
      86     -193.7441         1.000       
      85     -193.7441         1.000       
      84     -193.8013         1.000       
      83     -193.8013         1.000       
      82     -194.0301         1.000       
      81     -194.0301         1.000       
      80     -194.0486         1.000       
      79     -194.0486         1.000       
      78     -195.7151         1.000       
      77     -195.7151         1.000       
      76     -242.0871         1.000       
      75     -242.0871         1.000       
      74     -257.4059         1.000       
      73     -257.4059         1.000       
      72     -304.2110         1.000       
      71     -304.2110         1.000       
      70     -354.7417         1.000       
      69     -354.7417         1.000       
      68     -354.7608         1.000       
      67     -354.7608         1.000       
      66     -354.7882         1.000       
      65     -354.7882         1.000       
      64     -354.7973         1.000       
      63     -354.7973         1.000       
      62     -364.4999         1.000       
      61     -364.4999         1.000       
      60     -364.5302         1.000       
      59     -364.5302         1.000       
      58     -364.5489         1.000       
      57     -364.5489         1.000       
      56     -520.8441         1.000       
      55     -520.8441         1.000       
      54     -520.9281         1.000       
      53     -520.9281         1.000       
      52     -520.9296         1.000       
      51     -520.9296         1.000       
      50     -520.9313         1.000       
      49     -520.9313         1.000       
      48     -694.0140         1.000       
      47     -694.0140         1.000       
      46     -694.0515         1.000       
      45     -694.0515         1.000       
      44     -694.0674         1.000       
      43     -694.0674         1.000       
      42     -733.3355         1.000       
      41     -733.3355         1.000       
      40     -733.3729         1.000       
      39     -733.3729         1.000       
      38     -983.2933         1.000       
      37     -983.2933         1.000       
      36     -983.3301         1.000       
      35     -983.3301         1.000       
      34    -1190.0829         1.000       
      33    -1190.0829         1.000       
      32    -1353.2410         1.000       
      31    -1353.2410         1.000       
      30    -2770.6073         1.000       
      29    -2770.6073         1.000       
      28    -3410.2249         1.000       
      27    -3410.2249         1.000       
      26    -3410.2407         1.000       
      25    -3410.2407         1.000       
      24    -3410.2488         1.000       
      23    -3410.2488         1.000       
      22    -3577.0194         1.000       
      21    -3577.0194         1.000       
      20    -3577.0350         1.000       
      19    -3577.0350         1.000       
      18    -4130.9281         1.000       
      17    -4130.9281         1.000       
      16    -4130.9450         1.000       
      15    -4130.9450         1.000       
      14    -4926.6973         1.000       
      13    -4926.6973         1.000       
      12    -5303.5135         1.000       
      11    -5303.5135         1.000       
      10   -16649.1450         1.000       
       9   -16649.1450         1.000       
       8   -16649.1470         1.000       
       7   -16649.1470         1.000       
       6   -20126.8001         1.000       
       5   -20126.8001         1.000       
       4   -21000.4016         1.000       
       3   -21000.4016         1.000       
       2  -112595.5865         1.000       
       1  -112595.5865         1.000       

AMS application finished. Exiting.
NORMAL TERMINATION
     Total cpu time:     696.43
  Total system time:      50.11
 Total elapsed time:     747.23
