

 Parallel Execution: Process Information
 ==============================================================================
 Rank   Node Name                              NodeID   MyNodeRank  NodeMaster
    0   u-0-9.local                               0          0          0
    1   u-0-9.local                               0          1         -1
    2   u-0-9.local                               0          2         -1
    3   u-0-9.local                               0          3         -1
    4   u-0-9.local                               1          0          1
    5   u-0-9.local                               1          1         -1
    6   u-0-9.local                               1          2         -1
    7   u-0-9.local                               1          3         -1
 ==============================================================================


May use up to 62455MB of RAM as shared memory on node 0
May use up to 124955MB of RAM as shared memory on node 1

 *******************************************************************************
 *                                                                             *
 *  --------------------------------                                           *
 *   Amsterdam Modeling Suite (AMS)              2023.101                      *
 *  --------------------------------                                           *
 *                                               r111868 2023-03-31            *
 *                                                                             *
 *                                                                             *
 *                              =================                              *
 *                              |               |                              *
 *                              |     A M S     |                              *
 *                              |               |                              *
 *                              =================                              *
 *                                                                             *
 *                                                                             *
 *   Online information and documentation:  https://www.scm.com/support/       *
 *   E-mail:  support@scm.com   info@scm.com                                   *
 *                                                                             *
 *   Scientific publications using AMS results must be properly referenced     *
 *   See the User Manuals (or the web site) for recommended citations          *
 *   The terms and conditions of the End User License Agreement apply to       *
 *   the use of AMS, https://www.scm.com/license-terms/                        *
 *                                                                             *
 **********************  x86_64_linux_intel / intelmpi  ************************
 
 Licensed to: Dr. Val?rie Vallet / Laboratoire PhLAM UMR 8523 / Villeneuve d'Ascq Cedex / FRANCE 2023-12-11 15:27:25
 SCM User ID: u10325
  
 AMS 2023.101  RunTime: Jan15-2024 09:14:33  ShM Nodes: 2  Procs: 8

 AMS jobname: pa_oh4_I.SO.b3lyp.tz2p.sp-B22
 AMS jobid  : 995605878

 Start   directory: /home/shaaban/ams/PhD/iodide/pa_oh4_I/gp/B22/SP-SR-SO/
 Results directory: /home/shaaban/ams/PhD/iodide/pa_oh4_I/gp/B22/SP-SR-SO/pa_oh4_I.SO.b3lyp.tz2p.sp-B22.results/
 Scratch directory: /state/partition2/shaaban/999616.phlam-s-sakura/amstmp_pa_oh4_I.SO.b3lyp.tz2p.sp-B22_kid0.995605878/


 Communication costs MPI_COMM_WORLD:      1.161 usec per message,   0.0084 usec per 8-byte item
 Communication costs for intra-node:      0.407 usec per message,   0.0040 usec per 8-byte item

 RNG seed: 1204008076 -396395453 2108233533 -313013872 341153331 -761622612 -157803671 18951022



                      ************************************************************************
                      *  ADF 2023.101  RunTime: Jan15-2024 09:14:34  ShM Nodes: 2  Procs: 8  *
                      ************************************************************************
  

       ****************************
       * SINGLE POINT CALCULATION *
       ****************************
 
--------
Geometry
--------
Formula: H4IO4Pa
Atoms
  Index Symbol   x (angstrom)   y (angstrom)   z (angstrom)
      1     Pa     0.28973337    -0.14176469     0.08322887
      2      I     1.54115535     1.99393357    -1.67073040
      3      H    -1.94807184     1.86117746     0.49478047
      4      O    -1.29220939     1.16449828     0.42956870
      5      H     2.81433136     0.08413342     1.74925771
      6      O     0.19840394    -1.37300356    -1.59201649
      7      H     0.20700993    -1.82393106    -2.43836804
      8      O    -0.56822140    -1.59885594     1.28345833
      9      H    -1.04541684    -2.24562614     1.80611022
     10      O     1.98734249    -0.05459782     1.28405038
 
Total System Charge             0.00000
Bonding info available!
 
 
----------------
ADF Engine Input
----------------
 
 Basis
 Type TZ2P
 Core None
 End
 XC
 Hybrid B3LYP
 End
 Relativity
 Level Spin-Orbit
 End
 NumericalQuality Good
 

 Title: *** (NO TITLE) ***

 *** adf ***



 ===========================
 A T T A C H E D   F I L E S
 ===========================
  



 ===============================
 M O D E L   P A R A M E T E R S
 ===============================
  
 DENSITY FUNCTIONAL POTENTIAL (scf)
    Hybrid:                            B3LYP                                   == Not Default ==

 SPIN  (restricted / unrestr.)
    Molecule:                          Restricted                               
    Fragments:                         Restricted                               

 OTHER ASPECTS
    Relativistic Corrections:          Spin-Orbit (ZORA,MAPA)                  == Not Default ==

    Nuclear Charge Density Model:      Point Charge Nuclei                      
    Core Treatment:                    Frozen Orbital(s)                        

    Hyperfine or Zeeman Interaction:   ---                                      


 Fragment File(s)
 ----------------
 Pa:
         file : /home/shaaban/ams/PhD/iodide/pa_oh4_I/gp/B22/SP-SR-SO/pa_oh4_I.SO.b3lyp.tz2p.sp-B22.results/t21.376DF1AB.Pa
         jobid: 0
         title: Protactinium (TZ2P, all electron)
 I:
         file : /home/shaaban/ams/PhD/iodide/pa_oh4_I/gp/B22/SP-SR-SO/pa_oh4_I.SO.b3lyp.tz2p.sp-B22.results/t21.3AA29CA8.I
         jobid: 0
         title: Iodine (TZ2P, all electron)
 H:
         file : /home/shaaban/ams/PhD/iodide/pa_oh4_I/gp/B22/SP-SR-SO/pa_oh4_I.SO.b3lyp.tz2p.sp-B22.results/t21.1FC863BF.H
         jobid: 0
         title: Hydrogen (TZ2P)
 O:
         file : /home/shaaban/ams/PhD/iodide/pa_oh4_I/gp/B22/SP-SR-SO/pa_oh4_I.SO.b3lyp.tz2p.sp-B22.results/t21.6BA271D4.O
         jobid: 0
         title: Oxygen (TZ2P)



 ===============
 G E O M E T R Y  ***  3D  Molecule  ***
 ===============
  

 ATOMS
 =====                            X Y Z                    CHARGE
                                (Angstrom)             Nucl     +Core       At.Mass
                       --------------------------    ----------------       -------
    1  Pa              0.2897   -0.1418    0.0832     91.00     91.00      231.0359
    2  I               1.5412    1.9939   -1.6707     53.00     53.00      126.9045
    3  H              -1.9481    1.8612    0.4948      1.00      1.00        1.0078
    4  O              -1.2922    1.1645    0.4296      8.00      8.00       15.9949
    5  H               2.8143    0.0841    1.7493      1.00      1.00        1.0078
    6  O               0.1984   -1.3730   -1.5920      8.00      8.00       15.9949
    7  H               0.2070   -1.8239   -2.4384      1.00      1.00        1.0078
    8  O              -0.5682   -1.5989    1.2835      8.00      8.00       15.9949
    9  H              -1.0454   -2.2456    1.8061      1.00      1.00        1.0078
   10  O               1.9873   -0.0546    1.2841      8.00      8.00       15.9949


 FRAGMENTS
 =========                                     Atoms in this Fragment     Cart. coord.s (Angstrom)
                                               -------------------------------------------------------
    1  Pa                                                1  Pa           0.2897   -0.1418    0.0832
    2  I                                                 2  I            1.5412    1.9939   -1.6707
    3  H                                                 3  H           -1.9481    1.8612    0.4948
    4  H                                                 5  H            2.8143    0.0841    1.7493
    5  H                                                 7  H            0.2070   -1.8239   -2.4384
    6  H                                                 9  H           -1.0454   -2.2456    1.8061
    7  O                                                 4  O           -1.2922    1.1645    0.4296
    8  O                                                 6  O            0.1984   -1.3730   -1.5920
    9  O                                                 8  O           -0.5682   -1.5989    1.2835
   10  O                                                10  O            1.9873   -0.0546    1.2841


 Interatomic Distance Matrix (Angstrom)
 --------------------------------------

   1)     0.000
   2)     3.034   0.000
   3)     3.031   4.109   0.000
   4)     2.081   3.623   0.959   0.000
   5)     3.033   4.119   5.236   4.447   0.000
   6)     2.081   3.626   4.407   3.570   4.487   0.000
   7)     3.032   4.116   5.180   4.405   5.289   0.959   0.000
   8)     2.074   5.107   3.808   2.982   3.807   2.984   3.808   0.000
   9)     3.029   6.062   4.405   3.686   4.509   3.722   4.445   0.959   0.000
  10)     2.081   3.623   4.448   3.602   0.959   3.635   4.490   2.986   3.778   0.000

 Min. Distance =    0.9587
 Max. Distance =    6.0624



 =====================================
 S Y M M E T R Y ,   E L E C T R O N S
 =====================================
  
 Symmetry: NOSYM

 Double Group Irreducible Representations (spinor symmetry)
 -----------------------------------------------------------
 A1/2

 Symmetry is NOT used when fitting density


 Configuration of Valence Electrons
 ==================================
 ( determined in the SCF procedure )

 Total:   180

 Net Charge: 0 (Nuclei minus Electrons)

 Aufbau principle for MO occupations will be applied through SCF cycle no.     150
 Thereafter, the program will assign electrons to MOs that are spatially
 similar to the occupied MOs in a "reference" cycle ("KeepOrbitals").
 The reference cycle is always the PREVIOUS cycle: it will evolve with
 the SCF procedure.
1
 ***************************************************************************************************



                                      ****************************************
                                      *  B U I L D : (Fragments, Functions)  *
                                      ****************************************
  



 =======
 S F O s  ***  (Symmetrized Fragment Orbitals)  ***
 =======
  
 SFOs are linear combinations of (valence) Fragment Orbitals (FOs), such that the SFOs transform as the
 irreducible representations of the (molecular) symmetry group. Each SFO is therefore characterized by
 an irrep of the molecule and by a few (or only one) generating FOs.
 The SFOs constitute a symmetry-adapted basis for the Fock matrix. The MO eigenvector coefficients in
 this basis provide a direct interpretation of the MOs in terms of Frontier Orbital Theory.

 The SFOs are combined with auxiliary Core Functions (CFs) to ensure orthogonalization on the (frozen)
 Core Orbitals (COs). The Core-orthogonalized SFOs (CSFOs) constitute the true Fock basis.

 The FOs, and hence also the (C)SFOs are combinations of the elementary basis functions (BAS). The basis
 functions that participate in the description of the SFOs depend on the irrep. The indices of the
 involved functions are printed below for each irrep.
 (The complete list of primitive basis functions is printed in another section)

 Total nr. of (C)SFOs (summation over all irreps) :   367

 NOTE: a (C)SFO that is defined as a combination of more than one FO is usually NOT normalized.

 NOTE: the (C)SFOs are single group symmetry adapted orbitals.



                                       === A ===
 Nr. of SFOs :  367
 Cartesian basis functions that participate in this irrep (total number =   421) :
      1     2     3     4     5     6     7     8     9    10
     11    12    13    14    15    16    17    20    23    26
     29    32    35    38    41    44    47    50   157    18
     21    24    27    30    33    36    39    42    45    48
     51   158    19    22    25    28    31    34    37    40
     43    46    49    52   159    53    59    65    71    77
     83    89    95   101    54    60    66    72    78    84
     90    96   102    55    61    67    73    79    85    91
     97   103    56    62    68    74    80    86    92    98
    104    57    63    69    75    81    87    93    99   105
     58    64    70    76    82    88    94   100   106   107
    117   127   137   147   108   118   128   138   148   109
    119   129   139   149   110   120   130   140   150   111
    121   131   141   151   112   122   132   142   152   113
    123   133   143   153   114   124   134   144   154   115
    125   135   145   155   116   126   136   146   156   160
    161   162   163   164   165   166   167   168   169   170
    171   172   175   178   181   184   187   190   193   196
    199   173   176   179   182   185   188   191   194   197
    200   174   177   180   183   186   189   192   195   198
    201   202   208   214   220   226   232   238   203   209
    215   221   227   233   239   204   210   216   222   228
    234   240   205   211   217   223   229   235   241   206
    212   218   224   230   236   242   207   213   219   225
    231   237   243   244   245   246   247   248   249   250
    251   252   253   254   255   256   257   258   259   260
    261   262   263   264   265   266   267   268   269   270
    271   272   273   274   275   276   277   278   279   280
    281   282   283   284   285   286   287   288   289   290
    291   292   293   294   295   296   297   298   299   300
    301   302   303   304   305   306   307   310   313   308
    311   314   309   312   315   316   317   318   319   320
    321   322   323   324   325   326   327   328   329   330
    331   332   333   334   335   336   337   340   343   338
    341   344   339   342   345   346   347   348   349   350
    351   352   353   354   355   356   357   358   359   360
    361   362   363   364   365   366   367   370   373   368
    371   374   369   372   375   376   377   378   379   380
    381   382   383   384   385   386   387   388   389   390
    391   392   393   394   395   396   397   400   403   398
    401   404   399   402   405   406   407   408   409   410
    411   412   413   414   415   416   417   418   419   420
    421

    SFO  (index         Fragment          Generating    Expansion in Fragment Orbitals
  indx  incl.CFs)   Occup   Orb.Energy   FragmentType  Coeff.   Orbital     on Fragment
 --------------------------------------------------------------------------------------
     1       1      2.000   -4140.144 au  Pa            1.00      1 S               1
                        ( -112659.040 eV)
     2       2      2.000    -772.390 au  Pa            1.00      2 S               1
                        (  -21017.794 eV)
     3       3      2.000    -195.003 au  Pa            1.00      3 S               1
                        (   -5306.298 eV)
     4       4      2.000     -49.664 au  Pa            1.00      4 S               1
                        (   -1351.436 eV)
     5       5      2.000     -11.057 au  Pa            1.00      5 S               1
                        (    -300.888 eV)
     6       6      2.000      -1.766 au  Pa            1.00      6 S               1
                        (     -48.049 eV)
     7       7      2.000      -0.167 au  Pa            1.00      7 S               1
                        (      -4.550 eV)
     8       8       --         0.031 au  Pa            1.00      8 S               1
                        (       0.841 eV)
     9       9       --         0.336 au  Pa            1.00      9 S               1
                        (       9.133 eV)
    10      10       --         1.674 au  Pa            1.00     10 S               1
                        (      45.549 eV)
    11      11       --         8.680 au  Pa            1.00     11 S               1
                        (     236.196 eV)
    12      12       --        46.308 au  Pa            1.00     12 S               1
                        (    1260.118 eV)
    13      13       --      1052.293 au  Pa            1.00     13 S               1
                        (   28634.347 eV)
    14      14       --      5423.866 au  Pa            1.00     14 S               1
                        (  147590.909 eV)
    15      15       --     16326.809 au  Pa            1.00     15 S               1
                        (  444275.077 eV)
    16      16       --     46434.730 au  Pa            1.00     16 S               1
                        ( 1263553.301 eV)
    17      17      2.000    -644.804 au  Pa            1.00      1 P:x             1
                        (  -17546.004 eV)
    18      18      2.000    -159.382 au  Pa            1.00      2 P:x             1
                        (   -4336.995 eV)
    19      19      2.000     -38.001 au  Pa            1.00      3 P:x             1
                        (   -1034.059 eV)
    20      20      2.000      -7.452 au  Pa            1.00      4 P:x             1
                        (    -202.774 eV)
    21      21      2.000      -0.880 au  Pa            1.00      5 P:x             1
                        (     -23.949 eV)
    22      22       --        -0.008 au  Pa            1.00      6 P:x             1
                        (      -0.215 eV)
    23      23       --         0.404 au  Pa            1.00      7 P:x             1
                        (      10.994 eV)
    24      24       --         1.850 au  Pa            1.00      8 P:x             1
                        (      50.342 eV)
    25      25       --         7.570 au  Pa            1.00      9 P:x             1
                        (     205.994 eV)
    26      26       --        35.931 au  Pa            1.00     10 P:x             1
                        (     977.731 eV)
    27      27       --       178.469 au  Pa            1.00     11 P:x             1
                        (    4856.387 eV)
    28      28       --      1509.400 au  Pa            1.00     12 P:x             1
                        (   41072.871 eV)
    29      29       --     10783.504 au  Pa            1.00     13 P:x             1
                        (  293434.081 eV)
    30      30      2.000    -644.804 au  Pa            1.00      1 P:y             1
                        (  -17546.004 eV)
    31      31      2.000    -159.382 au  Pa            1.00      2 P:y             1
                        (   -4336.995 eV)
    32      32      2.000     -38.001 au  Pa            1.00      3 P:y             1
                        (   -1034.059 eV)
    33      33      2.000      -7.452 au  Pa            1.00      4 P:y             1
                        (    -202.774 eV)
    34      34      2.000      -0.880 au  Pa            1.00      5 P:y             1
                        (     -23.949 eV)
    35      35       --        -0.008 au  Pa            1.00      6 P:y             1
                        (      -0.215 eV)
    36      36       --         0.404 au  Pa            1.00      7 P:y             1
                        (      10.994 eV)
    37      37       --         1.850 au  Pa            1.00      8 P:y             1
                        (      50.342 eV)
    38      38       --         7.570 au  Pa            1.00      9 P:y             1
                        (     205.994 eV)
    39      39       --        35.931 au  Pa            1.00     10 P:y             1
                        (     977.731 eV)
    40      40       --       178.469 au  Pa            1.00     11 P:y             1
                        (    4856.387 eV)
    41      41       --      1509.400 au  Pa            1.00     12 P:y             1
                        (   41072.871 eV)
    42      42       --     10783.504 au  Pa            1.00     13 P:y             1
                        (  293434.081 eV)
    43      43      2.000    -644.804 au  Pa            1.00      1 P:z             1
                        (  -17546.004 eV)
    44      44      2.000    -159.382 au  Pa            1.00      2 P:z             1
                        (   -4336.995 eV)
    45      45      2.000     -38.001 au  Pa            1.00      3 P:z             1
                        (   -1034.059 eV)
    46      46      2.000      -7.452 au  Pa            1.00      4 P:z             1
                        (    -202.774 eV)
    47      47      2.000      -0.880 au  Pa            1.00      5 P:z             1
                        (     -23.949 eV)
    48      48       --        -0.008 au  Pa            1.00      6 P:z             1
                        (      -0.215 eV)
    49      49       --         0.404 au  Pa            1.00      7 P:z             1
                        (      10.994 eV)
    50      50       --         1.850 au  Pa            1.00      8 P:z             1
                        (      50.342 eV)
    51      51       --         7.570 au  Pa            1.00      9 P:z             1
                        (     205.994 eV)
    52      52       --        35.931 au  Pa            1.00     10 P:z             1
                        (     977.731 eV)
    53      53       --       178.469 au  Pa            1.00     11 P:z             1
                        (    4856.387 eV)
    54      54       --      1509.400 au  Pa            1.00     12 P:z             1
                        (   41072.871 eV)
    55      55       --     10783.504 au  Pa            1.00     13 P:z             1
                        (  293434.081 eV)
    56      56      2.000    -127.750 au  Pa            1.00      1 D:z2            1
                        (   -3476.261 eV)
    57      57      2.000     -25.974 au  Pa            1.00      2 D:z2            1
                        (    -706.779 eV)
    58      58      2.000      -3.548 au  Pa            1.00      3 D:z2            1
                        (     -96.540 eV)
    59      59      0.200      -0.066 au  Pa            1.00      4 D:z2            1
                        (      -1.808 eV)
    60      60       --         0.084 au  Pa            1.00      5 D:z2            1
                        (       2.281 eV)
    61      61       --         0.569 au  Pa            1.00      6 D:z2            1
                        (      15.477 eV)
    62      62       --         3.594 au  Pa            1.00      7 D:z2            1
                        (      97.805 eV)
    63      63       --        24.986 au  Pa            1.00      8 D:z2            1
                        (     679.903 eV)
    64      64       --       204.782 au  Pa            1.00      9 D:z2            1
                        (    5572.393 eV)
    65      65      2.000    -127.750 au  Pa            1.00      1 D:x2-y2         1
                        (   -3476.261 eV)
    66      66      2.000     -25.974 au  Pa            1.00      2 D:x2-y2         1
                        (    -706.779 eV)
    67      67      2.000      -3.548 au  Pa            1.00      3 D:x2-y2         1
                        (     -96.540 eV)
    68      68      0.200      -0.066 au  Pa            1.00      4 D:x2-y2         1
                        (      -1.808 eV)
    69      69       --         0.084 au  Pa            1.00      5 D:x2-y2         1
                        (       2.281 eV)
    70      70       --         0.569 au  Pa            1.00      6 D:x2-y2         1
                        (      15.477 eV)
    71      71       --         3.594 au  Pa            1.00      7 D:x2-y2         1
                        (      97.805 eV)
    72      72       --        24.986 au  Pa            1.00      8 D:x2-y2         1
                        (     679.903 eV)
    73      73       --       204.782 au  Pa            1.00      9 D:x2-y2         1
                        (    5572.393 eV)
    74      74      2.000    -127.750 au  Pa            1.00      1 D:xy            1
                        (   -3476.261 eV)
    75      75      2.000     -25.974 au  Pa            1.00      2 D:xy            1
                        (    -706.779 eV)
    76      76      2.000      -3.548 au  Pa            1.00      3 D:xy            1
                        (     -96.540 eV)
    77      77      0.200      -0.066 au  Pa            1.00      4 D:xy            1
                        (      -1.808 eV)
    78      78       --         0.084 au  Pa            1.00      5 D:xy            1
                        (       2.281 eV)
    79      79       --         0.569 au  Pa            1.00      6 D:xy            1
                        (      15.477 eV)
    80      80       --         3.594 au  Pa            1.00      7 D:xy            1
                        (      97.805 eV)
    81      81       --        24.986 au  Pa            1.00      8 D:xy            1
                        (     679.903 eV)
    82      82       --       204.782 au  Pa            1.00      9 D:xy            1
                        (    5572.393 eV)
    83      83      2.000    -127.750 au  Pa            1.00      1 D:xz            1
                        (   -3476.261 eV)
    84      84      2.000     -25.974 au  Pa            1.00      2 D:xz            1
                        (    -706.779 eV)
    85      85      2.000      -3.548 au  Pa            1.00      3 D:xz            1
                        (     -96.540 eV)
    86      86      0.200      -0.066 au  Pa            1.00      4 D:xz            1
                        (      -1.808 eV)
    87      87       --         0.084 au  Pa            1.00      5 D:xz            1
                        (       2.281 eV)
    88      88       --         0.569 au  Pa            1.00      6 D:xz            1
                        (      15.477 eV)
    89      89       --         3.594 au  Pa            1.00      7 D:xz            1
                        (      97.805 eV)
    90      90       --        24.986 au  Pa            1.00      8 D:xz            1
                        (     679.903 eV)
    91      91       --       204.782 au  Pa            1.00      9 D:xz            1
                        (    5572.393 eV)
    92      92      2.000    -127.750 au  Pa            1.00      1 D:yz            1
                        (   -3476.261 eV)
    93      93      2.000     -25.974 au  Pa            1.00      2 D:yz            1
                        (    -706.779 eV)
    94      94      2.000      -3.548 au  Pa            1.00      3 D:yz            1
                        (     -96.540 eV)
    95      95      0.200      -0.066 au  Pa            1.00      4 D:yz            1
                        (      -1.808 eV)
    96      96       --         0.084 au  Pa            1.00      5 D:yz            1
                        (       2.281 eV)
    97      97       --         0.569 au  Pa            1.00      6 D:yz            1
                        (      15.477 eV)
    98      98       --         3.594 au  Pa            1.00      7 D:yz            1
                        (      97.805 eV)
    99      99       --        24.986 au  Pa            1.00      8 D:yz            1
                        (     679.903 eV)
   100     100       --       204.782 au  Pa            1.00      9 D:yz            1
                        (    5572.393 eV)
   101     101      2.000     -13.085 au  Pa            1.00      1 F:z3            1
                        (    -356.050 eV)
   102     102      0.286      -0.042 au  Pa            1.00      2 F:z3            1
                        (      -1.139 eV)
   103     103       --         0.419 au  Pa            1.00      3 F:z3            1
                        (      11.400 eV)
   104     104       --         2.553 au  Pa            1.00      4 F:z3            1
                        (      69.470 eV)
   105     105       --        21.603 au  Pa            1.00      5 F:z3            1
                        (     587.835 eV)
   106     106      2.000     -13.085 au  Pa            1.00      1 F:z             1
                        (    -356.050 eV)
   107     107      0.286      -0.042 au  Pa            1.00      2 F:z             1
                        (      -1.139 eV)
   108     108       --         0.419 au  Pa            1.00      3 F:z             1
                        (      11.400 eV)
   109     109       --         2.553 au  Pa            1.00      4 F:z             1
                        (      69.470 eV)
   110     110       --        21.603 au  Pa            1.00      5 F:z             1
                        (     587.835 eV)
   111     111      2.000     -13.085 au  Pa            1.00      1 F:xyz           1
                        (    -356.050 eV)
   112     112      0.286      -0.042 au  Pa            1.00      2 F:xyz           1
                        (      -1.139 eV)
   113     113       --         0.419 au  Pa            1.00      3 F:xyz           1
                        (      11.400 eV)
   114     114       --         2.553 au  Pa            1.00      4 F:xyz           1
                        (      69.470 eV)
   115     115       --        21.603 au  Pa            1.00      5 F:xyz           1
                        (     587.835 eV)
   116     116      2.000     -13.085 au  Pa            1.00      1 F:z2x           1
                        (    -356.050 eV)
   117     117      0.286      -0.042 au  Pa            1.00      2 F:z2x           1
                        (      -1.139 eV)
   118     118       --         0.419 au  Pa            1.00      3 F:z2x           1
                        (      11.400 eV)
   119     119       --         2.553 au  Pa            1.00      4 F:z2x           1
                        (      69.470 eV)
   120     120       --        21.603 au  Pa            1.00      5 F:z2x           1
                        (     587.835 eV)
   121     121      2.000     -13.085 au  Pa            1.00      1 F:z2y           1
                        (    -356.050 eV)
   122     122      0.286      -0.042 au  Pa            1.00      2 F:z2y           1
                        (      -1.139 eV)
   123     123       --         0.419 au  Pa            1.00      3 F:z2y           1
                        (      11.400 eV)
   124     124       --         2.553 au  Pa            1.00      4 F:z2y           1
                        (      69.470 eV)
   125     125       --        21.603 au  Pa            1.00      5 F:z2y           1
                        (     587.835 eV)
   126     126      2.000     -13.085 au  Pa            1.00      1 F:x             1
                        (    -356.050 eV)
   127     127      0.286      -0.042 au  Pa            1.00      2 F:x             1
                        (      -1.139 eV)
   128     128       --         0.419 au  Pa            1.00      3 F:x             1
                        (      11.400 eV)
   129     129       --         2.553 au  Pa            1.00      4 F:x             1
                        (      69.470 eV)
   130     130       --        21.603 au  Pa            1.00      5 F:x             1
                        (     587.835 eV)
   131     131      2.000     -13.085 au  Pa            1.00      1 F:y             1
                        (    -356.050 eV)
   132     132      0.286      -0.042 au  Pa            1.00      2 F:y             1
                        (      -1.139 eV)
   133     133       --         0.419 au  Pa            1.00      3 F:y             1
                        (      11.400 eV)
   134     134       --         2.553 au  Pa            1.00      4 F:y             1
                        (      69.470 eV)
   135     135       --        21.603 au  Pa            1.00      5 F:y             1
                        (     587.835 eV)
   136     136      2.000   -1213.327 au  I             1.00      1 S               2
                        (  -33016.312 eV)
   137     137      2.000    -188.218 au  I             1.00      2 S               2
                        (   -5121.673 eV)
   138     138      2.000     -38.275 au  I             1.00      3 S               2
                        (   -1041.527 eV)
   139     139      2.000      -6.849 au  I             1.00      4 S               2
                        (    -186.371 eV)
   140     140      2.000      -0.694 au  I             1.00      5 S               2
                        (     -18.876 eV)
   141     141       --         0.126 au  I             1.00      6 S               2
                        (       3.419 eV)
   142     142       --         1.386 au  I             1.00      7 S               2
                        (      37.711 eV)
   143     143       --         7.599 au  I             1.00      8 S               2
                        (     206.767 eV)
   144     144       --        44.254 au  I             1.00      9 S               2
                        (    1204.222 eV)
   145     145       --       777.687 au  I             1.00     10 S               2
                        (   21161.933 eV)
   146     146       --      5076.015 au  I             1.00     11 S               2
                        (  138125.396 eV)
   147     147       --     23472.915 au  I             1.00     12 S               2
                        (  638730.513 eV)
   148     148      2.000    -168.897 au  I             1.00      1 P:x             2
                        (   -4595.917 eV)
   149     149      2.000     -32.022 au  I             1.00      2 P:x             2
                        (    -871.352 eV)
   150     150      2.000      -4.868 au  I             1.00      3 P:x             2
                        (    -132.453 eV)
   151     151      1.667      -0.282 au  I             1.00      4 P:x             2
                        (      -7.668 eV)
   152     152       --         0.106 au  I             1.00      5 P:x             2
                        (       2.880 eV)
   153     153       --         0.849 au  I             1.00      6 P:x             2
                        (      23.113 eV)
   154     154       --         4.974 au  I             1.00      7 P:x             2
                        (     135.339 eV)
   155     155       --        31.804 au  I             1.00      8 P:x             2
                        (     865.433 eV)
   156     156       --       299.382 au  I             1.00      9 P:x             2
                        (    8146.602 eV)
   157     157       --      3032.236 au  I             1.00     10 P:x             2
                        (   82511.345 eV)
   158     158      2.000    -168.897 au  I             1.00      1 P:y             2
                        (   -4595.917 eV)
   159     159      2.000     -32.022 au  I             1.00      2 P:y             2
                        (    -871.352 eV)
   160     160      2.000      -4.868 au  I             1.00      3 P:y             2
                        (    -132.453 eV)
   161     161      1.667      -0.282 au  I             1.00      4 P:y             2
                        (      -7.668 eV)
   162     162       --         0.106 au  I             1.00      5 P:y             2
                        (       2.880 eV)
   163     163       --         0.849 au  I             1.00      6 P:y             2
                        (      23.113 eV)
   164     164       --         4.974 au  I             1.00      7 P:y             2
                        (     135.339 eV)
   165     165       --        31.804 au  I             1.00      8 P:y             2
                        (     865.433 eV)
   166     166       --       299.382 au  I             1.00      9 P:y             2
                        (    8146.602 eV)
   167     167       --      3032.236 au  I             1.00     10 P:y             2
                        (   82511.345 eV)
   168     168      2.000    -168.897 au  I             1.00      1 P:z             2
                        (   -4595.917 eV)
   169     169      2.000     -32.022 au  I             1.00      2 P:z             2
                        (    -871.352 eV)
   170     170      2.000      -4.868 au  I             1.00      3 P:z             2
                        (    -132.453 eV)
   171     171      1.667      -0.282 au  I             1.00      4 P:z             2
                        (      -7.668 eV)
   172     172       --         0.106 au  I             1.00      5 P:z             2
                        (       2.880 eV)
   173     173       --         0.849 au  I             1.00      6 P:z             2
                        (      23.113 eV)
   174     174       --         4.974 au  I             1.00      7 P:z             2
                        (     135.339 eV)
   175     175       --        31.804 au  I             1.00      8 P:z             2
                        (     865.433 eV)
   176     176       --       299.382 au  I             1.00      9 P:z             2
                        (    8146.602 eV)
   177     177       --      3032.236 au  I             1.00     10 P:z             2
                        (   82511.345 eV)
   178     178      2.000     -22.606 au  I             1.00      1 D:z2            2
                        (    -615.133 eV)
   179     179      2.000      -1.946 au  I             1.00      2 D:z2            2
                        (     -52.944 eV)
   180     180       --         0.210 au  I             1.00      3 D:z2            2
                        (       5.715 eV)
   181     181       --         1.347 au  I             1.00      4 D:z2            2
                        (      36.649 eV)
   182     182       --         6.163 au  I             1.00      5 D:z2            2
                        (     167.696 eV)
   183     183       --        27.435 au  I             1.00      6 D:z2            2
                        (     746.532 eV)
   184     184       --       144.098 au  I             1.00      7 D:z2            2
                        (    3921.096 eV)
   185     185      2.000     -22.606 au  I             1.00      1 D:x2-y2         2
                        (    -615.133 eV)
   186     186      2.000      -1.946 au  I             1.00      2 D:x2-y2         2
                        (     -52.944 eV)
   187     187       --         0.210 au  I             1.00      3 D:x2-y2         2
                        (       5.715 eV)
   188     188       --         1.347 au  I             1.00      4 D:x2-y2         2
                        (      36.649 eV)
   189     189       --         6.163 au  I             1.00      5 D:x2-y2         2
                        (     167.696 eV)
   190     190       --        27.435 au  I             1.00      6 D:x2-y2         2
                        (     746.532 eV)
   191     191       --       144.098 au  I             1.00      7 D:x2-y2         2
                        (    3921.096 eV)
   192     192      2.000     -22.606 au  I             1.00      1 D:xy            2
                        (    -615.133 eV)
   193     193      2.000      -1.946 au  I             1.00      2 D:xy            2
                        (     -52.944 eV)
   194     194       --         0.210 au  I             1.00      3 D:xy            2
                        (       5.715 eV)
   195     195       --         1.347 au  I             1.00      4 D:xy            2
                        (      36.649 eV)
   196     196       --         6.163 au  I             1.00      5 D:xy            2
                        (     167.696 eV)
   197     197       --        27.435 au  I             1.00      6 D:xy            2
                        (     746.532 eV)
   198     198       --       144.098 au  I             1.00      7 D:xy            2
                        (    3921.096 eV)
   199     199      2.000     -22.606 au  I             1.00      1 D:xz            2
                        (    -615.133 eV)
   200     200      2.000      -1.946 au  I             1.00      2 D:xz            2
                        (     -52.944 eV)
   201     201       --         0.210 au  I             1.00      3 D:xz            2
                        (       5.715 eV)
   202     202       --         1.347 au  I             1.00      4 D:xz            2
                        (      36.649 eV)
   203     203       --         6.163 au  I             1.00      5 D:xz            2
                        (     167.696 eV)
   204     204       --        27.435 au  I             1.00      6 D:xz            2
                        (     746.532 eV)
   205     205       --       144.098 au  I             1.00      7 D:xz            2
                        (    3921.096 eV)
   206     206      2.000     -22.606 au  I             1.00      1 D:yz            2
                        (    -615.133 eV)
   207     207      2.000      -1.946 au  I             1.00      2 D:yz            2
                        (     -52.944 eV)
   208     208       --         0.210 au  I             1.00      3 D:yz            2
                        (       5.715 eV)
   209     209       --         1.347 au  I             1.00      4 D:yz            2
                        (      36.649 eV)
   210     210       --         6.163 au  I             1.00      5 D:yz            2
                        (     167.696 eV)
   211     211       --        27.435 au  I             1.00      6 D:yz            2
                        (     746.532 eV)
   212     212       --       144.098 au  I             1.00      7 D:yz            2
                        (    3921.096 eV)
   213     213       --         0.736 au  I             1.00      1 F:z3            2
                        (      20.026 eV)
   214     214       --         0.736 au  I             1.00      1 F:z             2
                        (      20.026 eV)
   215     215       --         0.736 au  I             1.00      1 F:xyz           2
                        (      20.026 eV)
   216     216       --         0.736 au  I             1.00      1 F:z2x           2
                        (      20.026 eV)
   217     217       --         0.736 au  I             1.00      1 F:z2y           2
                        (      20.026 eV)
   218     218       --         0.736 au  I             1.00      1 F:x             2
                        (      20.026 eV)
   219     219       --         0.736 au  I             1.00      1 F:y             2
                        (      20.026 eV)
   220     220      1.000      -0.244 au  H             1.00      1 S               3
                        (      -6.641 eV)
   221     221       --         0.104 au  H             1.00      2 S               3
                        (       2.836 eV)
   222     222       --         1.564 au  H             1.00      3 S               3
                        (      42.560 eV)
   223     223       --         0.436 au  H             1.00      1 P:x             3
                        (      11.864 eV)
   224     224       --         0.436 au  H             1.00      1 P:y             3
                        (      11.864 eV)
   225     225       --         0.436 au  H             1.00      1 P:z             3
                        (      11.864 eV)
   226     226       --         2.617 au  H             1.00      1 D:z2            3
                        (      71.221 eV)
   227     227       --         2.617 au  H             1.00      1 D:x2-y2         3
                        (      71.221 eV)
   228     228       --         2.617 au  H             1.00      1 D:xy            3
                        (      71.221 eV)
   229     229       --         2.617 au  H             1.00      1 D:xz            3
                        (      71.221 eV)
   230     230       --         2.617 au  H             1.00      1 D:yz            3
                        (      71.221 eV)
   231     231      1.000      -0.244 au  H             1.00      1 S               4
                        (      -6.641 eV)
   232     232       --         0.104 au  H             1.00      2 S               4
                        (       2.836 eV)
   233     233       --         1.564 au  H             1.00      3 S               4
                        (      42.560 eV)
   234     234       --         0.436 au  H             1.00      1 P:x             4
                        (      11.864 eV)
   235     235       --         0.436 au  H             1.00      1 P:y             4
                        (      11.864 eV)
   236     236       --         0.436 au  H             1.00      1 P:z             4
                        (      11.864 eV)
   237     237       --         2.617 au  H             1.00      1 D:z2            4
                        (      71.221 eV)
   238     238       --         2.617 au  H             1.00      1 D:x2-y2         4
                        (      71.221 eV)
   239     239       --         2.617 au  H             1.00      1 D:xy            4
                        (      71.221 eV)
   240     240       --         2.617 au  H             1.00      1 D:xz            4
                        (      71.221 eV)
   241     241       --         2.617 au  H             1.00      1 D:yz            4
                        (      71.221 eV)
   242     242      1.000      -0.244 au  H             1.00      1 S               5
                        (      -6.641 eV)
   243     243       --         0.104 au  H             1.00      2 S               5
                        (       2.836 eV)
   244     244       --         1.564 au  H             1.00      3 S               5
                        (      42.560 eV)
   245     245       --         0.436 au  H             1.00      1 P:x             5
                        (      11.864 eV)
   246     246       --         0.436 au  H             1.00      1 P:y             5
                        (      11.864 eV)
   247     247       --         0.436 au  H             1.00      1 P:z             5
                        (      11.864 eV)
   248     248       --         2.617 au  H             1.00      1 D:z2            5
                        (      71.221 eV)
   249     249       --         2.617 au  H             1.00      1 D:x2-y2         5
                        (      71.221 eV)
   250     250       --         2.617 au  H             1.00      1 D:xy            5
                        (      71.221 eV)
   251     251       --         2.617 au  H             1.00      1 D:xz            5
                        (      71.221 eV)
   252     252       --         2.617 au  H             1.00      1 D:yz            5
                        (      71.221 eV)
   253     253      1.000      -0.244 au  H             1.00      1 S               6
                        (      -6.641 eV)
   254     254       --         0.104 au  H             1.00      2 S               6
                        (       2.836 eV)
   255     255       --         1.564 au  H             1.00      3 S               6
                        (      42.560 eV)
   256     256       --         0.436 au  H             1.00      1 P:x             6
                        (      11.864 eV)
   257     257       --         0.436 au  H             1.00      1 P:y             6
                        (      11.864 eV)
   258     258       --         0.436 au  H             1.00      1 P:z             6
                        (      11.864 eV)
   259     259       --         2.617 au  H             1.00      1 D:z2            6
                        (      71.221 eV)
   260     260       --         2.617 au  H             1.00      1 D:x2-y2         6
                        (      71.221 eV)
   261     261       --         2.617 au  H             1.00      1 D:xy            6
                        (      71.221 eV)
   262     262       --         2.617 au  H             1.00      1 D:xz            6
                        (      71.221 eV)
   263     263       --         2.617 au  H             1.00      1 D:yz            6
                        (      71.221 eV)
   264     264      2.000     -19.315 au  O             1.00      1 S               7
                        (    -525.599 eV)
   265     265      2.000      -0.972 au  O             1.00      2 S               7
                        (     -26.457 eV)
   266     266       --         0.838 au  O             1.00      3 S               7
                        (      22.795 eV)
   267     267       --        13.598 au  O             1.00      4 S               7
                        (     370.019 eV)
   268     268       --       122.184 au  O             1.00      5 S               7
                        (    3324.790 eV)
   269     269      1.333      -0.361 au  O             1.00      1 P:x             7
                        (      -9.818 eV)
   270     270       --         0.380 au  O             1.00      2 P:x             7
                        (      10.337 eV)
   271     271       --         3.931 au  O             1.00      3 P:x             7
                        (     106.958 eV)
   272     272      1.333      -0.361 au  O             1.00      1 P:y             7
                        (      -9.818 eV)
   273     273       --         0.380 au  O             1.00      2 P:y             7
                        (      10.337 eV)
   274     274       --         3.931 au  O             1.00      3 P:y             7
                        (     106.958 eV)
   275     275      1.333      -0.361 au  O             1.00      1 P:z             7
                        (      -9.818 eV)
   276     276       --         0.380 au  O             1.00      2 P:z             7
                        (      10.337 eV)
   277     277       --         3.931 au  O             1.00      3 P:z             7
                        (     106.958 eV)
   278     278       --         1.117 au  O             1.00      1 D:z2            7
                        (      30.399 eV)
   279     279       --         1.117 au  O             1.00      1 D:x2-y2         7
                        (      30.399 eV)
   280     280       --         1.117 au  O             1.00      1 D:xy            7
                        (      30.399 eV)
   281     281       --         1.117 au  O             1.00      1 D:xz            7
                        (      30.399 eV)
   282     282       --         1.117 au  O             1.00      1 D:yz            7
                        (      30.399 eV)
   283     283       --         3.432 au  O             1.00      1 F:z3            7
                        (      93.382 eV)
   284     284       --         3.432 au  O             1.00      1 F:z             7
                        (      93.382 eV)
   285     285       --         3.432 au  O             1.00      1 F:xyz           7
                        (      93.382 eV)
   286     286       --         3.432 au  O             1.00      1 F:z2x           7
                        (      93.382 eV)
   287     287       --         3.432 au  O             1.00      1 F:z2y           7
                        (      93.382 eV)
   288     288       --         3.432 au  O             1.00      1 F:x             7
                        (      93.382 eV)
   289     289       --         3.432 au  O             1.00      1 F:y             7
                        (      93.382 eV)
   290     290      2.000     -19.315 au  O             1.00      1 S               8
                        (    -525.599 eV)
   291     291      2.000      -0.972 au  O             1.00      2 S               8
                        (     -26.457 eV)
   292     292       --         0.838 au  O             1.00      3 S               8
                        (      22.795 eV)
   293     293       --        13.598 au  O             1.00      4 S               8
                        (     370.019 eV)
   294     294       --       122.184 au  O             1.00      5 S               8
                        (    3324.790 eV)
   295     295      1.333      -0.361 au  O             1.00      1 P:x             8
                        (      -9.818 eV)
   296     296       --         0.380 au  O             1.00      2 P:x             8
                        (      10.337 eV)
   297     297       --         3.931 au  O             1.00      3 P:x             8
                        (     106.958 eV)
   298     298      1.333      -0.361 au  O             1.00      1 P:y             8
                        (      -9.818 eV)
   299     299       --         0.380 au  O             1.00      2 P:y             8
                        (      10.337 eV)
   300     300       --         3.931 au  O             1.00      3 P:y             8
                        (     106.958 eV)
   301     301      1.333      -0.361 au  O             1.00      1 P:z             8
                        (      -9.818 eV)
   302     302       --         0.380 au  O             1.00      2 P:z             8
                        (      10.337 eV)
   303     303       --         3.931 au  O             1.00      3 P:z             8
                        (     106.958 eV)
   304     304       --         1.117 au  O             1.00      1 D:z2            8
                        (      30.399 eV)
   305     305       --         1.117 au  O             1.00      1 D:x2-y2         8
                        (      30.399 eV)
   306     306       --         1.117 au  O             1.00      1 D:xy            8
                        (      30.399 eV)
   307     307       --         1.117 au  O             1.00      1 D:xz            8
                        (      30.399 eV)
   308     308       --         1.117 au  O             1.00      1 D:yz            8
                        (      30.399 eV)
   309     309       --         3.432 au  O             1.00      1 F:z3            8
                        (      93.382 eV)
   310     310       --         3.432 au  O             1.00      1 F:z             8
                        (      93.382 eV)
   311     311       --         3.432 au  O             1.00      1 F:xyz           8
                        (      93.382 eV)
   312     312       --         3.432 au  O             1.00      1 F:z2x           8
                        (      93.382 eV)
   313     313       --         3.432 au  O             1.00      1 F:z2y           8
                        (      93.382 eV)
   314     314       --         3.432 au  O             1.00      1 F:x             8
                        (      93.382 eV)
   315     315       --         3.432 au  O             1.00      1 F:y             8
                        (      93.382 eV)
   316     316      2.000     -19.315 au  O             1.00      1 S               9
                        (    -525.599 eV)
   317     317      2.000      -0.972 au  O             1.00      2 S               9
                        (     -26.457 eV)
   318     318       --         0.838 au  O             1.00      3 S               9
                        (      22.795 eV)
   319     319       --        13.598 au  O             1.00      4 S               9
                        (     370.019 eV)
   320     320       --       122.184 au  O             1.00      5 S               9
                        (    3324.790 eV)
   321     321      1.333      -0.361 au  O             1.00      1 P:x             9
                        (      -9.818 eV)
   322     322       --         0.380 au  O             1.00      2 P:x             9
                        (      10.337 eV)
   323     323       --         3.931 au  O             1.00      3 P:x             9
                        (     106.958 eV)
   324     324      1.333      -0.361 au  O             1.00      1 P:y             9
                        (      -9.818 eV)
   325     325       --         0.380 au  O             1.00      2 P:y             9
                        (      10.337 eV)
   326     326       --         3.931 au  O             1.00      3 P:y             9
                        (     106.958 eV)
   327     327      1.333      -0.361 au  O             1.00      1 P:z             9
                        (      -9.818 eV)
   328     328       --         0.380 au  O             1.00      2 P:z             9
                        (      10.337 eV)
   329     329       --         3.931 au  O             1.00      3 P:z             9
                        (     106.958 eV)
   330     330       --         1.117 au  O             1.00      1 D:z2            9
                        (      30.399 eV)
   331     331       --         1.117 au  O             1.00      1 D:x2-y2         9
                        (      30.399 eV)
   332     332       --         1.117 au  O             1.00      1 D:xy            9
                        (      30.399 eV)
   333     333       --         1.117 au  O             1.00      1 D:xz            9
                        (      30.399 eV)
   334     334       --         1.117 au  O             1.00      1 D:yz            9
                        (      30.399 eV)
   335     335       --         3.432 au  O             1.00      1 F:z3            9
                        (      93.382 eV)
   336     336       --         3.432 au  O             1.00      1 F:z             9
                        (      93.382 eV)
   337     337       --         3.432 au  O             1.00      1 F:xyz           9
                        (      93.382 eV)
   338     338       --         3.432 au  O             1.00      1 F:z2x           9
                        (      93.382 eV)
   339     339       --         3.432 au  O             1.00      1 F:z2y           9
                        (      93.382 eV)
   340     340       --         3.432 au  O             1.00      1 F:x             9
                        (      93.382 eV)
   341     341       --         3.432 au  O             1.00      1 F:y             9
                        (      93.382 eV)
   342     342      2.000     -19.315 au  O             1.00      1 S              10
                        (    -525.599 eV)
   343     343      2.000      -0.972 au  O             1.00      2 S              10
                        (     -26.457 eV)
   344     344       --         0.838 au  O             1.00      3 S              10
                        (      22.795 eV)
   345     345       --        13.598 au  O             1.00      4 S              10
                        (     370.019 eV)
   346     346       --       122.184 au  O             1.00      5 S              10
                        (    3324.790 eV)
   347     347      1.333      -0.361 au  O             1.00      1 P:x            10
                        (      -9.818 eV)
   348     348       --         0.380 au  O             1.00      2 P:x            10
                        (      10.337 eV)
   349     349       --         3.931 au  O             1.00      3 P:x            10
                        (     106.958 eV)
   350     350      1.333      -0.361 au  O             1.00      1 P:y            10
                        (      -9.818 eV)
   351     351       --         0.380 au  O             1.00      2 P:y            10
                        (      10.337 eV)
   352     352       --         3.931 au  O             1.00      3 P:y            10
                        (     106.958 eV)
   353     353      1.333      -0.361 au  O             1.00      1 P:z            10
                        (      -9.818 eV)
   354     354       --         0.380 au  O             1.00      2 P:z            10
                        (      10.337 eV)
   355     355       --         3.931 au  O             1.00      3 P:z            10
                        (     106.958 eV)
   356     356       --         1.117 au  O             1.00      1 D:z2           10
                        (      30.399 eV)
   357     357       --         1.117 au  O             1.00      1 D:x2-y2        10
                        (      30.399 eV)
   358     358       --         1.117 au  O             1.00      1 D:xy           10
                        (      30.399 eV)
   359     359       --         1.117 au  O             1.00      1 D:xz           10
                        (      30.399 eV)
   360     360       --         1.117 au  O             1.00      1 D:yz           10
                        (      30.399 eV)
   361     361       --         3.432 au  O             1.00      1 F:z3           10
                        (      93.382 eV)
   362     362       --         3.432 au  O             1.00      1 F:z            10
                        (      93.382 eV)
   363     363       --         3.432 au  O             1.00      1 F:xyz          10
                        (      93.382 eV)
   364     364       --         3.432 au  O             1.00      1 F:z2x          10
                        (      93.382 eV)
   365     365       --         3.432 au  O             1.00      1 F:z2y          10
                        (      93.382 eV)
   366     366       --         3.432 au  O             1.00      1 F:x            10
                        (      93.382 eV)
   367     367       --         3.432 au  O             1.00      1 F:y            10
                        (      93.382 eV)



 ================================
 (Slater-type)  F U N C T I O N S  ***  (Basis and Fit)  ***
 ================================
  

 Atom Type    1  (Pa)
 ==============

 Valence Basis Sets:  43
 -----------------------
   1 S 1028.000000
   1 S  240.000000
   1 S  107.000000
   2 S  131.500000
   2 S   46.500000
   3 S   59.100000
   3 S   25.450000
   4 S   15.550000
   4 S   11.050000
   5 S   10.200000
   5 S    7.100000
   6 S    4.950000
   6 S    3.250000
   7 S    2.350000
   7 S    1.550000
   7 S    1.020000
   2 P  240.000000
   2 P   84.000000
   2 P   43.600000
   3 P   24.750000
   3 P   17.850000
   4 P   17.650000
   4 P   12.100000
   5 P    8.500000
   5 P    5.900000
   6 P    4.400000
   6 P    3.000000
   6 P    2.100000
   3 D   33.750000
   3 D   21.750000
   4 D   15.300000
   4 D   10.450000
   5 D    7.150000
   5 D    4.600000
   6 D    3.000000
   6 D    1.700000
   6 D    0.980000
   4 F   17.100000
   4 F    9.350000
   5 F    5.850000
   5 F    3.150000
   5 F    1.550000
   7 P    1.550000

 Charge Fitting Sets (for the computation of the Coulomb Potential):  87
 -----------------------------------------------------------------------
   1 S 2056.000000
   1 S 1549.519000
   1 S 1167.806000
   1 S  880.126000
   1 S  663.313000
   1 S  499.911000
   1 S  376.761000
   1 S  283.949000
   1 S  214.000000
   1 S  127.280000
   2 S  140.220000
   2 S   93.850000
   3 S   92.230000
   3 S   65.710000
   4 S   61.900000
   4 S   45.910000
   5 S   42.420000
   5 S   32.370000
   6 S   29.610000
   6 S   23.090000
   7 S   21.000000
   7 S   16.670000
   8 S   15.120000
   8 S   12.170000
   9 S   11.020000
   9 S    8.970000
  10 S    8.120000
  10 S    6.680000
  11 S    6.050000
  11 S    5.020000
  12 S    4.550000
  12 S    3.800000
  12 S    3.180000
  13 S    2.880000
  13 S    2.420000
  13 S    2.040000
   2 P  150.600000
   3 P  125.870000
   4 P  103.260000
   5 P   84.350000
   6 P   68.960000
   7 P   56.560000
   7 P   40.600000
   8 P   33.430000
   8 P   24.490000
   9 P   20.250000
   9 P   15.090000
  10 P   12.530000
  10 P    9.470000
  11 P    7.900000
  11 P    6.040000
  12 P    5.060000
  12 P    3.910000
  13 P    3.290000
  13 P    2.570000
   3 D  128.750000
   4 D   91.090000
   5 D   65.210000
   6 D   47.270000
   7 D   34.690000
   8 D   25.740000
   9 D   19.290000
   9 D   13.060000
  10 D    9.880000
  10 D    6.820000
  11 D    5.210000
  11 D    3.650000
  12 D    2.810000
  12 D    2.000000
   4 F  116.350000
   5 F   72.360000
   6 F   46.140000
   7 F   30.070000
   8 F   19.970000
   9 F   13.480000
  10 F    9.240000
  10 F    5.790000
  11 F    4.020000
  11 F    2.570000
   5 G   52.950000
   6 G   31.380000
   7 G   19.110000
   8 G   11.920000
   9 G    7.580000
  10 G    4.910000
  11 G    3.230000
  11 G    1.960000

 Atom Type    2  (I)
 ==============

 Valence Basis Sets:  30
 -----------------------
   1 S  381.000000
   1 S   95.600000
   1 S   53.900000
   2 S   61.350000
   2 S   23.200000
   3 S   12.250000
   3 S    8.500000
   4 S    8.550000
   4 S    5.450000
   5 S    3.800000
   5 S    2.500000
   5 S    1.690000
   2 P   95.600000
   2 P   35.200000
   2 P   22.300000
   3 P   13.200000
   3 P    9.900000
   4 P    7.000000
   4 P    4.600000
   5 P    3.100000
   5 P    1.900000
   5 P    1.190000
   3 D   21.700000
   3 D   13.150000
   3 D    9.000000
   4 D    6.800000
   4 D    4.350000
   4 D    2.850000
   5 D    1.900000
   4 F    2.000000

 Charge Fitting Sets (for the computation of the Coulomb Potential):  63
 -----------------------------------------------------------------------
   1 S  762.000000
   1 S  550.046000
   1 S  397.048000
   1 S  286.607000
   1 S  206.886000
   1 S  149.340000
   1 S  107.800000
   1 S   64.040000
   2 S   70.470000
   2 S   47.120000
   3 S   46.270000
   3 S   32.940000
   4 S   31.010000
   4 S   22.980000
   5 S   21.220000
   5 S   16.190000
   6 S   14.790000
   6 S   11.530000
   7 S   10.480000
   7 S    8.310000
   8 S    7.540000
   8 S    6.060000
   8 S    4.880000
   9 S    4.410000
   9 S    3.590000
   9 S    2.920000
   9 S    2.380000
   2 P   76.200000
   3 P   61.940000
   4 P   49.610000
   5 P   39.670000
   5 P   26.390000
   6 P   21.160000
   6 P   14.550000
   7 P   11.720000
   7 P    8.270000
   8 P    6.690000
   8 P    4.820000
   9 P    3.930000
   9 P    2.880000
   3 D   67.050000
   4 D   49.160000
   5 D   36.330000
   6 D   27.110000
   6 D   17.390000
   7 D   13.110000
   7 D    8.670000
   8 D    6.600000
   8 D    4.480000
   9 D    3.430000
   9 D    2.380000
   4 F   55.900000
   5 F   35.580000
   6 F   23.180000
   7 F   15.410000
   7 F    9.020000
   8 F    6.100000
   8 F    3.690000
   5 G   26.300000
   6 G   15.440000
   7 G    9.320000
   8 G    5.760000
   8 G    3.190000

 Atom Type    3  (H)
 ==============

 Valence Basis Sets:   5
 -----------------------
   1 S    0.690000
   1 S    0.920000
   1 S    1.580000
   2 P    1.250000
   3 D    2.500000

 Charge Fitting Sets (for the computation of the Coulomb Potential):  11
 -----------------------------------------------------------------------
   1 S    3.160000
   1 S    2.090000
   1 S    1.380000
   2 S    1.500000
   2 P    4.000000
   2 P    2.650000
   2 P    1.750000
   3 D    4.000000
   3 D    2.500000
   4 F    3.000000
   5 G    4.000000

 Atom Type    4  (O)
 ==============

 Valence Basis Sets:  10
 -----------------------
   1 S    9.800000
   1 S    6.800000
   2 S    7.580000
   2 S    2.880000
   2 S    1.720000
   2 P    4.080000
   2 P    2.080000
   2 P    1.120000
   3 D    2.000000
   4 F    3.000000

 Charge Fitting Sets (for the computation of the Coulomb Potential):  22
 -----------------------------------------------------------------------
   1 S   19.600000
   2 S   22.600000
   2 S   15.680000
   2 S   10.890000
   2 S    7.560000
   3 S    7.690000
   3 S    5.650000
   3 S    4.150000
   3 S    3.050000
   3 S    2.240000
   2 P   12.860000
   2 P    7.680000
   3 P    6.780000
   3 P    4.390000
   3 P    2.840000
   3 D    8.800000
   3 D    5.580000
   3 D    3.530000
   3 D    2.240000
   4 F    6.200000
   4 F    3.700000
   5 G    4.500000


 BAS: List of all Elementary Cartesian Basis Functions
 =====================================================

 The numbering in the list below (to the right of the function characteristics) is referred
 to in print-outs of MO eigenvectors and Mulliken populations in the BAS representation
 (as contrasted to the SFO representation).

 Notes:
 1. The functions are characterized by a polynomial prefactor (powers of x,y,z and r) and
    an exponential decay factor alpha.
 2. Since the basis sets are specific for an atom TYPE, the individual functions occur on
    all atoms of that type.
 3. The word 'Core' in the left margin signals that it is a Core Function (CF) : not a
    degree of freedom in the valence set, but only used to ensure orthogonalization of
    the other valence basis functions on the frozen Core Orbitals.


 (power of) X  Y  Z  R     Alpha  on Atom
            ==========     =====     ==========

 Pa                                   1
                                  ---------------------------------------------------------------------------
            0  0  0  0  1028.000      1
            0  0  0  0   240.000      2
            0  0  0  0   107.000      3
            0  0  0  1   131.500      4
            0  0  0  1    46.500      5
            0  0  0  2    59.100      6
            0  0  0  2    25.450      7
            0  0  0  3    15.550      8
            0  0  0  3    11.050      9
            0  0  0  4    10.200     10
            0  0  0  4     7.100     11
            0  0  0  5     4.950     12
            0  0  0  5     3.250     13
            0  0  0  6     2.350     14
            0  0  0  6     1.550     15
            0  0  0  6     1.020     16
            1  0  0  0   240.000     17
            0  1  0  0   240.000     18
            0  0  1  0   240.000     19
            1  0  0  0    84.000     20
            0  1  0  0    84.000     21
            0  0  1  0    84.000     22
            1  0  0  0    43.600     23
            0  1  0  0    43.600     24
            0  0  1  0    43.600     25
            1  0  0  1    24.750     26
            0  1  0  1    24.750     27
            0  0  1  1    24.750     28
            1  0  0  1    17.850     29
            0  1  0  1    17.850     30
            0  0  1  1    17.850     31
            1  0  0  2    17.650     32
            0  1  0  2    17.650     33
            0  0  1  2    17.650     34
            1  0  0  2    12.100     35
            0  1  0  2    12.100     36
            0  0  1  2    12.100     37
            1  0  0  3     8.500     38
            0  1  0  3     8.500     39
            0  0  1  3     8.500     40
            1  0  0  3     5.900     41
            0  1  0  3     5.900     42
            0  0  1  3     5.900     43
            1  0  0  4     4.400     44
            0  1  0  4     4.400     45
            0  0  1  4     4.400     46
            1  0  0  4     3.000     47
            0  1  0  4     3.000     48
            0  0  1  4     3.000     49
            1  0  0  4     2.100     50
            0  1  0  4     2.100     51
            0  0  1  4     2.100     52
            2  0  0  0    33.750     53
            1  1  0  0    33.750     54
            1  0  1  0    33.750     55
            0  2  0  0    33.750     56
            0  1  1  0    33.750     57
            0  0  2  0    33.750     58
            2  0  0  0    21.750     59
            1  1  0  0    21.750     60
            1  0  1  0    21.750     61
            0  2  0  0    21.750     62
            0  1  1  0    21.750     63
            0  0  2  0    21.750     64
            2  0  0  1    15.300     65
            1  1  0  1    15.300     66
            1  0  1  1    15.300     67
            0  2  0  1    15.300     68
            0  1  1  1    15.300     69
            0  0  2  1    15.300     70
            2  0  0  1    10.450     71
            1  1  0  1    10.450     72
            1  0  1  1    10.450     73
            0  2  0  1    10.450     74
            0  1  1  1    10.450     75
            0  0  2  1    10.450     76
            2  0  0  2     7.150     77
            1  1  0  2     7.150     78
            1  0  1  2     7.150     79
            0  2  0  2     7.150     80
            0  1  1  2     7.150     81
            0  0  2  2     7.150     82
            2  0  0  2     4.600     83
            1  1  0  2     4.600     84
            1  0  1  2     4.600     85
            0  2  0  2     4.600     86
            0  1  1  2     4.600     87
            0  0  2  2     4.600     88
            2  0  0  3     3.000     89
            1  1  0  3     3.000     90
            1  0  1  3     3.000     91
            0  2  0  3     3.000     92
            0  1  1  3     3.000     93
            0  0  2  3     3.000     94
            2  0  0  3     1.700     95
            1  1  0  3     1.700     96
            1  0  1  3     1.700     97
            0  2  0  3     1.700     98
            0  1  1  3     1.700     99
            0  0  2  3     1.700    100
            2  0  0  3     0.980    101
            1  1  0  3     0.980    102
            1  0  1  3     0.980    103
            0  2  0  3     0.980    104
            0  1  1  3     0.980    105
            0  0  2  3     0.980    106
            3  0  0  0    17.100    107
            2  1  0  0    17.100    108
            2  0  1  0    17.100    109
            1  2  0  0    17.100    110
            1  1  1  0    17.100    111
            1  0  2  0    17.100    112
            0  3  0  0    17.100    113
            0  2  1  0    17.100    114
            0  1  2  0    17.100    115
            0  0  3  0    17.100    116
            3  0  0  0     9.350    117
            2  1  0  0     9.350    118
            2  0  1  0     9.350    119
            1  2  0  0     9.350    120
            1  1  1  0     9.350    121
            1  0  2  0     9.350    122
            0  3  0  0     9.350    123
            0  2  1  0     9.350    124
            0  1  2  0     9.350    125
            0  0  3  0     9.350    126
            3  0  0  1     5.850    127
            2  1  0  1     5.850    128
            2  0  1  1     5.850    129
            1  2  0  1     5.850    130
            1  1  1  1     5.850    131
            1  0  2  1     5.850    132
            0  3  0  1     5.850    133
            0  2  1  1     5.850    134
            0  1  2  1     5.850    135
            0  0  3  1     5.850    136
            3  0  0  1     3.150    137
            2  1  0  1     3.150    138
            2  0  1  1     3.150    139
            1  2  0  1     3.150    140
            1  1  1  1     3.150    141
            1  0  2  1     3.150    142
            0  3  0  1     3.150    143
            0  2  1  1     3.150    144
            0  1  2  1     3.150    145
            0  0  3  1     3.150    146
            3  0  0  1     1.550    147
            2  1  0  1     1.550    148
            2  0  1  1     1.550    149
            1  2  0  1     1.550    150
            1  1  1  1     1.550    151
            1  0  2  1     1.550    152
            0  3  0  1     1.550    153
            0  2  1  1     1.550    154
            0  1  2  1     1.550    155
            0  0  3  1     1.550    156
            1  0  0  5     1.550    157
            0  1  0  5     1.550    158
            0  0  1  5     1.550    159

 I                                    2
                                  ---------------------------------------------------------------------------
            0  0  0  0   381.000    160
            0  0  0  0    95.600    161
            0  0  0  0    53.900    162
            0  0  0  1    61.350    163
            0  0  0  1    23.200    164
            0  0  0  2    12.250    165
            0  0  0  2     8.500    166
            0  0  0  3     8.550    167
            0  0  0  3     5.450    168
            0  0  0  4     3.800    169
            0  0  0  4     2.500    170
            0  0  0  4     1.690    171
            1  0  0  0    95.600    172
            0  1  0  0    95.600    173
            0  0  1  0    95.600    174
            1  0  0  0    35.200    175
            0  1  0  0    35.200    176
            0  0  1  0    35.200    177
            1  0  0  0    22.300    178
            0  1  0  0    22.300    179
            0  0  1  0    22.300    180
            1  0  0  1    13.200    181
            0  1  0  1    13.200    182
            0  0  1  1    13.200    183
            1  0  0  1     9.900    184
            0  1  0  1     9.900    185
            0  0  1  1     9.900    186
            1  0  0  2     7.000    187
            0  1  0  2     7.000    188
            0  0  1  2     7.000    189
            1  0  0  2     4.600    190
            0  1  0  2     4.600    191
            0  0  1  2     4.600    192
            1  0  0  3     3.100    193
            0  1  0  3     3.100    194
            0  0  1  3     3.100    195
            1  0  0  3     1.900    196
            0  1  0  3     1.900    197
            0  0  1  3     1.900    198
            1  0  0  3     1.190    199
            0  1  0  3     1.190    200
            0  0  1  3     1.190    201
            2  0  0  0    21.700    202
            1  1  0  0    21.700    203
            1  0  1  0    21.700    204
            0  2  0  0    21.700    205
            0  1  1  0    21.700    206
            0  0  2  0    21.700    207
            2  0  0  0    13.150    208
            1  1  0  0    13.150    209
            1  0  1  0    13.150    210
            0  2  0  0    13.150    211
            0  1  1  0    13.150    212
            0  0  2  0    13.150    213
            2  0  0  0     9.000    214
            1  1  0  0     9.000    215
            1  0  1  0     9.000    216
            0  2  0  0     9.000    217
            0  1  1  0     9.000    218
            0  0  2  0     9.000    219
            2  0  0  1     6.800    220
            1  1  0  1     6.800    221
            1  0  1  1     6.800    222
            0  2  0  1     6.800    223
            0  1  1  1     6.800    224
            0  0  2  1     6.800    225
            2  0  0  1     4.350    226
            1  1  0  1     4.350    227
            1  0  1  1     4.350    228
            0  2  0  1     4.350    229
            0  1  1  1     4.350    230
            0  0  2  1     4.350    231
            2  0  0  1     2.850    232
            1  1  0  1     2.850    233
            1  0  1  1     2.850    234
            0  2  0  1     2.850    235
            0  1  1  1     2.850    236
            0  0  2  1     2.850    237
            2  0  0  2     1.900    238
            1  1  0  2     1.900    239
            1  0  1  2     1.900    240
            0  2  0  2     1.900    241
            0  1  1  2     1.900    242
            0  0  2  2     1.900    243
            3  0  0  0     2.000    244
            2  1  0  0     2.000    245
            2  0  1  0     2.000    246
            1  2  0  0     2.000    247
            1  1  1  0     2.000    248
            1  0  2  0     2.000    249
            0  3  0  0     2.000    250
            0  2  1  0     2.000    251
            0  1  2  0     2.000    252
            0  0  3  0     2.000    253

 H                                    3    4    5    6
[...]
     451       82.2351         0.000       
     450       81.6896         0.000       
     449       81.6896         0.000       
     448       77.9093         0.000       
     447       77.9093         0.000       
     446       77.0138         0.000       
     445       77.0138         0.000       
     444       76.5256         0.000       
     443       76.5256         0.000       
     442       76.3332         0.000       
     441       76.3332         0.000       
     440       74.8115         0.000       
     439       74.8115         0.000       
     438       74.6267         0.000       
     437       74.6267         0.000       
     436       73.6028         0.000       
     435       73.6028         0.000       
     434       73.5488         0.000       
     433       73.5488         0.000       
     432       73.4920         0.000       
     431       73.4920         0.000       
     430       72.0230         0.000       
     429       72.0230         0.000       
     428       71.7584         0.000       
     427       71.7584         0.000       
     426       71.5879         0.000       
     425       71.5879         0.000       
     424       70.9931         0.000       
     423       70.9931         0.000       
     422       69.9976         0.000       
     421       69.9976         0.000       
     420       69.4975         0.000       
     419       69.4975         0.000       
     418       63.8655         0.000       
     417       63.8655         0.000       
     416       60.9431         0.000       
     415       60.9431         0.000       
     414       60.7592         0.000       
     413       60.7592         0.000       
     412       58.8211         0.000       
     411       58.8211         0.000       
     410       55.1022         0.000       
     409       55.1022         0.000       
     408       54.9142         0.000       
     407       54.9142         0.000       
     406       53.6855         0.000       
     405       53.6855         0.000       
     404       53.4397         0.000       
     403       53.4397         0.000       
     402       52.6421         0.000       
     401       52.6421         0.000       
     400       52.3061         0.000       
     399       52.3061         0.000       
     398       51.0185         0.000       
     397       51.0185         0.000       
     396       48.8534         0.000       
     395       48.8534         0.000       
     394       47.6828         0.000       
     393       47.6828         0.000       
     392       47.6384         0.000       
     391       47.6384         0.000       
     390       47.4264         0.000       
     389       47.4264         0.000       
     388       46.8962         0.000       
     387       46.8962         0.000       
     386       45.8923         0.000       
     385       45.8923         0.000       
     384       43.9508         0.000       
     383       43.9508         0.000       
     382       43.8111         0.000       
     381       43.8111         0.000       
     380       43.5121         0.000       
     379       43.5121         0.000       
     378       40.4910         0.000       
     377       40.4910         0.000       
     376       40.4052         0.000       
     375       40.4052         0.000       
     374       40.0987         0.000       
     373       40.0987         0.000       
     372       38.5800         0.000       
     371       38.5800         0.000       
     370       38.3836         0.000       
     369       38.3836         0.000       
     368       37.6236         0.000       
     367       37.6236         0.000       
     366       37.0652         0.000       
     365       37.0652         0.000       
     364       36.8795         0.000       
     363       36.8795         0.000       
     362       36.6194         0.000       
     361       36.6194         0.000       
     360       36.2851         0.000       
     359       36.2851         0.000       
     358       36.0744         0.000       
     357       36.0744         0.000       
     356       35.6671         0.000       
     355       35.6671         0.000       
     354       35.4729         0.000       
     353       35.4729         0.000       
     352       35.0999         0.000       
     351       35.0999         0.000       
     350       34.9293         0.000       
     349       34.9293         0.000       
     348       34.4830         0.000       
     347       34.4830         0.000       
     346       33.9883         0.000       
     345       33.9883         0.000       
     344       33.8021         0.000       
     343       33.8021         0.000       
     342       31.7759         0.000       
     341       31.7759         0.000       
     340       31.2600         0.000       
     339       31.2600         0.000       
     338       30.6660         0.000       
     337       30.6660         0.000       
     336       30.2906         0.000       
     335       30.2906         0.000       
     334       30.1624         0.000       
     333       30.1624         0.000       
     332       29.5452         0.000       
     331       29.5452         0.000       
     330       28.5088         0.000       
     329       28.5088         0.000       
     328       27.2049         0.000       
     327       27.2049         0.000       
     326       26.9649         0.000       
     325       26.9649         0.000       
     324       26.4436         0.000       
     323       26.4436         0.000       
     322       26.0657         0.000       
     321       26.0657         0.000       
     320       24.9543         0.000       
     319       24.9543         0.000       
     318       23.5612         0.000       
     317       23.5612         0.000       
     316       23.4784         0.000       
     315       23.4784         0.000       
     314       23.2107         0.000       
     313       23.2107         0.000       
     312       22.5164         0.000       
     311       22.5164         0.000       
     310       22.4543         0.000       
     309       22.4543         0.000       
     308       21.8443         0.000       
     307       21.8443         0.000       
     306       21.8013         0.000       
     305       21.8013         0.000       
     304       20.0834         0.000       
     303       20.0834         0.000       
     302       19.6678         0.000       
     301       19.6678         0.000       
     300       19.1426         0.000       
     299       19.1426         0.000       
     298       17.5447         0.000       
     297       17.5447         0.000       
     296       17.3553         0.000       
     295       17.3553         0.000       
     294       17.1562         0.000       
     293       17.1562         0.000       
     292       16.4696         0.000       
     291       16.4696         0.000       
     290       15.8674         0.000       
     289       15.8674         0.000       
     288       15.7791         0.000       
     287       15.7791         0.000       
     286       15.6323         0.000       
     285       15.6323         0.000       
     284       15.4386         0.000       
     283       15.4386         0.000       
     282       15.3094         0.000       
     281       15.3094         0.000       
     280       15.2937         0.000       
     279       15.2937         0.000       
     278       15.0082         0.000       
     277       15.0082         0.000       
     276       14.5195         0.000       
     275       14.5195         0.000       
     274       14.1250         0.000       
     273       14.1250         0.000       
     272       13.4522         0.000       
     271       13.4522         0.000       
     270       13.3453         0.000       
     269       13.3453         0.000       
     268       13.2353         0.000       
     267       13.2353         0.000       
     266       12.8935         0.000       
     265       12.8935         0.000       
     264       12.7871         0.000       
     263       12.7871         0.000       
     262       12.7055         0.000       
     261       12.7055         0.000       
     260       12.0963         0.000       
     259       12.0963         0.000       
     258       11.5224         0.000       
     257       11.5224         0.000       
     256       10.5200         0.000       
     255       10.5200         0.000       
     254        9.5604         0.000       
     253        9.5604         0.000       
     252        9.3902         0.000       
     251        9.3902         0.000       
     250        9.2961         0.000       
     249        9.2961         0.000       
     248        8.5269         0.000       
     247        8.5269         0.000       
     246        8.3945         0.000       
     245        8.3945         0.000       
     244        7.9115         0.000       
     243        7.9115         0.000       
     242        7.0321         0.000       
     241        7.0321         0.000       
     240        6.9722         0.000       
     239        6.9722         0.000       
     238        5.7347         0.000       
     237        5.7347         0.000       
     236        5.5960         0.000       
     235        5.5960         0.000       
     234        5.5037         0.000       
     233        5.5037         0.000       
     232        4.6283         0.000       
     231        4.6283         0.000       
     230        4.3526         0.000       
     229        4.3526         0.000       
     228        4.1733         0.000       
     227        4.1733         0.000       
     226        3.9017         0.000       
     225        3.9017         0.000       
     224        3.3012         0.000       
     223        3.3012         0.000       
     222        2.8315         0.000       
     221        2.8315         0.000       
     220        2.7509         0.000       
     219        2.7509         0.000       
     218        2.6019         0.000       
     217        2.6019         0.000       
     216        2.3442         0.000       
     215        2.3442         0.000       
     214        2.3222         0.000       
     213        2.3222         0.000       
     212        1.7495         0.000       
     211        1.7495         0.000       
     210        1.3952         0.000       
     209        1.3952         0.000       
     208        1.2972         0.000       
     207        1.2972         0.000       
     206        0.8801         0.000       
     205        0.8801         0.000       
     204        0.6901         0.000       
     203        0.6901         0.000       
     202        0.3539         0.000       
     201        0.3539         0.000       
     200        0.3147         0.000       
     199        0.3147         0.000       
     198        0.3068         0.000       
     197        0.3068         0.000       
     196       -0.5042         0.000       
     195       -0.5042         0.000       
     194       -1.7549         0.000       
     193       -1.7549         0.000       
     192       -1.9142         0.000       
     191       -1.9142         0.000       
     190       -1.9781         0.000       
     189       -1.9781         0.000       
     188       -2.2496         0.000       
     187       -2.2496         0.000       
     186       -2.5286         0.000       
     185       -2.5286         0.000       
     184       -2.8389         0.000       
     183       -2.8389         0.000       
     182       -2.8859         0.000       
     181       -2.8859         0.000 < LUMO
     180       -6.2124         1.000 < HOMO
     179       -6.2124         1.000       
     178       -6.6004         1.000       
     177       -6.6004         1.000       
     176       -7.4751         1.000       
     175       -7.4751         1.000       
     174       -8.7935         1.000       
     173       -8.7935         1.000       
     172       -8.9241         1.000       
     171       -8.9241         1.000       
     170       -9.1596         1.000       
     169       -9.1596         1.000       
     168       -9.3690         1.000       
     167       -9.3690         1.000       
     166       -9.5091         1.000       
     165       -9.5091         1.000       
     164       -9.6586         1.000       
     163       -9.6586         1.000       
     162      -10.2158         1.000       
     161      -10.2158         1.000       
     160      -10.2534         1.000       
     159      -10.2534         1.000       
     158      -12.8625         1.000       
     157      -12.8625         1.000       
     156      -13.0483         1.000       
     155      -13.0483         1.000       
     154      -13.6616         1.000       
     153      -13.6616         1.000       
     152      -14.4958         1.000       
     151      -14.4958         1.000       
     150      -17.3557         1.000       
     149      -17.3557         1.000       
     148      -22.6827         1.000       
     147      -22.6827         1.000       
     146      -22.7837         1.000       
     145      -22.7837         1.000       
     144      -26.1397         1.000       
     143      -26.1397         1.000       
     142      -26.7875         1.000       
     141      -26.7875         1.000       
     140      -27.7593         1.000       
     139      -27.7593         1.000       
     138      -28.0347         1.000       
     137      -28.0347         1.000       
     136      -32.3764         1.000       
     135      -32.3764         1.000       
     134      -50.0617         1.000       
     133      -50.0617         1.000       
     132      -50.1222         1.000       
     131      -50.1222         1.000       
     130      -50.1647         1.000       
     129      -50.1647         1.000       
     128      -50.1985         1.000       
     127      -50.1985         1.000       
     126      -51.8777         1.000       
     125      -51.8777         1.000       
     124      -51.9312         1.000       
     123      -51.9312         1.000       
     122      -96.7712         1.000       
     121      -96.7712         1.000       
     120      -96.8065         1.000       
     119      -96.8065         1.000       
     118      -96.8610         1.000       
     117      -96.8610         1.000       
     116     -104.2063         1.000       
     115     -104.2063         1.000       
     114     -104.2594         1.000       
     113     -104.2594         1.000       
     112     -126.9779         1.000       
     111     -126.9779         1.000       
     110     -127.0142         1.000       
     109     -127.0142         1.000       
     108     -137.9045         1.000       
     107     -137.9045         1.000       
     106     -184.2239         1.000       
     105     -184.2239         1.000       
     104     -193.7533         1.000       
     103     -193.7533         1.000       
     102     -193.8232         1.000       
     101     -193.8232         1.000       
     100     -242.1013         1.000       
      99     -242.1013         1.000       
      98     -304.2214         1.000       
      97     -304.2214         1.000       
      96     -354.7455         1.000       
      95     -354.7455         1.000       
      94     -354.7652         1.000       
      93     -354.7652         1.000       
      92     -354.7919         1.000       
      91     -354.7919         1.000       
      90     -354.8001         1.000       
      89     -354.8001         1.000       
      88     -364.5072         1.000       
      87     -364.5072         1.000       
      86     -364.5351         1.000       
      85     -364.5351         1.000       
      84     -364.5518         1.000       
      83     -364.5518         1.000       
      82     -520.9848         1.000       
      81     -520.9848         1.000       
      80     -521.0637         1.000       
      79     -521.0637         1.000       
      78     -521.0675         1.000       
      77     -521.0675         1.000       
      76     -521.0682         1.000       
      75     -521.0682         1.000       
      74     -608.0802         1.000       
      73     -608.0802         1.000       
      72     -608.0938         1.000       
      71     -608.0938         1.000       
      70     -608.1007         1.000       
      69     -608.1007         1.000       
      68     -619.9693         1.000       
      67     -619.9693         1.000       
      66     -619.9852         1.000       
      65     -619.9852         1.000       
      64     -694.0190         1.000       
      63     -694.0190         1.000       
      62     -694.0564         1.000       
      61     -694.0564         1.000       
      60     -694.0715         1.000       
      59     -694.0715         1.000       
      58     -733.3414         1.000       
      57     -733.3414         1.000       
      56     -733.3770         1.000       
      55     -733.3770         1.000       
      54     -851.9508         1.000       
      53     -851.9508         1.000       
      52     -851.9666         1.000       
      51     -851.9666         1.000       
      50     -907.6514         1.000       
      49     -907.6514         1.000       
      48     -983.2980         1.000       
      47     -983.2980         1.000       
      46     -983.3342         1.000       
      45     -983.3342         1.000       
      44    -1039.1466         1.000       
      43    -1039.1466         1.000       
      42    -1190.0872         1.000       
      41    -1190.0872         1.000       
      40    -1353.2447         1.000       
      39    -1353.2447         1.000       
      38    -3410.2259         1.000       
      37    -3410.2259         1.000       
      36    -3410.2423         1.000       
      35    -3410.2423         1.000       
      34    -3410.2506         1.000       
      33    -3410.2506         1.000       
      32    -3577.0225         1.000       
      31    -3577.0225         1.000       
      30    -3577.0373         1.000       
      29    -3577.0373         1.000       
      28    -4130.9280         1.000       
      27    -4130.9280         1.000       
      26    -4130.9459         1.000       
      25    -4130.9459         1.000       
      24    -4502.7775         1.000       
      23    -4502.7775         1.000       
      22    -4502.7833         1.000       
      21    -4502.7833         1.000       
      20    -4797.7390         1.000       
      19    -4797.7390         1.000       
      18    -4926.7022         1.000       
      17    -4926.7022         1.000       
      16    -5118.6134         1.000       
      15    -5118.6134         1.000       
      14    -5303.5145         1.000       
      13    -5303.5145         1.000       
      12   -16649.1561         1.000       
      11   -16649.1561         1.000       
      10   -16649.1588         1.000       
       9   -16649.1588         1.000       
       8   -20126.8153         1.000       
       7   -20126.8153         1.000       
       6   -21000.4128         1.000       
       5   -21000.4128         1.000       
       4   -33010.7817         1.000       
       3   -33010.7817         1.000       
       2  -112595.6058         1.000       
       1  -112595.6058         1.000       

AMS application finished. Exiting.
NORMAL TERMINATION
     Total cpu time:     537.23
  Total system time:      50.29
 Total elapsed time:     588.39
