
 Working directory              : /state/partition2/shaaban/952769.phlam-s-sakura/molpro.9rB7vKwroQ/
 Global scratch directory       : /state/partition2/shaaban/952769.phlam-s-sakura/molpro.9rB7vKwroQ/
 Wavefunction directory         : /home/shaaban/wfu/
 Main file repository           : /state/partition2/shaaban/952769.phlam-s-sakura/molpro.9rB7vKwroQ/

 id        : lill

 Nodes      nprocs
 u-0-7.local    8
 GA implementation: MPI file
 GA implementation (serial work in mppx): MPI file

 Using customized tuning parameters: mindgm=1; mindgv=20; mindgc=4; mindgr=1; noblas=0; minvec=7
 default implementation of scratch files=sf  


 Variables initialized (1025), CPU time= 0.03 sec
 ***,Pa(OH)4(Cl)- MP2 and CCSD(T)
 memory,2500, m;
 file, 1, pa_oh4_cl-B21-solvent.ccsd-tx.int, new;
 file, 2, pa_oh4_cl-B21-solvent.ccsd-tx.wfu, new;
 
 gprint, basis;
 gprint, orbital=10;
 
 nosym;
 
 geomtyp=xyz;
 
 geometry={
 Including file /home/shaaban/molpro/PhD/chloride/pa_oh4_cl/pa_oh4_cl-B21-solvent.xyz
 }
 
 charge=0;
 
                                                                                 ! Select X2C SR Hamiltonian
 SET,DKHO=101
 
                                                                                 ! Calculation with VTZ basis set
 basis={
 Pa=cc-pVTZ-X2C;
 O=aug-cc-pVTZ-X2C;
 H=aug-cc-pVTZ-X2C;
 Cl=aug-cc-pVTZ-X2C;
 }
 
 
                                                                                 ! Hartree-Fock calculation
 {hf;}
 
                                                                                 ! MP2 and CCSD(T) calculation
 {ccsd(t);}
 
                                                                  ! Save HF energy and CCSD(T) correlation energy for VTZ basis set
 energy_hf(1) = energr(1);
 corr_mp2(1) = EMP2-energr(1);
 corr_ccsdt(1) = ENERGT(1)-energr(1);
 
 Commands initialized (840), CPU time= 0.01 sec, 684 directives.
 Default parameters read. Elapsed time= 0.16 sec

 Checking input...
 Passed
1


                                         ***  PROGRAM SYSTEM MOLPRO  ***
                                       Copyright, TTI GmbH Stuttgart, 2015
                                    Version 2022.3 linked Wed Nov 30 12:40:34 2022


 **********************************************************************************************************************************
 LABEL *   Pa(OH)P2 and C                                                                
  64 bit mpp version                                                                     DATE: 22-Apr-23          TIME: 05:54:53  
 **********************************************************************************************************************************

 SHA1:             e31ec9a5ea85254ab76f59d122cbdd51c71cf98b
 **********************************************************************************************************************************

 Memory per process:      2500 MW
 Total memory per node:  20000 MW

 GA preallocation disabled
 GA check disabled

 Variable memory set to 2500.0 MW



 Permanent file  1  pa_oh4_cl-b21-solvent.ccsd-tx.in assigned.  Implementation=df  
 Permanent file  2  pa_oh4_cl-b21-solvent.ccsd-tx.wf assigned.  Implementation=df  



 **********************************************************************************************************************************
 DATASETS  * FILE   NREC   LENGTH (MB)   RECORD NAMES
              1       1        0.03       500   
                                          VAR  

              2       1        0.03       500   
                                          VAR  

 PROGRAMS   *        TOTAL      FILE
 CPU TIMES  *         0.20      0.00
 REAL TIME  *         0.26 SEC
 DISK USED  *         0.10 MB (local),        0.81 MB (total)
 **********************************************************************************************************************************


 SETTING GEOMTYP        =    XYZ
 ZSYMEL=NOSYM

 SETTING CHARGE         =      0.0000000D+00                                  
 SETTING DKHO           =       101.00000000                                  
 SETTING BASIS          =    PA=CC-PVTZ-X2C,O=AUG-CC-PVTZ-X2C,H=AUG-CC-PVTZ-X2C,CL=AUG-CC-PVTZ-X2C


 Recomputing integrals since basis changed


 Using spherical harmonics

 Library entry PA     S cc-pVTZ-X2C          selected for orbital group  1
 Library entry PA     P cc-pVTZ-X2C          selected for orbital group  1
 Library entry PA     D cc-pVTZ-X2C          selected for orbital group  1
 Library entry PA     F cc-pVTZ-X2C          selected for orbital group  1
 Library entry PA     G cc-pVTZ-X2C          selected for orbital group  1
 Library entry PA     H cc-pVTZ-X2C          selected for orbital group  1
 Library entry O      S aug-cc-pVTZ-X2C      selected for orbital group  2
 Library entry O      P aug-cc-pVTZ-X2C      selected for orbital group  2
 Library entry O      D aug-cc-pVTZ-X2C      selected for orbital group  2
 Library entry O      F aug-cc-pVTZ-X2C      selected for orbital group  2
 Library entry H      S aug-cc-pVTZ-X2C      selected for orbital group  3
 Library entry H      P aug-cc-pVTZ-X2C      selected for orbital group  3
 Library entry H      D aug-cc-pVTZ-X2C      selected for orbital group  3
 Library entry CL     S aug-cc-pVTZ-X2C      selected for orbital group 10
 Library entry CL     P aug-cc-pVTZ-X2C      selected for orbital group 10
 Library entry CL     D aug-cc-pVTZ-X2C      selected for orbital group 10
 Library entry CL     F aug-cc-pVTZ-X2C      selected for orbital group 10


 PROGRAM * SEWARD (Integral evaluation for generally contracted gaussian basis sets)     Author: Roland Lindh, 1990

 Geometry written to block  1 of record 700


 Point group  C1  



 ATOMIC COORDINATES

 NR  ATOM    CHARGE       X              Y              Z

   1  PA     91.00    0.848429969    0.160239672    0.584442110
   2  O       8.00    2.240233658    3.327899993   -1.324833707
   3  H       1.00    2.323927721    4.099308848   -2.976653256
   4  O       8.00   -2.850698885    1.591594296    0.373803567
   5  H       1.00   -3.796461616    2.868696234   -0.519329558
   6  O       8.00    0.735524723   -1.942530304   -2.754393764
   7  H       1.00   -0.015307432   -3.434498514   -3.480735186
   8  O       8.00   -0.461959660   -2.817732970    2.847609612
   9  H       1.00   -2.078600024   -3.564110097    3.251062396
  10  CL     17.00    5.644985257   -1.156499089    1.778313511

 Bond lengths in Bohr (Angstrom)

 1-2  3.951774736  1-3  5.511330130  1-4  3.971989292  1-5  5.488995052  1-6  3.947431338
     ( 2.091189133)     ( 2.916470306)     ( 2.101886215)     ( 2.904651092)     ( 2.088890706)

  1- 7  5.494893208   1- 8  3.963252349   1- 9  5.435912944   1-10  5.115278342   2- 3  1.824988806
       ( 2.907772262)       ( 2.097262824)       ( 2.876561250)       ( 2.706888726)       ( 0.965742486)

 4-5  1.822949062  6-7  1.821342890  8-9  1.825754373
     ( 0.964663100)     ( 0.963813151)     ( 0.966147607)

 Bond angles

  1-2-3  142.39839833   1-3-2   25.94490563   1-4-5  139.60629785   1-5-4   27.96531625

  1-6-7  141.76337147   1-7-6   26.39865547   1-8-9  136.56268100   1-9-8   30.08547274

  2-1-3   11.65669604   2-1-4   90.77478462   2-1-5   78.77601361   2-1-6   91.62823673

  2- 1- 7  102.84515105   2- 1- 8  174.06824070   2- 1- 9  167.38143439   2- 1-10   89.36096435

  3-1-4   87.56449076   3-1-5   75.16425059   3-1-6   80.90122181   3-1-7   91.81255388

  3- 1- 8  174.00345195   3- 1- 9  161.95412987   3- 1-10   94.80380104   4- 1- 5   12.42838590

  4-1-6   96.91923996   4-1-7   92.87308950   4-1-8   89.60671208   4-1-9   76.78775988

  4- 1-10  168.07392842   5- 1- 6   93.93127460   5- 1- 7   92.35088644   5- 1- 8  101.87655677

  5- 1- 9   88.91469261   5- 1-10  165.33929743   6- 1- 7   11.83797306   6- 1- 8   94.20226334

  6- 1- 9   91.98025538   6- 1-10   94.99724030   7- 1- 8   83.04596185   7- 1- 9   80.21587157

  7- 1-10   98.72331694   8- 1- 9   13.35184626   8- 1-10   89.04530592   9- 1-10  102.36010478


 BASIS DATA

   Nr Sym  Nuc  Type         Exponents   Contraction coefficients

    1.1 A     1  1s    57606659.000000     0.002669    0.000875   -0.001011   -0.000162    0.000138   -0.000062
                                           0.000029    0.000051   -0.000067   -0.000085    0.000000
    2.1 A              15333099.000000     0.001763    0.000577   -0.000669   -0.000107    0.000091   -0.000041
                                           0.000019    0.000034   -0.000045   -0.000056    0.000000
    3.1 A               5244434.800000     0.005688    0.001860   -0.002159   -0.000346    0.000294   -0.000133
                                           0.000061    0.000110   -0.000144   -0.000182    0.000000
    4.1 A               1993947.300000     0.005833    0.001897   -0.002226   -0.000357    0.000304   -0.000137
                                           0.000063    0.000114   -0.000148   -0.000188    0.000000
    5.1 A                831464.670000     0.012471    0.004046   -0.004768   -0.000766    0.000651   -0.000294
                                           0.000135    0.000243   -0.000318   -0.000402    0.000000
    6.1 A                367473.800000     0.015337    0.004923   -0.005922   -0.000954    0.000810   -0.000366
                                           0.000168    0.000303   -0.000396   -0.000502    0.000000
    7.1 A                170948.980000     0.027802    0.008860   -0.010807   -0.001745    0.001481   -0.000669
                                           0.000307    0.000553   -0.000723   -0.000913    0.000000
    8.1 A                 82498.208000     0.037893    0.011845   -0.014983   -0.002432    0.002060   -0.000931
                                           0.000428    0.000771   -0.001008   -0.001281    0.000000
    9.1 A                 41068.557000     0.063446    0.019489   -0.025472   -0.004156    0.003514   -0.001588
                                           0.000730    0.001312   -0.001713   -0.002158    0.000000
   10.1 A                 20931.097000     0.090970    0.026964   -0.037612   -0.006192    0.005220   -0.002360
                                           0.001084    0.001959   -0.002562   -0.003271    0.000000
   11.1 A                 10881.858000     0.141353    0.040137   -0.060450   -0.010069    0.008456   -0.003823
                                           0.001756    0.003150   -0.004109   -0.005142    0.000000
                           5751.850200     0.192150    0.050328   -0.087023   -0.014758    0.012320   -0.005570
                                           0.002559    0.004641   -0.006081   -0.007843    0.000000
                           3085.413800     0.245625    0.057494   -0.119370   -0.020746    0.017180   -0.007769
                                           0.003568    0.006365   -0.008281   -0.010186    0.000000
                           1676.302600     0.236828    0.048791   -0.122988   -0.021795    0.017936   -0.008112
                                           0.003728    0.006861   -0.009046   -0.012129    0.000000
                            920.364860     0.144288    0.051386   -0.045258   -0.005640    0.005268   -0.002373
                                           0.001085    0.001652   -0.001974   -0.001042    0.000000
                            507.302700    -0.025759    0.115725    0.203246    0.056561   -0.041187    0.018724
                                          -0.008598   -0.014902    0.019190    0.021482    0.000000
                            285.301180    -0.127248    0.207489    0.548666    0.172341   -0.122683    0.055908
                                          -0.025737   -0.047910    0.063712    0.088054    0.000000
                            162.083520    -0.106345    0.166212    0.606264    0.222723   -0.155054    0.070944
                                          -0.032607   -0.056240    0.072273    0.078654    0.000000
                             92.502257    -0.075897    0.111536    0.036795   -0.036386    0.019294   -0.009062
                                           0.004086    0.001475    0.001168    0.030443    0.000000
                             54.996696    -0.159518    0.199400   -0.676887   -0.645265    0.447335   -0.211910
                                           0.098395    0.193270   -0.267108   -0.419400    0.000000
                             32.498055    -0.126680    0.162427   -0.590845   -0.685716    0.477369   -0.227312
                                           0.105023    0.171409   -0.214999   -0.161690    0.000000
                             19.139224    -0.031866    0.038627   -0.102127    0.187644   -0.152132    0.072681
                                          -0.032972   -0.027495    0.028200   -0.136514    0.000000
                             11.382710     0.001867    0.000895    0.103491    0.862021   -0.976205    0.547811
                                          -0.263192   -0.581563    0.872312    1.708580    0.000000
                              6.786052     0.000710   -0.001446    0.057992    0.445035   -0.716251    0.417708
                                          -0.198179   -0.257965    0.233684   -0.803168    0.000000
                              4.149622     0.000624    0.000224    0.007493    0.066545    0.448492   -0.350229
                                           0.170540    0.219139   -0.310498    1.111350    0.000000
                              2.398648    -0.000456    0.000036    0.000333    0.014140    0.872214   -0.849732
                                           0.456257    1.306370   -2.312230   -7.677220    0.000000
                              1.389239     0.000090    0.000196   -0.000539    0.002102    0.319316   -0.431871
                                           0.230358    0.273179    0.312923   10.897300    0.000000
                              0.799685    -0.000092   -0.000045    0.000120    0.000488    0.047531    0.436228
                                          -0.277578   -1.772950    4.829150   -2.756210    0.000000
                              0.427327     0.000032    0.000027   -0.000069   -0.000720    0.030738    0.715435
                                          -0.561943   -0.897998   -3.625440   -6.603630    0.000000
                              0.220940    -0.000014   -0.000008    0.000023   -0.000086    0.010089    0.233487
                                          -0.326569    1.531090   -1.220420    6.760400    0.000000
                              0.086038     0.000004    0.000003   -0.000008   -0.000060    0.001152    0.063336
                                           0.301677    1.025940    2.677810   -2.145480    0.000000
                              0.041219    -0.000002   -0.000001    0.000004   -0.000044    0.001537    0.118995
                                           0.692734   -0.772162   -0.536170   -1.021350    0.000000
                              0.018781     0.000001    0.000000   -0.000001   -0.000024    0.000590    0.043903
                                           0.253879   -0.484754   -0.805222    1.252960    1.000000
   12.1 A     1  2px   52575799.000000     0.000013
                       15301659.000000     0.000017
                        4822461.600000     0.000052
                        1632045.600000     0.000107
                         584338.640000     0.000256
                         219508.320000     0.000572
                          86085.039000     0.001336
                          35172.956000     0.003129
                          14975.745000     0.007503
                           6652.821900     0.017986
                           3084.270200     0.042103
                           1489.211300     0.090969
                            745.288670     0.167976
                            384.521300     0.234709
                            203.927220     0.220200
                            110.523340     0.174708
                             61.345569     0.190642
                             34.404375     0.137246
                             19.094147     0.033402
                             10.684628    -0.000867
                              5.931463    -0.000935
                              3.230992    -0.000009
                              1.730655     0.000164
                              0.869483     0.000022
                              0.440589     0.000009
                              0.215859    -0.000000
                              0.091015     0.000001
                              0.040174    -0.000000
                              0.017215     0.000000
   13.1 A     1  2py   52575799.000000     0.000013
                       15301659.000000     0.000017
                        4822461.600000     0.000052
                        1632045.600000     0.000107
                         584338.640000     0.000256
                         219508.320000     0.000572
                          86085.039000     0.001336
                          35172.956000     0.003129
                          14975.745000     0.007503
                           6652.821900     0.017986
                           3084.270200     0.042103
                           1489.211300     0.090969
                            745.288670     0.167976
                            384.521300     0.234709
                            203.927220     0.220200
                            110.523340     0.174708
                             61.345569     0.190642
                             34.404375     0.137246
                             19.094147     0.033402
                             10.684628    -0.000867
                              5.931463    -0.000935
                              3.230992    -0.000009
                              1.730655     0.000164
                              0.869483     0.000022
                              0.440589     0.000009
                              0.215859    -0.000000
                              0.091015     0.000001
                              0.040174    -0.000000
                              0.017215     0.000000
   14.1 A     1  2pz   52575799.000000     0.000013
                       15301659.000000     0.000017
                        4822461.600000     0.000052
                        1632045.600000     0.000107
                         584338.640000     0.000256
                         219508.320000     0.000572
                          86085.039000     0.001336
                          35172.956000     0.003129
                          14975.745000     0.007503
                           6652.821900     0.017986
                           3084.270200     0.042103
                           1489.211300     0.090969
                            745.288670     0.167976
                            384.521300     0.234709
                            203.927220     0.220200
                            110.523340     0.174708
                             61.345569     0.190642
                             34.404375     0.137246
                             19.094147     0.033402
                             10.684628    -0.000867
                              5.931463    -0.000935
                              3.230992    -0.000009
                              1.730655     0.000164
                              0.869483     0.000022
                              0.440589     0.000009
                              0.215859    -0.000000
                              0.091015     0.000001
                              0.040174    -0.000000
                              0.017215     0.000000
   15.1 A     1  2px   52575799.000000    -0.000015
                       15301659.000000    -0.000020
                        4822461.600000    -0.000063
                        1632045.600000    -0.000128
                         584338.640000    -0.000307
                         219508.320000    -0.000688
                          86085.039000    -0.001611
                          35172.956000    -0.003789
                          14975.745000    -0.009145
                           6652.821900    -0.022135
                           3084.270200    -0.052666
                           1489.211300    -0.116756
                            745.288670    -0.223673
                            384.521300    -0.322150
                            203.927220    -0.236330
                            110.523340     0.145050
                             61.345569     0.527334
                             34.404375     0.400957
                             19.094147     0.019469
                             10.684628    -0.122609
                              5.931463    -0.050931
                              3.230992    -0.002720
                              1.730655     0.002231
                              0.869483     0.000423
                              0.440589     0.000084
                              0.215859     0.000018
                              0.091015     0.000006
                              0.040174    -0.000002
                              0.017215     0.000001
   16.1 A     1  2py   52575799.000000    -0.000015
                       15301659.000000    -0.000020
                        4822461.600000    -0.000063
                        1632045.600000    -0.000128
                         584338.640000    -0.000307
                         219508.320000    -0.000688
                          86085.039000    -0.001611
                          35172.956000    -0.003789
                          14975.745000    -0.009145
                           6652.821900    -0.022135
                           3084.270200    -0.052666
                           1489.211300    -0.116756
                            745.288670    -0.223673
                            384.521300    -0.322150
                            203.927220    -0.236330
                            110.523340     0.145050
                             61.345569     0.527334
                             34.404375     0.400957
                             19.094147     0.019469
                             10.684628    -0.122609
                              5.931463    -0.050931
                              3.230992    -0.002720
                              1.730655     0.002231
                              0.869483     0.000423
                              0.440589     0.000084
                              0.215859     0.000018
                              0.091015     0.000006
                              0.040174    -0.000002
                              0.017215     0.000001
   17.1 A     1  2pz   52575799.000000    -0.000015
                       15301659.000000    -0.000020
                        4822461.600000    -0.000063
                        1632045.600000    -0.000128
                         584338.640000    -0.000307
                         219508.320000    -0.000688
                          86085.039000    -0.001611
                          35172.956000    -0.003789
                          14975.745000    -0.009145
                           6652.821900    -0.022135
                           3084.270200    -0.052666
                           1489.211300    -0.116756
                            745.288670    -0.223673
                            384.521300    -0.322150
                            203.927220    -0.236330
                            110.523340     0.145050
                             61.345569     0.527334
                             34.404375     0.400957
                             19.094147     0.019469
                             10.684628    -0.122609
                              5.931463    -0.050931
                              3.230992    -0.002720
                              1.730655     0.002231
                              0.869483     0.000423
                              0.440589     0.000084
                              0.215859     0.000018
                              0.091015     0.000006
                              0.040174    -0.000002
                              0.017215     0.000001
   18.1 A     1  2px   52575799.000000     0.000002
                       15301659.000000     0.000002
                        4822461.600000     0.000007
                        1632045.600000     0.000015
                         584338.640000     0.000036
                         219508.320000     0.000081
                          86085.039000     0.000191
                          35172.956000     0.000452
                          14975.745000     0.001103
                           6652.821900     0.002719
                           3084.270200     0.006655
                           1489.211300     0.015415
                            745.288670     0.031304
                            384.521300     0.047289
                            203.927220     0.017930
                            110.523340    -0.123036
                             61.345569    -0.327485
                             34.404375    -0.190153
                             19.094147     0.365341
                             10.684628     0.614487
                              5.931463     0.253665
                              3.230992     0.025247
                              1.730655     0.001457
                              0.869483    -0.000189
                              0.440589     0.000178
                              0.215859    -0.000001
                              0.091015     0.000034
                              0.040174    -0.000010
                              0.017215     0.000003
   19.1 A     1  2py   52575799.000000     0.000002
                       15301659.000000     0.000002
                        4822461.600000     0.000007
                        1632045.600000     0.000015
                         584338.640000     0.000036
                         219508.320000     0.000081
                          86085.039000     0.000191
                          35172.956000     0.000452
                          14975.745000     0.001103
                           6652.821900     0.002719
                           3084.270200     0.006655
                           1489.211300     0.015415
                            745.288670     0.031304
                            384.521300     0.047289
                            203.927220     0.017930
                            110.523340    -0.123036
                             61.345569    -0.327485
                             34.404375    -0.190153
                             19.094147     0.365341
                             10.684628     0.614487
                              5.931463     0.253665
                              3.230992     0.025247
                              1.730655     0.001457
                              0.869483    -0.000189
                              0.440589     0.000178
                              0.215859    -0.000001
                              0.091015     0.000034
                              0.040174    -0.000010
                              0.017215     0.000003
   20.1 A     1  2pz   52575799.000000     0.000002
                       15301659.000000     0.000002
                        4822461.600000     0.000007
                        1632045.600000     0.000015
                         584338.640000     0.000036
                         219508.320000     0.000081
                          86085.039000     0.000191
                          35172.956000     0.000452
                          14975.745000     0.001103
                           6652.821900     0.002719
                           3084.270200     0.006655
                           1489.211300     0.015415
                            745.288670     0.031304
                            384.521300     0.047289
                            203.927220     0.017930
                            110.523340    -0.123036
                             61.345569    -0.327485
                             34.404375    -0.190153
                             19.094147     0.365341
                             10.684628     0.614487
                              5.931463     0.253665
                              3.230992     0.025247
                              1.730655     0.001457
                              0.869483    -0.000189
                              0.440589     0.000178
                              0.215859    -0.000001
                              0.091015     0.000034
                              0.040174    -0.000010
                              0.017215     0.000003
   21.1 A     1  2px   52575799.000000    -0.000002
                       15301659.000000    -0.000003
                        4822461.600000    -0.000009
                        1632045.600000    -0.000018
                         584338.640000    -0.000043
                         219508.320000    -0.000097
                          86085.039000    -0.000228
                          35172.956000    -0.000537
                          14975.745000    -0.001302
                           6652.821900    -0.003177
                           3084.270200    -0.007652
                           1489.211300    -0.017311
                            745.288670    -0.034068
                            384.521300    -0.050256
                            203.927220    -0.027762
                            110.523340     0.078094
                             61.345569     0.225253
                             34.404375     0.124053
                             19.094147    -0.273486
                             10.684628    -0.553839
                              5.931463    -0.065277
                              3.230992     0.618524
                              1.730655     0.501044
                              0.869483     0.107343
                              0.440589     0.023201
                              0.215859     0.014691
                              0.091015     0.001511
                              0.040174     0.000132
                              0.017215    -0.000015
   22.1 A     1  2py   52575799.000000    -0.000002
                       15301659.000000    -0.000003
                        4822461.600000    -0.000009
                        1632045.600000    -0.000018
                         584338.640000    -0.000043
                         219508.320000    -0.000097
                          86085.039000    -0.000228
                          35172.956000    -0.000537
                          14975.745000    -0.001302
                           6652.821900    -0.003177
                           3084.270200    -0.007652
                           1489.211300    -0.017311
                            745.288670    -0.034068
                            384.521300    -0.050256
                            203.927220    -0.027762
                            110.523340     0.078094
                             61.345569     0.225253
                             34.404375     0.124053
                             19.094147    -0.273486
                             10.684628    -0.553839
                              5.931463    -0.065277
                              3.230992     0.618524
                              1.730655     0.501044
                              0.869483     0.107343
                              0.440589     0.023201
                              0.215859     0.014691
                              0.091015     0.001511
                              0.040174     0.000132
                              0.017215    -0.000015
   23.1 A     1  2pz   52575799.000000    -0.000002
                       15301659.000000    -0.000003
                        4822461.600000    -0.000009
                        1632045.600000    -0.000018
                         584338.640000    -0.000043
                         219508.320000    -0.000097
                          86085.039000    -0.000228
                          35172.956000    -0.000537
                          14975.745000    -0.001302
                           6652.821900    -0.003177
                           3084.270200    -0.007652
                           1489.211300    -0.017311
                            745.288670    -0.034068
                            384.521300    -0.050256
                            203.927220    -0.027762
                            110.523340     0.078094
                             61.345569     0.225253
                             34.404375     0.124053
                             19.094147    -0.273486
                             10.684628    -0.553839
                              5.931463    -0.065277
                              3.230992     0.618524
                              1.730655     0.501044
                              0.869483     0.107343
                              0.440589     0.023201
                              0.215859     0.014691
                              0.091015     0.001511
                              0.040174     0.000132
                              0.017215    -0.000015
   24.1 A     1  2px   52575799.000000     0.000001
                       15301659.000000     0.000001
                        4822461.600000     0.000004
                        1632045.600000     0.000008
                         584338.640000     0.000019
                         219508.320000     0.000043
                          86085.039000     0.000102
                          35172.956000     0.000240
                          14975.745000     0.000583
                           6652.821900     0.001422
                           3084.270200     0.003426
                           1489.211300     0.007745
                            745.288670     0.015249
                            384.521300     0.022470
                            203.927220     0.012451
                            110.523340    -0.035134
                             61.345569    -0.101385
                             34.404375    -0.055104
                             19.094147     0.131617
                             10.684628     0.274237
                              5.931463     0.008683
                              3.230992    -0.421618
                              1.730655    -0.381893
                              0.869483     0.226214
                              0.440589     0.602150
                              0.215859     0.367232
                              0.091015     0.055939
                              0.040174    -0.001129
                              0.017215     0.001121
   25.1 A     1  2py   52575799.000000     0.000001
                       15301659.000000     0.000001
                        4822461.600000     0.000004
                        1632045.600000     0.000008
                         584338.640000     0.000019
                         219508.320000     0.000043
                          86085.039000     0.000102
                          35172.956000     0.000240
                          14975.745000     0.000583
                           6652.821900     0.001422
                           3084.270200     0.003426
                           1489.211300     0.007745
                            745.288670     0.015249
                            384.521300     0.022470
                            203.927220     0.012451
                            110.523340    -0.035134
                             61.345569    -0.101385
                             34.404375    -0.055104
                             19.094147     0.131617
                             10.684628     0.274237
                              5.931463     0.008683
                              3.230992    -0.421618
                              1.730655    -0.381893
                              0.869483     0.226214
                              0.440589     0.602150
                              0.215859     0.367232
                              0.091015     0.055939
                              0.040174    -0.001129
                              0.017215     0.001121
   26.1 A     1  2pz   52575799.000000     0.000001
                       15301659.000000     0.000001
                        4822461.600000     0.000004
                        1632045.600000     0.000008
                         584338.640000     0.000019
                         219508.320000     0.000043
                          86085.039000     0.000102
                          35172.956000     0.000240
                          14975.745000     0.000583
                           6652.821900     0.001422
                           3084.270200     0.003426
                           1489.211300     0.007745
                            745.288670     0.015249
                            384.521300     0.022470
                            203.927220     0.012451
                            110.523340    -0.035134
                             61.345569    -0.101385
                             34.404375    -0.055104
                             19.094147     0.131617
                             10.684628     0.274237
                              5.931463     0.008683
                              3.230992    -0.421618
                              1.730655    -0.381893
                              0.869483     0.226214
                              0.440589     0.602150
                              0.215859     0.367232
                              0.091015     0.055939
                              0.040174    -0.001129
                              0.017215     0.001121
   27.1 A     1  2px   52575799.000000    -0.000000
                       15301659.000000    -0.000000
                        4822461.600000    -0.000001
                        1632045.600000    -0.000002
                         584338.640000    -0.000005
                         219508.320000    -0.000010
                          86085.039000    -0.000024
                          35172.956000    -0.000058
                          14975.745000    -0.000140
                           6652.821900    -0.000342
                           3084.270200    -0.000823
                           1489.211300    -0.001861
                            745.288670    -0.003664
                            384.521300    -0.005398
                            203.927220    -0.002991
                            110.523340     0.008482
                             61.345569     0.024454
                             34.404375     0.013272
                             19.094147    -0.032305
                             10.684628    -0.067432
                              5.931463    -0.001366
                              3.230992     0.110673
                              1.730655     0.103187
                              0.869483    -0.077840
                              0.440589    -0.217735
                              0.215859    -0.188345
                              0.091015     0.201020
                              0.040174     0.637069
                              0.017215     0.326669
   28.1 A     1  2py   52575799.000000    -0.000000
                       15301659.000000    -0.000000
                        4822461.600000    -0.000001
                        1632045.600000    -0.000002
                         584338.640000    -0.000005
                         219508.320000    -0.000010
                          86085.039000    -0.000024
                          35172.956000    -0.000058
                          14975.745000    -0.000140
                           6652.821900    -0.000342
                           3084.270200    -0.000823
                           1489.211300    -0.001861
                            745.288670    -0.003664
                            384.521300    -0.005398
                            203.927220    -0.002991
                            110.523340     0.008482
                             61.345569     0.024454
                             34.404375     0.013272
                             19.094147    -0.032305
                             10.684628    -0.067432
                              5.931463    -0.001366
                              3.230992     0.110673
                              1.730655     0.103187
                              0.869483    -0.077840
                              0.440589    -0.217735
                              0.215859    -0.188345
                              0.091015     0.201020
                              0.040174     0.637069
                              0.017215     0.326669
   29.1 A     1  2pz   52575799.000000    -0.000000
                       15301659.000000    -0.000000
                        4822461.600000    -0.000001
                        1632045.600000    -0.000002
                         584338.640000    -0.000005
                         219508.320000    -0.000010
                          86085.039000    -0.000024
                          35172.956000    -0.000058
                          14975.745000    -0.000140
                           6652.821900    -0.000342
                           3084.270200    -0.000823
                           1489.211300    -0.001861
                            745.288670    -0.003664
                            384.521300    -0.005398
                            203.927220    -0.002991
                            110.523340     0.008482
                             61.345569     0.024454
                             34.404375     0.013272
                             19.094147    -0.032305
                             10.684628    -0.067432
                              5.931463    -0.001366
                              3.230992     0.110673
                              1.730655     0.103187
                              0.869483    -0.077840
                              0.440589    -0.217735
                              0.215859    -0.188345
                              0.091015     0.201020
                              0.040174     0.637069
                              0.017215     0.326669
   30.1 A     1  2px   52575799.000000    -0.000001
                       15301659.000000    -0.000001
                        4822461.600000    -0.000003
                        1632045.600000    -0.000005
                         584338.640000    -0.000013
                         219508.320000    -0.000028
                          86085.039000    -0.000066
                          35172.956000    -0.000156
                          14975.745000    -0.000379
                           6652.821900    -0.000925
                           3084.270200    -0.002224
                           1489.211300    -0.005040
                            745.288670    -0.009895
                            384.521300    -0.014653
                            203.927220    -0.007970
                            110.523340     0.022757
                             61.345569     0.067049
                             34.404375     0.034635
                             19.094147    -0.086605
                             10.684628    -0.190567
                              5.931463     0.011210
                              3.230992     0.295370
                              1.730655     0.357708
                              0.869483    -0.483437
                              0.440589    -0.603385
                              0.215859     0.215887
                              0.091015     0.715465
                              0.040174     0.271767
                              0.017215     0.004114
   31.1 A     1  2py   52575799.000000    -0.000001
                       15301659.000000    -0.000001
                        4822461.600000    -0.000003
                        1632045.600000    -0.000005
                         584338.640000    -0.000013
                         219508.320000    -0.000028
                          86085.039000    -0.000066
                          35172.956000    -0.000156
                          14975.745000    -0.000379
                           6652.821900    -0.000925
                           3084.270200    -0.002224
                           1489.211300    -0.005040
                            745.288670    -0.009895
                            384.521300    -0.014653
                            203.927220    -0.007970
                            110.523340     0.022757
                             61.345569     0.067049
                             34.404375     0.034635
                             19.094147    -0.086605
                             10.684628    -0.190567
                              5.931463     0.011210
                              3.230992     0.295370
                              1.730655     0.357708
                              0.869483    -0.483437
                              0.440589    -0.603385
                              0.215859     0.215887
                              0.091015     0.715465
                              0.040174     0.271767
                              0.017215     0.004114
   32.1 A     1  2pz   52575799.000000    -0.000001
                       15301659.000000    -0.000001
                        4822461.600000    -0.000003
                        1632045.600000    -0.000005
                         584338.640000    -0.000013
                         219508.320000    -0.000028
                          86085.039000    -0.000066
                          35172.956000    -0.000156
                          14975.745000    -0.000379
                           6652.821900    -0.000925
                           3084.270200    -0.002224
                           1489.211300    -0.005040
                            745.288670    -0.009895
                            384.521300    -0.014653
                            203.927220    -0.007970
                            110.523340     0.022757
                             61.345569     0.067049
                             34.404375     0.034635
                             19.094147    -0.086605
                             10.684628    -0.190567
                              5.931463     0.011210
                              3.230992     0.295370
                              1.730655     0.357708
                              0.869483    -0.483437
                              0.440589    -0.603385
                              0.215859     0.215887
                              0.091015     0.715465
                              0.040174     0.271767
                              0.017215     0.004114
   33.1 A     1  2px   52575799.000000    -0.000001
                       15301659.000000    -0.000001
                        4822461.600000    -0.000004
                        1632045.600000    -0.000009
                         584338.640000    -0.000021
                         219508.320000    -0.000047
                          86085.039000    -0.000111
                          35172.956000    -0.000263
                          14975.745000    -0.000636
                           6652.821900    -0.001554
                           3084.270200    -0.003739
                           1489.211300    -0.008475
                            745.288670    -0.016642
                            384.521300    -0.024644
                            203.927220    -0.013367
                            110.523340     0.038637
                             61.345569     0.114090
                             34.404375     0.057493
                             19.094147    -0.152735
                             10.684628    -0.335275
                              5.931463     0.054116
                              3.230992     0.556566
                              1.730655     0.705542
                              0.869483    -1.835570
                              0.440589    -0.012121
                              0.215859     1.665730
                              0.091015    -0.585220
                              0.040174    -0.541179
                              0.017215     0.007323
   34.1 A     1  2py   52575799.000000    -0.000001
                       15301659.000000    -0.000001
                        4822461.600000    -0.000004
                        1632045.600000    -0.000009
                         584338.640000    -0.000021
                         219508.320000    -0.000047
                          86085.039000    -0.000111
                          35172.956000    -0.000263
                          14975.745000    -0.000636
                           6652.821900    -0.001554
                           3084.270200    -0.003739
                           1489.211300    -0.008475
                            745.288670    -0.016642
                            384.521300    -0.024644
                            203.927220    -0.013367
                            110.523340     0.038637
                             61.345569     0.114090
                             34.404375     0.057493
                             19.094147    -0.152735
                             10.684628    -0.335275
                              5.931463     0.054116
                              3.230992     0.556566
                              1.730655     0.705542
                              0.869483    -1.835570
                              0.440589    -0.012121
                              0.215859     1.665730
                              0.091015    -0.585220
                              0.040174    -0.541179
                              0.017215     0.007323
   35.1 A     1  2pz   52575799.000000    -0.000001
                       15301659.000000    -0.000001
                        4822461.600000    -0.000004
                        1632045.600000    -0.000009
                         584338.640000    -0.000021
                         219508.320000    -0.000047
                          86085.039000    -0.000111
                          35172.956000    -0.000263
                          14975.745000    -0.000636
                           6652.821900    -0.001554
                           3084.270200    -0.003739
                           1489.211300    -0.008475
                            745.288670    -0.016642
                            384.521300    -0.024644
                            203.927220    -0.013367
                            110.523340     0.038637
                             61.345569     0.114090
                             34.404375     0.057493
                             19.094147    -0.152735
                             10.684628    -0.335275
                              5.931463     0.054116
                              3.230992     0.556566
                              1.730655     0.705542
                              0.869483    -1.835570
                              0.440589    -0.012121
                              0.215859     1.665730
                              0.091015    -0.585220
                              0.040174    -0.541179
                              0.017215     0.007323
   36.1 A     1  2px   52575799.000000    -0.000001
                       15301659.000000    -0.000002
                        4822461.600000    -0.000006
                        1632045.600000    -0.000012
                         584338.640000    -0.000030
                         219508.320000    -0.000066
                          86085.039000    -0.000157
                          35172.956000    -0.000360
                          14975.745000    -0.000908
                           6652.821900    -0.002110
                           3084.270200    -0.005394
                           1489.211300    -0.011352
                            745.288670    -0.024563
                            384.521300    -0.031084
                            203.927220    -0.026677
                            110.523340     0.074398
                             61.345569     0.122621
                             34.404375     0.158055
                             19.094147    -0.396610
                             10.684628    -0.217370
                              5.931463    -0.310283
                              3.230992     1.975310
                              1.730655    -0.901781
                              0.869483    -2.796670
                              0.440589     4.376690
                              0.215859    -2.312120
                              0.091015    -0.328877
                              0.040174     0.867979
                              0.017215    -0.037454
   37.1 A     1  2py   52575799.000000    -0.000001
                       15301659.000000    -0.000002
                        4822461.600000    -0.000006
                        1632045.600000    -0.000012
                         584338.640000    -0.000030
                         219508.320000    -0.000066
                          86085.039000    -0.000157
                          35172.956000    -0.000360
                          14975.745000    -0.000908
                           6652.821900    -0.002110
                           3084.270200    -0.005394
                           1489.211300    -0.011352
                            745.288670    -0.024563
                            384.521300    -0.031084
                            203.927220    -0.026677
                            110.523340     0.074398
                             61.345569     0.122621
                             34.404375     0.158055
                             19.094147    -0.396610
                             10.684628    -0.217370
                              5.931463    -0.310283
                              3.230992     1.975310
                              1.730655    -0.901781
                              0.869483    -2.796670
                              0.440589     4.376690
                              0.215859    -2.312120
                              0.091015    -0.328877
                              0.040174     0.867979
                              0.017215    -0.037454
   38.1 A     1  2pz   52575799.000000    -0.000001
                       15301659.000000    -0.000002
                        4822461.600000    -0.000006
                        1632045.600000    -0.000012
                         584338.640000    -0.000030
                         219508.320000    -0.000066
                          86085.039000    -0.000157
                          35172.956000    -0.000360
                          14975.745000    -0.000908
                           6652.821900    -0.002110
                           3084.270200    -0.005394
                           1489.211300    -0.011352
                            745.288670    -0.024563
                            384.521300    -0.031084
                            203.927220    -0.026677
                            110.523340     0.074398
                             61.345569     0.122621
                             34.404375     0.158055
                             19.094147    -0.396610
                             10.684628    -0.217370
                              5.931463    -0.310283
                              3.230992     1.975310
                              1.730655    -0.901781
                              0.869483    -2.796670
                              0.440589     4.376690
                              0.215859    -2.312120
                              0.091015    -0.328877
                              0.040174     0.867979
                              0.017215    -0.037454
   39.1 A     1  2px   52575799.000000     0.000000
                       15301659.000000     0.000000
                        4822461.600000     0.000000
                        1632045.600000     0.000000
                         584338.640000     0.000000
                         219508.320000     0.000000
                          86085.039000     0.000000
                          35172.956000     0.000000
                          14975.745000     0.000000
                           6652.821900     0.000000
                           3084.270200     0.000000
                           1489.211300     0.000000
                            745.288670     0.000000
                            384.521300     0.000000
                            203.927220     0.000000
                            110.523340     0.000000
                             61.345569     0.000000
                             34.404375     0.000000
                             19.094147     0.000000
                             10.684628     0.000000
                              5.931463     0.000000
                              3.230992     0.000000
                              1.730655     0.000000
                              0.869483     0.000000
                              0.440589     0.000000
                              0.215859     0.000000
                              0.091015     0.000000
                              0.040174     0.000000
                              0.017215     1.000000
   40.1 A     1  2py   52575799.000000     0.000000
                       15301659.000000     0.000000
                        4822461.600000     0.000000
                        1632045.600000     0.000000
                         584338.640000     0.000000
                         219508.320000     0.000000
                          86085.039000     0.000000
                          35172.956000     0.000000
                          14975.745000     0.000000
                           6652.821900     0.000000
                           3084.270200     0.000000
                           1489.211300     0.000000
                            745.288670     0.000000
                            384.521300     0.000000
                            203.927220     0.000000
                            110.523340     0.000000
                             61.345569     0.000000
                             34.404375     0.000000
                             19.094147     0.000000
                             10.684628     0.000000
                              5.931463     0.000000
                              3.230992     0.000000
                              1.730655     0.000000
                              0.869483     0.000000
                              0.440589     0.000000
                              0.215859     0.000000
                              0.091015     0.000000
                              0.040174     0.000000
                              0.017215     1.000000
   41.1 A     1  2pz   52575799.000000     0.000000
                       15301659.000000     0.000000
                        4822461.600000     0.000000
                        1632045.600000     0.000000
                         584338.640000     0.000000
                         219508.320000     0.000000
                          86085.039000     0.000000
                          35172.956000     0.000000
                          14975.745000     0.000000
                           6652.821900     0.000000
                           3084.270200     0.000000
                           1489.211300     0.000000
                            745.288670     0.000000
                            384.521300     0.000000
                            203.927220     0.000000
                            110.523340     0.000000
                             61.345569     0.000000
                             34.404375     0.000000
                             19.094147     0.000000
                             10.684628     0.000000
                              5.931463     0.000000
                              3.230992     0.000000
                              1.730655     0.000000
                              0.869483     0.000000
                              0.440589     0.000000
                              0.215859     0.000000
                              0.091015     0.000000
                              0.040174     0.000000
                              0.017215     1.000000
   42.1 A     1  3d0     105911.200000     0.000020
                          24974.572000     0.000129
                           8108.852700     0.000677
                           3150.520500     0.003052
                           1380.647900     0.011950
                            658.188950     0.039706
                            332.909040     0.108875
                            176.023220     0.231727
                             95.780704     0.354949
                             53.337287     0.336096
                             29.864821     0.140603
                             16.526778    -0.033742
                              9.155323    -0.064042
                              4.984876    -0.024095
                              2.636633    -0.002233
                              1.354062     0.000305
                              0.656031     0.000103
                              0.269853     0.000008
                              0.103443     0.000000
                              0.036685     0.000000
   43.1 A     1  3d2-    105911.200000     0.000020
                          24974.572000     0.000129
                           8108.852700     0.000677
                           3150.520500     0.003052
                           1380.647900     0.011950
                            658.188950     0.039706
                            332.909040     0.108875
                            176.023220     0.231727
                             95.780704     0.354949
                             53.337287     0.336096
                             29.864821     0.140603
                             16.526778    -0.033742
                              9.155323    -0.064042
                              4.984876    -0.024095
                              2.636633    -0.002233
                              1.354062     0.000305
                              0.656031     0.000103
                              0.269853     0.000008
                              0.103443     0.000000
                              0.036685     0.000000
   44.1 A     1  3d1+    105911.200000     0.000020
                          24974.572000     0.000129
                           8108.852700     0.000677
                           3150.520500     0.003052
                           1380.647900     0.011950
                            658.188950     0.039706
                            332.909040     0.108875
                            176.023220     0.231727
                             95.780704     0.354949
                             53.337287     0.336096
                             29.864821     0.140603
                             16.526778    -0.033742
                              9.155323    -0.064042
                              4.984876    -0.024095
                              2.636633    -0.002233
                              1.354062     0.000305
                              0.656031     0.000103
                              0.269853     0.000008
                              0.103443     0.000000
                              0.036685     0.000000
   45.1 A     1  3d2+    105911.200000     0.000020
                          24974.572000     0.000129
                           8108.852700     0.000677
                           3150.520500     0.003052
                           1380.647900     0.011950
                            658.188950     0.039706
                            332.909040     0.108875
                            176.023220     0.231727
                             95.780704     0.354949
                             53.337287     0.336096
                             29.864821     0.140603
                             16.526778    -0.033742
                              9.155323    -0.064042
                              4.984876    -0.024095
                              2.636633    -0.002233
                              1.354062     0.000305
                              0.656031     0.000103
                              0.269853     0.000008
                              0.103443     0.000000
                              0.036685     0.000000
   46.1 A     1  3d1-    105911.200000     0.000020
                          24974.572000     0.000129
                           8108.852700     0.000677
                           3150.520500     0.003052
                           1380.647900     0.011950
                            658.188950     0.039706
                            332.909040     0.108875
                            176.023220     0.231727
                             95.780704     0.354949
                             53.337287     0.336096
                             29.864821     0.140603
                             16.526778    -0.033742
                              9.155323    -0.064042
                              4.984876    -0.024095
                              2.636633    -0.002233
                              1.354062     0.000305
                              0.656031     0.000103
                              0.269853     0.000008
                              0.103443     0.000000
                              0.036685     0.000000
   47.1 A     1  3d0     105911.200000    -0.000007
                          24974.572000    -0.000047
                           8108.852700    -0.000246
                           3150.520500    -0.001113
                           1380.647900    -0.004403
                            658.188950    -0.014782
                            332.909040    -0.041545
                            176.023220    -0.089264
                             95.780704    -0.132364
                             53.337287    -0.078125
                             29.864821     0.163137
                             16.526778     0.427766
                              9.155323     0.404323
                              4.984876     0.149842
                              2.636633     0.013528
                              1.354062    -0.001244
                              0.656031    -0.000625
                              0.269853    -0.000007
                              0.103443    -0.000015
                              0.036685     0.000003
   48.1 A     1  3d2-    105911.200000    -0.000007
                          24974.572000    -0.000047
                           8108.852700    -0.000246
                           3150.520500    -0.001113
                           1380.647900    -0.004403
                            658.188950    -0.014782
                            332.909040    -0.041545
                            176.023220    -0.089264
                             95.780704    -0.132364
                             53.337287    -0.078125
                             29.864821     0.163137
                             16.526778     0.427766
                              9.155323     0.404323
                              4.984876     0.149842
                              2.636633     0.013528
                              1.354062    -0.001244
                              0.656031    -0.000625
                              0.269853    -0.000007
                              0.103443    -0.000015
                              0.036685     0.000003
   49.1 A     1  3d1+    105911.200000    -0.000007
                          24974.572000    -0.000047
                           8108.852700    -0.000246
                           3150.520500    -0.001113
                           1380.647900    -0.004403
                            658.188950    -0.014782
                            332.909040    -0.041545
                            176.023220    -0.089264
                             95.780704    -0.132364
                             53.337287    -0.078125
                             29.864821     0.163137
                             16.526778     0.427766
                              9.155323     0.404323
                              4.984876     0.149842
                              2.636633     0.013528
                              1.354062    -0.001244
                              0.656031    -0.000625
                              0.269853    -0.000007
                              0.103443    -0.000015
                              0.036685     0.000003
   50.1 A     1  3d2+    105911.200000    -0.000007
                          24974.572000    -0.000047
                           8108.852700    -0.000246
                           3150.520500    -0.001113
                           1380.647900    -0.004403
                            658.188950    -0.014782
                            332.909040    -0.041545
                            176.023220    -0.089264
                             95.780704    -0.132364
                             53.337287    -0.078125
                             29.864821     0.163137
                             16.526778     0.427766
                              9.155323     0.404323
                              4.984876     0.149842
                              2.636633     0.013528
                              1.354062    -0.001244
                              0.656031    -0.000625
                              0.269853    -0.000007
                              0.103443    -0.000015
                              0.036685     0.000003
   51.1 A     1  3d1-    105911.200000    -0.000007
                          24974.572000    -0.000047
                           8108.852700    -0.000246
                           3150.520500    -0.001113
                           1380.647900    -0.004403
                            658.188950    -0.014782
                            332.909040    -0.041545
                            176.023220    -0.089264
                             95.780704    -0.132364
                             53.337287    -0.078125
                             29.864821     0.163137
                             16.526778     0.427766
                              9.155323     0.404323
                              4.984876     0.149842
                              2.636633     0.013528
                              1.354062    -0.001244
                              0.656031    -0.000625
                              0.269853    -0.000007
                              0.103443    -0.000015
                              0.036685     0.000003
   52.1 A     1  3d0     105911.200000     0.000004
                          24974.572000     0.000029
                           8108.852700     0.000151
                           3150.520500     0.000680
                           1380.647900     0.002694
                            658.188950     0.009015
                            332.909040     0.025311
                            176.023220     0.054175
                             95.780704     0.081018
                             53.337287     0.048855
                             29.864821    -0.090265
                             16.526778    -0.246113
                              9.155323    -0.206236
                              4.984876     0.172306
                              2.636633     0.505507
                              1.354062     0.395599
                              0.656031     0.111489
                              0.269853     0.006247
                              0.103443    -0.000029
                              0.036685    -0.000036
   53.1 A     1  3d2-    105911.200000     0.000004
                          24974.572000     0.000029
                           8108.852700     0.000151
                           3150.520500     0.000680
                           1380.647900     0.002694
                            658.188950     0.009015
                            332.909040     0.025311
                            176.023220     0.054175
                             95.780704     0.081018
                             53.337287     0.048855
                             29.864821    -0.090265
                             16.526778    -0.246113
                              9.155323    -0.206236
                              4.984876     0.172306
                              2.636633     0.505507
                              1.354062     0.395599
                              0.656031     0.111489
                              0.269853     0.006247
                              0.103443    -0.000029
                              0.036685    -0.000036
   54.1 A     1  3d1+    105911.200000     0.000004
                          24974.572000     0.000029
                           8108.852700     0.000151
                           3150.520500     0.000680
                           1380.647900     0.002694
                            658.188950     0.009015
                            332.909040     0.025311
                            176.023220     0.054175
                             95.780704     0.081018
                             53.337287     0.048855
                             29.864821    -0.090265
                             16.526778    -0.246113
                              9.155323    -0.206236
                              4.984876     0.172306
                              2.636633     0.505507
                              1.354062     0.395599
                              0.656031     0.111489
                              0.269853     0.006247
                              0.103443    -0.000029
                              0.036685    -0.000036
   55.1 A     1  3d2+    105911.200000     0.000004
                          24974.572000     0.000029
                           8108.852700     0.000151
                           3150.520500     0.000680
                           1380.647900     0.002694
                            658.188950     0.009015
                            332.909040     0.025311
                            176.023220     0.054175
                             95.780704     0.081018
                             53.337287     0.048855
                             29.864821    -0.090265
                             16.526778    -0.246113
                              9.155323    -0.206236
                              4.984876     0.172306
                              2.636633     0.505507
                              1.354062     0.395599
                              0.656031     0.111489
                              0.269853     0.006247
                              0.103443    -0.000029
                              0.036685    -0.000036
   56.1 A     1  3d1-    105911.200000     0.000004
                          24974.572000     0.000029
                           8108.852700     0.000151
                           3150.520500     0.000680
                           1380.647900     0.002694
                            658.188950     0.009015
                            332.909040     0.025311
                            176.023220     0.054175
                             95.780704     0.081018
                             53.337287     0.048855
                             29.864821    -0.090265
                             16.526778    -0.246113
                              9.155323    -0.206236
                              4.984876     0.172306
                              2.636633     0.505507
                              1.354062     0.395599
                              0.656031     0.111489
                              0.269853     0.006247
                              0.103443    -0.000029
                              0.036685    -0.000036
   57.1 A     1  3d0     105911.200000    -0.000001
                          24974.572000    -0.000008
                           8108.852700    -0.000042
                           3150.520500    -0.000189
                           1380.647900    -0.000746
                            658.188950    -0.002504
                            332.909040    -0.007016
                            176.023220    -0.015063
                             95.780704    -0.022420
                             53.337287    -0.013378
                             29.864821     0.026555
                             16.526778     0.070496
                              9.155323     0.058301
                              4.984876    -0.065834
                              2.636633    -0.177473
                              1.354062    -0.127085
                              0.656031     0.181760
                              0.269853     0.495490
                              0.103443     0.447072
                              0.036685     0.116353
   58.1 A     1  3d2-    105911.200000    -0.000001
                          24974.572000    -0.000008
                           8108.852700    -0.000042
                           3150.520500    -0.000189
                           1380.647900    -0.000746
                            658.188950    -0.002504
                            332.909040    -0.007016
                            176.023220    -0.015063
                             95.780704    -0.022420
                             53.337287    -0.013378
                             29.864821     0.026555
                             16.526778     0.070496
                              9.155323     0.058301
                              4.984876    -0.065834
                              2.636633    -0.177473
                              1.354062    -0.127085
                              0.656031     0.181760
                              0.269853     0.495490
                              0.103443     0.447072
                              0.036685     0.116353
   59.1 A     1  3d1+    105911.200000    -0.000001
                          24974.572000    -0.000008
                           8108.852700    -0.000042
                           3150.520500    -0.000189
                           1380.647900    -0.000746
                            658.188950    -0.002504
                            332.909040    -0.007016
                            176.023220    -0.015063
                             95.780704    -0.022420
                             53.337287    -0.013378
                             29.864821     0.026555
                             16.526778     0.070496
                              9.155323     0.058301
                              4.984876    -0.065834
                              2.636633    -0.177473
                              1.354062    -0.127085
                              0.656031     0.181760
                              0.269853     0.495490
                              0.103443     0.447072
                              0.036685     0.116353
   60.1 A     1  3d2+    105911.200000    -0.000001
                          24974.572000    -0.000008
                           8108.852700    -0.000042
                           3150.520500    -0.000189
                           1380.647900    -0.000746
                            658.188950    -0.002504
                            332.909040    -0.007016
                            176.023220    -0.015063
                             95.780704    -0.022420
                             53.337287    -0.013378
                             29.864821     0.026555
                             16.526778     0.070496
                              9.155323     0.058301
                              4.984876    -0.065834
                              2.636633    -0.177473
                              1.354062    -0.127085
                              0.656031     0.181760
[...]
   61.1     2.00000    -0.63997     1  5  py   0.26921    2  1  pz  -0.45647    3  1  s    0.38621    8  1  px   0.48378
                                    9  1  s   -0.41750
   62.1     2.00000    -0.56298     2  1  py  -0.33231    4  1  px  -0.34852    6  1  pz  -0.30023    8  1  py   0.34962
   63.1     2.00000    -0.53886     4  1  py   0.34838    4  1  pz   0.43961    6  1  px   0.41446
   64.1     2.00000    -0.53035     1  5  py   0.30597    2  1  px   0.32921    4  1  px  -0.36579    4  1  pz   0.40081
                                    6  1  pz   0.34270
   65.1     2.00000    -0.51792     2  1  px   0.68485    6  1  px   0.33485
   66.1     2.00000    -0.51698     8  1  pz   0.74204
   67.1     2.00000    -0.50681     1  5  pz  -0.25044    2  1  py   0.53223    8  1  py   0.56965
   68.1     2.00000    -0.50330     4  1  px  -0.34594    4  1  py  -0.41323    6  1  px   0.51517
   69.1     2.00000    -0.49885     2  1  py  -0.34476    4  1  pz  -0.30331    6  1  py  -0.29927    6  1  pz   0.56563
   70.1     2.00000    -0.43328     1  5  px   0.29636   10  2  px   0.81007
   71.1     2.00000    -0.41173    10  2  py   0.51958   10  2  pz   0.74642
   72.1     2.00000    -0.40751    10  2  px   0.31504   10  2  py   0.71068   10  2  pz  -0.48437
   73.1     0.00000     0.01257     1  4  s   -0.26035    1  5  s   -0.82281    1  6  s   -2.89254    1  7  s   -3.65977
                                    1 11  s    1.71476    1  5  px   0.63292    1  5  pz   0.26107    1  6  px   1.48046
                                    1  6  py  -0.39736    1  6  pz   0.64959    1 10  px  -0.81316    1 10  py   0.61947
                                    1  4  d1-  0.27520    2  5  s    0.83129    2  4  py  -0.43034    3  4  s    0.46703
                                    4  5  s    1.12487    4  4  px   0.60145    4  4  py  -0.30731    5  4  s    0.57378
                                    7  3  s    0.29478    7  4  s    0.74276    8  5  s    0.52207    9  4  s    0.38795
                                   10  6  s   -0.53798
   74.1     0.00000     0.02774     1  5  s    0.78809    1  6  s    2.86760    1  7  s    3.96972    1 11  s   -1.90301
                                    1  5  px  -0.98482    1  5  pz  -0.79130    1  6  px  -3.10638    1  6  py   0.84582
                                    1  6  pz  -2.02246    1  7  px   0.27827    1 10  px   1.70640    1 10  pz   2.00787
                                    2  5  s   -0.39145    4  5  s   -1.91399    4  4  px  -0.57550    5  4  s   -0.65423
                                    6  5  s   -1.94858    6  4  py  -0.30643    6  4  pz  -0.58631    7  3  s    0.39532
                                   10  6  s    0.70751   10  5  px  -0.27212   10  5  pz  -0.25887
   75.1     0.00000     0.03076     1  5  s    0.25283    1  6  s    0.91853    1  7  s    1.26159    1 11  s   -1.06240
                                    1  4  py  -0.28108    1  5  px  -0.67408    1  5  py  -1.52048    1  5  pz   0.70283
                                    1  6  px  -1.88462    1  6  py  -3.50259    1  6  pz   1.67681    1 10  px   1.42198
                                    1 10  py   2.40649    1 10  pz  -1.00814    2  5  s    1.96487    2  4  py  -0.57662
                                    3  4  s    0.32317    4  5  s   -0.25950    4  4  py  -0.25901    5  4  s    0.68846
                                    6  5  s   -0.47825    6  4  pz  -0.28021    7  4  s   -0.29762    8  5  s   -2.54798
                                    8  4  px  -0.36422    8  4  py  -0.65022    8  4  pz   0.56255    9  4  s   -0.52851
                                   10  6  s    0.25953
   76.1     0.00000     0.03819     1  5  s   -0.35867    1  6  s   -1.26115    1  7  s   -1.60777    1  5  px  -1.36923
                                    1  5  py   0.52374    1  5  pz   0.60274    1  6  px  -4.28610    1  6  py   1.82595
                                    1  6  pz   0.67754    1  7  px   0.41098    1  7  pz   0.52717    1 10  px   2.55201
                                    1 10  py  -0.33794    1 10  pz  -0.52477    1  4  d2+  0.26595    2  5  s    0.72264
                                    2  4  py  -0.53196    2  4  pz   0.41725    3  4  s    0.71442    4  5  s   -1.93562
                                    4  4  px  -0.88397    4  4  py   0.27320    5  4  s   -1.26594    6  5  s    1.09455
                                    6  4  px   0.28284    6  4  py   0.59457    6  4  pz   1.01331    7  3  s    0.27506
                                    7  4  s    1.75454    9  4  s    0.49741   10  6  s    0.85737   10  5  px  -0.37079
   77.1     0.00000     0.04657     1  5  s   -0.29592    1  6  s   -1.00827    1  7  s   -1.20088    1 11  s   -3.72872
                                    1  5  px  -0.38468    1  5  pz  -0.63224    1  6  px  -1.47572    1  6  py  -0.71602
                                    1  6  pz  -1.80680    1 10  px   1.51520    1 10  pz   1.39255    1  4  d2- -0.27285
                                    1  4  d2+  0.29883    1  4  d1-  0.34462    1  8  d2- -0.46547    1  8  d1+  0.35692
                                    1  8  d1-  0.67109    2  5  s    1.19951    2  4  py  -0.59529    2  4  pz   0.65821
                                    3  3  s    0.29782    3  4  s    2.90709    4  5  s   -0.78954    5  4  s    0.68019
                                    6  5  s   -1.17122    6  4  pz  -0.52241    7  4  s   -0.60284    8  5  s    1.15293
                                    8  4  px   0.51019    8  4  py   0.74335    8  4  pz  -0.33932    9  3  s    0.28678
                                    9  4  s    2.76797
   78.1     0.00000     0.05886     1  6  s   -0.33605    1 11  s   -5.70649    1  5  px  -0.76315    1  5  py   0.51070
                                    1  5  pz  -0.68852    1  6  px  -4.84494    1  6  py   1.91536    1  6  pz  -2.90399
                                    1  7  px   1.50931    1  7  py  -0.31895    1  7  pz   0.57670    1  8  px  -0.39534
                                    1 10  px   5.30340    1 10  py  -2.27846    1 10  pz   2.50188    1  8  d0   0.57963
                                    1  8  d2-  0.71630    1  8  d2+ -0.64783    2  5  s   -0.63515    3  4  s    0.39169
                                    4  4  s   -0.31230    4  5  s   -1.94602    4  4  px   0.47563    4  4  py  -0.68499
                                    4  4  pz   0.61708    5  3  s    1.35613    5  4  s    5.63832    6  5  s   -1.14716
                                    6  4  pz   0.26914    7  3  s    0.44361    7  4  s    1.17853    8  5  s    0.46820
                                    8  4  px   0.38956    8  4  py   0.25446    9  4  s    0.45895   10  6  s    2.01042
                                   10  5  px  -0.77597   10  5  pz  -0.27187
   79.1     0.00000     0.06318     1  6  s   -0.71671    1  7  s   -0.85838    1 11  s   -3.30009    1  5  pz   0.59490
                                    1  6  px   0.45069    1  6  py  -0.67395    1  6  pz   0.58969    1  7  pz   0.35107
                                    1 10  px   0.33488    1 10  py   2.46949    1 10  pz   1.82180    1  4  d0  -0.26588
                                    1  4  d1- -0.26344    1  8  d0  -0.60815    1  8  d2+  0.44598    1  8  d1- -0.67517
                                    1  2  f1- -0.25042    2  5  s    0.42331    2  4  py  -0.29873    4  4  px   0.30270
                                    6  3  py   0.28627    6  4  px   0.32882    6  4  py   0.76618    7  3  s    1.13260
                                    7  4  s    4.49020    7  3  pz   0.25509    8  5  s   -0.37747    9  4  s    0.68606
                                   10  6  s   -0.79032   10  5  py  -0.26483
   80.1     0.00000     0.07211     1 11  s   -0.70158    1  6  px  -1.18595    1  6  py  -0.27229    1  6  pz   0.72995
                                    1  7  px   0.33295    1  7  py   0.41333    1 10  px   3.18197    1 10  py   3.90695
                                    1 10  pz  -3.66520    1  8  d2+ -0.26323    2  4  s    0.31456    2  5  s    1.74877
                                    2  3  pz  -0.27563    2  4  py   0.37669    2  4  pz  -1.15318    3  3  s   -1.39007
                                    3  4  s   -5.14564    3  3  pz  -0.27396    4  5  s   -0.45870    5  4  s    0.57963
                                    6  5  s    0.62554    7  3  s   -0.39211    8  4  s   -0.35558    8  5  s   -2.19011
                                    8  3  px   0.25236    8  4  px   0.95086    8  4  py   0.51749    9  3  s    1.52154
                                    9  4  s    5.49043    9  3  px   0.34612   10  5  py  -0.28615
   81.1     0.00000     0.09016     1  4  s   -0.31578    1  5  s   -0.99981    1  6  s   -3.70772    1  7  s   -5.37995
                                    1  8  s    0.38294    1 11  s   13.05273    1  5  px   0.85945    1  5  py  -0.74716
                                    1  6  px   2.07901    1  6  py  -2.00401    1  7  px   0.27403    1  7  pz   0.46418
                                    1 10  px  -2.44713    1 10  py   0.93329    1 10  pz  -1.97915    1  4  d1+  0.39024
                                    1  4  d2+  0.60052    1  5  d2+ -0.31737    1  8  d0   0.56207    1  8  d2-  0.57620
                                    1  8  d2+  0.90361    1  8  d1- -0.66537    1  6  f3- -0.34661    2  4  s    0.39849
                                    2  5  s    2.38209    2  4  px  -0.63818    2  4  py  -0.53033    2  4  pz   0.73965
                                    3  3  s   -0.62740    3  4  s   -2.38053    3  3  px   0.25334    3  3  py   0.34769
                                    3  3  pz  -0.26848    4  5  s    1.15229    4  4  py   0.53697    5  4  s   -3.03085
                                    6  5  s    0.41787    6  4  py  -0.79345    6  4  pz   0.35070    7  3  s   -0.34303
                                    7  4  s   -3.32141    8  4  s    0.25493    8  5  s    0.67973    8  4  px   0.35178
                                    8  4  pz  -0.64019    9  4  s   -1.76663    9  3  pz   0.30434   10  6  s   -2.80746
                                   10  4  px   0.54465   10  5  px   0.68514   10  5  py  -0.37208
   82.1     0.00000     0.09385     1 11  s   -3.19928    1  5  px   0.55580    1  6  px   2.69976    1  6  pz   0.81118
                                    1  7  px  -0.59529    1  7  pz  -0.30836    1 10  px  -0.83250    1 10  pz   0.26300
                                    1  4  d2-  0.56946    1  4  d1+  0.40130    1  4  d2+ -0.25960    1  8  d2-  0.28566
                                    1  8  d1+  0.66961    1  8  d2+ -0.32356    1  8  d1-  0.26732    1  2  f1+  0.49028
                                    1  2  f2-  0.33372    2  5  s   -0.65376    2  4  pz  -0.37355    3  4  s    0.84680
                                    4  5  s    2.00906    4  4  pz   0.32972    5  3  s   -0.43751    5  4  s    1.05399
                                    6  4  px   0.30769    6  4  py   0.28571    7  4  s    0.74575    9  4  s    0.56557
                                   10  6  s    0.43547   10  5  pz  -0.36076


 HOMO     72.1    -0.407506 =     -11.0888eV
 LUMO     73.1     0.012570 =       0.3420eV
 LUMO-HOMO         0.420076 =      11.4309eV

 Orbitals saved in record  2100.2


 **********************************************************************************************************************************
 DATASETS  * FILE   NREC   LENGTH (MB)   RECORD NAMES
              1      22       48.62       500      610      700      900      950      970     1000      129      960     1700   
                                          VAR    BASINP    GEOM    SYMINP    ZMAT    AOBASIS   BASIS     P2S    ABASIS    OPER   
                                         1101     1401     1411     1412     1650     1100     1400     1410     1200     1210   
                                          SR      EKINR    POTR     PVPR    MOLCAS      S      EKIN      POT      H0       H01  
                                         1080     1600   
                                         AOSYM     SMH  

              2       6       15.72       500      610      700     1000      520     2100   
                                          VAR    BASINP    GEOM     BASIS   MCVARS     RHF  

 PROGRAMS   *        TOTAL    HF-SCF       INT      FILE
 CPU TIMES  *       487.67    157.55    329.91      0.00
 REAL TIME  *       527.58 SEC
 DISK USED  *        80.80 MB (local),       92.72 GB (total)
 GA USED    *         0.01 MB       (max)       0.00 MB       (current)
 **********************************************************************************************************************************


 PROGRAM * CCSD (Closed-shell coupled cluster)     Authors: C. Hampel, H.-J. Werner, 1991, M. Deegan, P.J. Knowles, 1992


 Convergence thresholds:  THRVAR = 1.00D-08  THRDEN = 1.00D-06

 CCSD(T)     terms to be evaluated (factor= 1.000)


 Number of core orbitals:          48 (  48 )
 Number of closed-shell orbitals:  24 (  24 )
 Number of external orbitals:     415 ( 415 )

 Molecular orbitals read from record     2100.2  Type=RHF/CANONICAL  

 Number of N-1 electron functions:              24
 Number of N-2 electron functions:             300
 Number of singly external CSFs:              9960
 Number of doubly external CSFs:          49605780
 Total number of CSFs:                    49615741

 Length of J-op  integral file:               0.00 MB
 Length of K-op  integral file:              16.29 MB
 Length of 3-ext integral record:             0.00 MB

 Memory could be reduced to 2010.25 Mwords without degradation in triples

 Integral transformation finished. Total CPU: 699.92 sec, npass=  1  Memory used:1565.86 MW

 Reference energy:                 -27984.41081242

 MP2 singlet pair energy:              -0.98082517
 MP2 triplet pair energy:              -0.66082537
 MP2 correlation energy:               -1.64165054
 MP2 total energy:                 -27986.05246297

 SCS-MP2 correlation energy:           -1.58817044   (PS=  1.200000  PT=  0.333333)
 SCS-MP2 total energy:             -27985.99898286

 ITER.      SQ.NORM     CORR.ENERGY   TOTAL ENERGY   ENERGY CHANGE        DEN1      VAR(S)    VAR(P)  DIIS     TIME  TIME/IT
   1      1.44864398    -1.65274592-27986.06355834    -0.01109538     0.05205517  0.29D-01  0.12D-01  1  1  1125.87   426.22
   2      1.47968330    -1.64349375-27986.05430618     0.00925217    -0.04284582  0.39D-03  0.22D-02  2  2  1560.00   434.23
   3      1.50055021    -1.64575574-27986.05656816    -0.00226198    -0.00544618  0.12D-02  0.15D-03  3  3  1994.94   437.33
   4      1.51232528    -1.64442480-27986.05523723     0.00133094    -0.00361632  0.19D-03  0.36D-04  4  4  2434.20   439.90
   5      1.52119560    -1.64372221-27986.05453464     0.00070259    -0.00166755  0.40D-04  0.49D-05  5  5  2870.79   441.04
   6      1.52388452    -1.64356573-27986.05437815     0.00015648    -0.00018659  0.62D-05  0.18D-05  6  6  3308.33   441.84
   7      1.52514201    -1.64344459-27986.05425701     0.00012114    -0.00004712  0.15D-05  0.28D-06  6  1  3744.48   442.20
   8      1.52552602    -1.64343729-27986.05424972     0.00000730    -0.00005487  0.27D-06  0.60D-07  6  2  4179.12   442.24
   9      1.52558171    -1.64344340-27986.05425583    -0.00000611     0.00001451  0.53D-07  0.14D-07  6  4  4615.40   442.49
  10      1.52560345    -1.64344583-27986.05425825    -0.00000243    -0.00000202  0.11D-07  0.30D-08  6  3  5055.71   443.09
  11      1.52561542    -1.64344475-27986.05425717     0.00000108    -0.00000393  0.34D-08  0.76D-09  6  5  5494.77   443.47
  12      1.52561156    -1.64344684-27986.05425927    -0.00000209     0.00000387  0.99D-09  0.26D-09  6  1  5928.15   443.31
  13      1.52561147    -1.64344633-27986.05425876     0.00000051    -0.00000018  0.17D-09  0.52D-10  6  6  6371.84   443.96
  14      1.52561042    -1.64344685-27986.05425927    -0.00000051     0.00000064  0.36D-10  0.95D-11  6  2  6810.55   444.17

 Norm of t1 vector:      0.23627336      S-energy:     0.00000024      T1 diagnostic:  0.02411455
                                                                       D1 diagnostic:  0.07137430
                                                                       D2 diagnostic:  0.14808456 (internal)

   CPU time for triples:   2000.76 sec for i =  1 -  6 / 24 (~   1.9 % done)
   CPU time for triples:   2733.04 sec for i =  7 - 17 / 24 (~  37.0 % done)
   CPU time for triples:   2808.94 sec for i = 18 - 21 / 24 (~  67.9 % done)
   CPU time for triples:   2503.07 sec for i = 22 - 23 / 24 (~  88.4 % done)
   CPU time for triples:   1216.51 sec for i = 24 - 24 / 24 (  100.0 % done)

 Total CPU time for triples:  11277.14 sec


 RESULTS
 =======

  Reference energy                   -27984.4108124249    
  CCSD singlet pair energy             -1.056595590062
  CCSD triplet pair energy             -0.586851501886
  CCSD correlation energy              -1.643446847766

  Triples (T) contribution             -0.082093772205
  Total correlation energy             -1.725540619971

  CCSD total energy                  -27986.0542592727    
  CCSD[T] energy                     -27986.1475459140    
  CCSD-T energy                      -27986.1326793257    
 !CCSD(T) total energy               -27986.1363530449    

 Timing summary (sec):

 STEP                 CPU(USER)    SYS     CPU(TOT)    WALL
 Transformation        703.24     33.53    736.77    738.31
 CCSD iterations      6121.47    106.57   6228.04   6232.60
 Triples             11277.14    108.67  11385.81  11383.62

 Program statistics:

 Available memory in ccsd:              2499997624
 Min. memory needed in ccsd:             114731579
 Max. memory used in ccsd:               160716983
 Max. memory used in cckext:             144840417 (14 integral passes)



 **********************************************************************************************************************************
 DATASETS  * FILE   NREC   LENGTH (MB)   RECORD NAMES
              1      23     7426.41       500      610      700      900      950      970     1000      129      960     1700   
                                          VAR    BASINP    GEOM    SYMINP    ZMAT    AOBASIS   BASIS     P2S    ABASIS    OPER   
                                         1101     1401     1411     1412     1650     1100     1400     1410     1200     1210   
                                          SR      EKINR    POTR     PVPR    MOLCAS      S      EKIN      POT      H0       H01  
                                         1080     1600     1380   
                                         AOSYM     SMH     JKOP   

              2       6       15.72       500      610      700     1000      520     2100   
                                          VAR    BASINP    GEOM     BASIS   MCVARS     RHF  

 PROGRAMS   *        TOTAL   CCSD(T)    HF-SCF       INT      FILE
 CPU TIMES  *     18590.01  18101.94    157.55    329.91      0.00
 REAL TIME  *     18886.68 SEC
 DISK USED  *        11.89 GB (local),      154.85 GB (total)
 SF USED    *        12.65 GB
 GA USED    *         0.01 MB       (max)       0.00 MB       (current)
 **********************************************************************************************************************************
 SETTING ENERGY_HF(1)   =    -27984.41081242  AU                              
 SETTING CORR_MP2(1)    =        -1.64165054  AU                              
 SETTING CORR_CCSDT(1)  =        -1.72554062  AU                              

 CCSD(T)/PA=CC-PVTZ-X2C,O=AUG-CC-PVTZ-X2C,H=AUG-CC-PVTZ-X2C,CL=AUG-CC-PVTZ-X2C energy= -27986.136353044913

         CCSD(T)          HF-SCF
 -27986.13635304 -27984.41081243
 **********************************************************************************************************************************
 Molpro calculation terminated
