

 Parallel Execution: Process Information
 ==============================================================================
 Rank   Node Name                              NodeID   MyNodeRank  NodeMaster
    0   u-0-10.local                              0          0          0
    1   u-0-10.local                              0          1         -1
    2   u-0-10.local                              0          2         -1
    3   u-0-10.local                              0          3         -1
    4   u-0-10.local                              1          0          1
    5   u-0-10.local                              1          1         -1
    6   u-0-10.local                              1          2         -1
    7   u-0-10.local                              1          3         -1
 ==============================================================================


May use up to 62450MB of RAM as shared memory on node 0
May use up to 124950MB of RAM as shared memory on node 1

 *******************************************************************************
 *                                                                             *
 *  --------------------------------                                           *
 *   Amsterdam Modeling Suite (AMS)              2022.103                      *
 *  --------------------------------                                           *
 *                                               r104886 2022-06-17            *
 *                                                                             *
 *                                                                             *
 *                              =================                              *
 *                              |               |                              *
 *                              |     A M S     |                              *
 *                              |               |                              *
 *                              =================                              *
 *                                                                             *
 *                                                                             *
 *   Online information and documentation:  https://www.scm.com/support/       *
 *   E-mail:  support@scm.com   info@scm.com                                   *
 *                                                                             *
 *   Scientific publications using AMS results must be properly referenced     *
 *   See the User Manuals (or the web site) for recommended citations          *
 *   The terms and conditions of the End User License Agreement apply to       *
 *   the use of AMS, https://www.scm.com/license-terms/                        *
 *                                                                             *
 **********************  x86_64_linux_intel / intelmpi  ************************
 
 Licensed to: Dr. Val?rie Vallet / Laboratoire PhLAM UMR 8523 / Villeneuve d'Ascq Cedex / FRANCE 2023-03-27 15:45:49
 SCM User ID: u10325
  
 AMS 2022.103  RunTime: Apr07-2023 22:42:10  ShM Nodes: 2  Procs: 8

 AMS jobname: pao_oh3_h2o.SR.b3lyp.tz2p.opt-freq-A1
 AMS jobid  : 44584011

 Start   directory: /home/shaaban/ams/PhD/hyroxide/pao_oh3_h2o/gp/
 Results directory: /home/shaaban/ams/PhD/hyroxide/pao_oh3_h2o/gp/pao_oh3_h2o.SR.b3lyp.tz2p.opt-freq-A1.results/
 Scratch directory: /state/partition2/shaaban/947652.phlam-s-sakura/amstmp_pao_oh3_h2o.SR.b3lyp.tz2p.opt-freq-A1_kid0.44584011/


 Communication costs MPI_COMM_WORLD:      1.203 usec per message,   0.0133 usec per 8-byte item
 Communication costs for intra-node:      0.510 usec per message,   0.0057 usec per 8-byte item

 RNG seed: 2023459134 -1295319314 1708728888 -1171502697 -720910031 57397987 -1760586411 -1774517260



                      ************************************************************************
                      *  ADF 2022.103  RunTime: Apr07-2023 22:42:11  ShM Nodes: 2  Procs: 8  *
                      ************************************************************************
  
       ***************************
       *  GEOMETRY OPTIMIZATION  *
       ***************************

Optimization Method                    Quasi Newton
Optimization Coordinates               Delocalized Coordinates
Optimize lattice                       F
 
 ------------------------------------------------------
 Convergence criteria (Hartree,Angstrom)
 ------------------------------------------------------
 Maximum gradient               0.000100000000
 Maximum rms gradient           0.000066666667
 Maximum step allowed           0.001000000000
 Maximum rms step allowed       0.000666666667
 Maximum energy change allowe   0.000011000000
 Maximum stress energy allowe   0.000500000000
 
Initial model Hessian                  Automatic Hessian
 
------------------------------------
Quasi-Newton Optimizer Parameters
------------------------------------
Hessian Update Method                  BFGS
Maximum number of steps                  250
First GDIIS cycle                          0
Maximum GDIIS vectors                      0
Trust radius (bohr)                        0.200000
Trust radius varies                        T
Constraints converged at all steps         T
Use projector                              T
 
 Rigid motions settings for: old optimizer
 Atomic rotations (x,y,z):     T T T
 Atomic translations (x,y,z):  T T T
 Tolerance:                   1.000000000000000E-006
 
--------
Geometry
--------
Formula: H5O5Pa
Atoms
  Index Symbol   x (angstrom)   y (angstrom)   z (angstrom)
      1     Pa    -0.25349923     0.56196851     0.32927121
      2      O     1.55944420     1.19588086    -0.57792032
      3      O    -1.28488783     2.40483262     0.47982772
      4      O    -1.53214010    -0.41654456    -1.29912975
      5      O    -0.28203720    -0.11422075     2.06168522
      6      O     0.58865705    -1.92640089     0.00244869
      7      H     0.05558783    -2.38162709    -0.66204922
      8      H     0.48073657    -2.40309667     0.83507262
      9      H     2.33778603     1.60686338    -0.95672234
     10      H    -1.76340441     3.15147397     0.84253454
     11      H    -1.19211066    -0.37518154    -2.19594026
 
Total System Charge             0.00000
Bonding info available!
 
 
----------------
ADF Engine Input
----------------
 
 Basis
 Type TZ2P
 Core None
 End
 XC
 Hybrid B3LYP
 End
 NumericalQuality Good
 

 Title: *** (NO TITLE) ***

Bad geometry: could not add a dihedral for atom    9
 Using automatic Hessian for delocalized coordinates.
 *** GO1_GOStep1 ***



 ======================
 RI Hartree-Fock Scheme
 ======================
  
 Fit Set Quality     : GOOD
 Threshold Quality   : GOOD
 Integration Quality : GOOD
 Response Quality    : DEFAULT
 Is Range Separated  :  F
 
 RIHartreeFock Dependency: number of modified vectors:           5
  
 Hartree-Fock exchange energy:   -509.148053602833     

 Energy gradients wrt nuclear displacements
 ==========================================

     Atom      Cartesian (a.u./angstrom)
                 X         Y         Z
 ----------------------------------------
     1 Pa    0.027138  0.020957  0.021599
     2 O     0.000616  0.000622  0.003577
     3 O    -0.001525 -0.000975 -0.000747
     4 O    -0.032345 -0.018432 -0.032906
     5 O     0.000683 -0.001689  0.002118
     6 O    -0.004533  0.001986 -0.001841
     7 H     0.003129 -0.002700 -0.001541
     8 H    -0.000180 -0.000047  0.000078
     9 H    -0.000146 -0.000358 -0.001191
    10 H     0.000157  0.000263  0.000104
    11 H     0.007006  0.000376  0.010747
 ----------------------------------------
 Mulliken charges used for AMS results%charges...
 
----------------------------------------------------------------------
Geometry Convergence after Step   1       (Hartree/Angstrom,Angstrom)
----------------------------------------------------------------------
current energy                               -2.97300881 Hartree
energy change                      -2.97300881     0.00001100    F
constrained gradient max            0.03287984     0.00010000    F
constrained gradient rms            0.01148102     0.00006667    F
gradient max                        0.03288114
gradient rms                        0.01148102
cart. step max                      0.05668197     0.00100000    F
cart. step rms                      0.01737789     0.00066667    F
 
 
--------
Geometry
--------
Formula: H5O5Pa
Atoms
  Index Symbol   x (angstrom)   y (angstrom)   z (angstrom)
      1     Pa    -0.25585502     0.54984391     0.32451638
      2      O     1.55372680     1.18943978    -0.58600757
      3      O    -1.28346073     2.39462579     0.47722724
      4      O    -1.50575029    -0.40693837    -1.31044741
      5      O    -0.28955962    -0.12740339     2.05517895
      6      O     0.59947171    -1.93590794     0.01544688
      7      H     0.03947837    -2.39095984    -0.62621981
      8      H     0.50755012    -2.40184411     0.85594797
      9      H     2.32886631     1.60971266    -0.96089465
     10      H    -1.75988101     3.14187894     0.84122232
     11      H    -1.22045444    -0.31849957    -2.22689219
 
Total System Charge             0.00000
Bonding info available!
 
 *** GO1_GOStep2 ***



 ======================
 RI Hartree-Fock Scheme
 ======================
  
 Fit Set Quality     : GOOD
 Threshold Quality   : GOOD
 Integration Quality : GOOD
 Response Quality    : DEFAULT
 Is Range Separated  :  F
 
 RIHartreeFock Dependency: number of modified vectors:           5
  
 Hartree-Fock exchange energy:   -509.152502921824     

 Energy gradients wrt nuclear displacements
 ==========================================

     Atom      Cartesian (a.u./angstrom)
                 X         Y         Z
 ----------------------------------------
     1 Pa    0.021983  0.017090  0.020313
     2 O     0.000208  0.000437  0.003483
     3 O    -0.000656 -0.001914 -0.000560
     4 O    -0.030446 -0.015534 -0.021530
     5 O     0.000965 -0.000623 -0.000992
     6 O    -0.003360  0.002082 -0.001476
     7 H     0.002608 -0.002163  0.000203
     8 H    -0.000199 -0.000324 -0.000504
     9 H    -0.000268 -0.000387 -0.001133
    10 H     0.000153  0.000221  0.000059
    11 H     0.009011  0.001114  0.002137
 ----------------------------------------
 Mulliken charges used for AMS results%charges...

 dE(predicted):    -0.89749E-03, dE(actual):    -0.16598E-02, Trust radius:    0.400000, all in a.u.
 
----------------------------------------------------------------------
Geometry Convergence after Step   2       (Hartree/Angstrom,Angstrom)
----------------------------------------------------------------------
current energy                               -2.97466861 Hartree
energy change                      -0.00165980     0.00001100    F
constrained gradient max            0.03045186     0.00010000    F
constrained gradient rms            0.00946611     0.00006667    F
gradient max                        0.03045271
gradient rms                        0.00946611
cart. step max                      0.08377220     0.00100000    F
cart. step rms                      0.02834046     0.00066667    F
 
 
--------
Geometry
--------
Formula: H5O5Pa
Atoms
  Index Symbol   x (angstrom)   y (angstrom)   z (angstrom)
      1     Pa    -0.25959286     0.52536841     0.31784669
      2      O     1.54138807     1.17844369    -0.60425221
      3      O    -1.27554598     2.37891064     0.46989983
      4      O    -1.42197809    -0.38687293    -1.31700155
      5      O    -0.31294427    -0.14974826     2.04931519
      6      O     0.62085253    -1.95396423     0.03469726
      7      H     0.01227564    -2.38313883    -0.58151953
      8      H     0.53455322    -2.40687867     0.88322685
      9      H     2.30754199     1.62595405    -0.96541935
     10      H    -1.74786825     3.12807906     0.83472244
     11      H    -1.28454978    -0.25220508    -2.26243750
 
Total System Charge             0.00000
Bonding info available!
 
 *** GO1_GOStep3 ***



 ======================
 RI Hartree-Fock Scheme
 ======================
  
 Fit Set Quality     : GOOD
 Threshold Quality   : GOOD
 Integration Quality : GOOD
 Response Quality    : DEFAULT
 Is Range Separated  :  F
 
 RIHartreeFock Dependency: number of modified vectors:           5
  
 Hartree-Fock exchange energy:   -509.168678921079     

 Energy gradients wrt nuclear displacements
 ==========================================

     Atom      Cartesian (a.u./angstrom)
                 X         Y         Z
 ----------------------------------------
     1 Pa    0.004521  0.003634  0.005427
     2 O    -0.000817  0.000175  0.003003
     3 O     0.001437 -0.003210  0.000373
     4 O    -0.013607 -0.005080 -0.000082
     5 O     0.001394  0.001324 -0.004393
     6 O    -0.000413  0.002861  0.000268
     7 H    -0.000045 -0.000991  0.000231
     8 H     0.000141 -0.000628 -0.000223
     9 H    -0.000479 -0.000347 -0.001003
    10 H     0.000087  0.000165 -0.000128
    11 H     0.007781  0.002098 -0.003473
 ----------------------------------------
 Mulliken charges used for AMS results%charges...

 dE(predicted):    -0.27765E-02, dE(actual):    -0.30733E-02, Trust radius:    0.800000, all in a.u.
 
----------------------------------------------------------------------
Geometry Convergence after Step   3       (Hartree/Angstrom,Angstrom)
----------------------------------------------------------------------
current energy                               -2.97774194 Hartree
energy change                      -0.00307333     0.00001100    F
constrained gradient max            0.01361842     0.00010000    F
constrained gradient rms            0.00351432     0.00006667    F
gradient max                        0.01361891
gradient rms                        0.00351433
cart. step max                      0.08636332     0.00100000    F
cart. step rms                      0.02275477     0.00066667    F
 
 
--------
Geometry
--------
Formula: H5O5Pa
Atoms
  Index Symbol   x (angstrom)   y (angstrom)   z (angstrom)
      1     Pa    -0.25499924     0.51022958     0.31292770
      2      O     1.54448906     1.17139503    -0.61259033
      3      O    -1.26765632     2.37056775     0.45789064
      4      O    -1.35183467    -0.37509222    -1.31903134
      5      O    -0.33710495    -0.16536506     2.04667348
      6      O     0.64050311    -1.96647838     0.04537917
      7      H     0.00736814    -2.36892014    -0.56427309
      8      H     0.54100841    -2.41260518     0.89604875
      9      H     2.30435153     1.64294661    -0.95607187
     10      H    -1.74107976     3.11945581     0.82143271
     11      H    -1.37091311    -0.22218594    -2.26930772
 
Total System Charge             0.00000
Bonding info available!
 
 *** GO1_GOStep4 ***



 ======================
 RI Hartree-Fock Scheme
 ======================
  
 Fit Set Quality     : GOOD
 Threshold Quality   : GOOD
 Integration Quality : GOOD
 Response Quality    : DEFAULT
 Is Range Separated  :  F
 
 RIHartreeFock Dependency: number of modified vectors:           5
  
 Hartree-Fock exchange energy:   -509.178987933116     

 Energy gradients wrt nuclear displacements
 ==========================================

     Atom      Cartesian (a.u./angstrom)
                 X         Y         Z
 ----------------------------------------
     1 Pa   -0.008773 -0.007352 -0.012484
     2 O    -0.000964 -0.000123  0.001675
     3 O     0.001821 -0.002347  0.001433
     4 O     0.001693  0.003940  0.014182
     5 O     0.001158  0.001261 -0.002535
     6 O     0.000741  0.002220  0.000900
     7 H    -0.001137  0.000588  0.000708
     8 H     0.000411 -0.000551 -0.000392
     9 H    -0.000497 -0.000124 -0.000734
    10 H     0.000063  0.000163 -0.000340
    11 H     0.005485  0.002324 -0.002414
 ----------------------------------------
 Mulliken charges used for AMS results%charges...

 dE(predicted):    -0.85353E-03, dE(actual):    -0.98722E-03, Trust radius:    0.800000, all in a.u.
 
----------------------------------------------------------------------
Geometry Convergence after Step   4       (Hartree/Angstrom,Angstrom)
----------------------------------------------------------------------
current energy                               -2.97872916 Hartree
energy change                      -0.00098722     0.00001100    F
constrained gradient max            0.01421705     0.00010000    F
constrained gradient rms            0.00419820     0.00006667    F
gradient max                        0.01421459
gradient rms                        0.00419820
cart. step max                      0.06036417     0.00100000    F
cart. step rms                      0.01277352     0.00066667    F
 
 
--------
Geometry
--------
Formula: H5O5Pa
Atoms
  Index Symbol   x (angstrom)   y (angstrom)   z (angstrom)
      1     Pa    -0.24640121     0.51034782     0.31282385
      2      O     1.55758384     1.17161921    -0.60719751
      3      O    -1.26440323     2.37089551     0.44938976
      4      O    -1.33705792    -0.37732324    -1.31981588
      5      O    -0.34502062    -0.16669781     2.04711537
      6      O     0.64922783    -1.96844348     0.04791712
      7      H     0.02286989    -2.36399710    -0.57302333
      8      H     0.53279400    -2.41501846     0.89621836
      9      H     2.31806091     1.64926656    -0.94101896
     10      H    -1.74224400     3.11783024     0.81113085
     11      H    -1.43127728    -0.22453138    -2.26446152
 
Total System Charge             0.00000
Bonding info available!
 
 *** GO1_GOStep5 ***



 ======================
 RI Hartree-Fock Scheme
 ======================
  
 Fit Set Quality     : GOOD
 Threshold Quality   : GOOD
 Integration Quality : GOOD
 Response Quality    : DEFAULT
 Is Range Separated  :  F
 
 RIHartreeFock Dependency: number of modified vectors:           5
  
 Hartree-Fock exchange energy:   -509.176352533598     

 Energy gradients wrt nuclear displacements
 ==========================================

     Atom      Cartesian (a.u./angstrom)
                 X         Y         Z
 ----------------------------------------
     1 Pa   -0.008008 -0.007411 -0.013107
     2 O    -0.000264 -0.000143  0.000574
     3 O     0.000768 -0.000814  0.001682
     4 O     0.002512  0.004087  0.012166
     5 O     0.000643  0.000312  0.000106
     6 O     0.000582  0.001471  0.000635
     7 H    -0.000910  0.000753  0.000668
     8 H     0.000494 -0.000370 -0.000226
     9 H    -0.000395  0.000028 -0.000549
    10 H     0.000085  0.000189 -0.000394
    11 H     0.004492  0.001898 -0.001554
 ----------------------------------------
 Mulliken charges used for AMS results%charges...

 dE(predicted):    -0.23387E-03, dE(actual):    -0.41608E-03, Trust radius:    0.800000, all in a.u.
 
----------------------------------------------------------------------
Geometry Convergence after Step   5       (Hartree/Angstrom,Angstrom)
----------------------------------------------------------------------
current energy                               -2.97914523 Hartree
energy change                      -0.00041608     0.00001100    F
constrained gradient max            0.01311841     0.00010000    F
constrained gradient rms            0.00388802     0.00006667    F
gradient max                        0.01311720
gradient rms                        0.00388803
cart. step max                      0.21535720     0.00100000    F
cart. step rms                      0.05107934     0.00066667    F
 
 
--------
Geometry
--------
Formula: H5O5Pa
Atoms
  Index Symbol   x (angstrom)   y (angstrom)   z (angstrom)
      1     Pa    -0.21129928     0.52168453     0.31214622
      2      O     1.61407248     1.18347427    -0.57300732
      3      O    -1.24935555     2.37927095     0.41494169
      4      O    -1.30633212    -0.38723733    -1.31900782
      5      O    -0.36686606    -0.16263430     2.04221697
      6      O     0.67312222    -1.96813819     0.04469141
      7      H     0.08854465    -2.33933285    -0.62977531
      8      H     0.48288704    -2.42246666     0.87532468
      9      H     2.38157250     1.67510846    -0.86913794
     10      H    -1.74557918     3.11700463     0.77085051
     11      H    -1.64663448    -0.29278565    -2.21016500
 
Total System Charge             0.00000
Bonding info available!
 
 *** GO1_GOStep6 ***



 ======================
 RI Hartree-Fock Scheme
 ======================
  
 Fit Set Quality     : GOOD
 Threshold Quality   : GOOD
 Integration Quality : GOOD
 Response Quality    : DEFAULT
 Is Range Separated  :  F
 
 RIHartreeFock Dependency: number of modified vectors:           5
  
 Hartree-Fock exchange energy:   -509.165610422746     

 Energy gradients wrt nuclear displacements
 ==========================================

     Atom      Cartesian (a.u./angstrom)
                 X         Y         Z
 ----------------------------------------
     1 Pa    0.000759 -0.003531 -0.004831
     2 O     0.001559 -0.000091 -0.002476
     3 O    -0.002744  0.003508  0.001430
     4 O    -0.001196  0.001638  0.000998
     5 O    -0.001145 -0.001980  0.004985
     6 O    -0.000615 -0.000593 -0.000293
     7 H     0.000251  0.000296 -0.000256
     8 H     0.000476  0.000302  0.000318
     9 H    -0.000134  0.000420  0.000194
    10 H     0.000243  0.000205 -0.000458
    11 H     0.002547 -0.000175  0.000389
 ----------------------------------------
 Mulliken charges used for AMS results%charges...
 Rebuilding optimization coordinates

 dE(predicted):    -0.10487E-02, dE(actual):    -0.10198E-02, Trust radius:    1.000000, all in a.u.
 
----------------------------------------------------------------------
Geometry Convergence after Step   6       (Hartree/Angstrom,Angstrom)
----------------------------------------------------------------------
current energy                               -2.98016507 Hartree
energy change                      -0.00101984     0.00001100    F
constrained gradient max            0.00499787     0.00010000    F
constrained gradient rms            0.00183097     0.00006667    F
gradient max                        0.00499759
gradient rms                        0.00183097
cart. step max                      0.09905086     0.00100000    F
cart. step rms                      0.02812031     0.00066667    F
 
 
--------
Geometry
--------
Formula: H5O5Pa
Atoms
  Index Symbol   x (angstrom)   y (angstrom)   z (angstrom)
      1     Pa    -0.19612068     0.52969792     0.30762147
      2      O     1.64178717     1.19479559    -0.54938370
      3      O    -1.23882011     2.38499112     0.39519564
      4      O    -1.29639656    -0.38797751    -1.31786402
      5      O    -0.37510203    -0.15777982     2.03231967
      6      O     0.68230827    -1.96506702     0.03573824
      7      H     0.11535974    -2.31989150    -0.66231312
      8      H     0.45385007    -2.42405374     0.85401278
      9      H     2.41624440     1.68824550    -0.82391061
     10      H    -1.74329272     3.11733282     0.75093272
     11      H    -1.74568534    -0.35634551    -2.16327097
 
Total System Charge             0.00000
Bonding info available!
 
 *** GO1_GOStep7 ***



 ======================
 RI Hartree-Fock Scheme
 ======================
  
 Fit Set Quality     : GOOD
 Threshold Quality   : GOOD
 Integration Quality : GOOD
 Response Quality    : DEFAULT
 Is Range Separated  :  F
 
 RIHartreeFock Dependency: number of modified vectors:           5
  
 Hartree-Fock exchange energy:   -509.165057698384     

 Energy gradients wrt nuclear displacements
 ==========================================

     Atom      Cartesian (a.u./angstrom)
                 X         Y         Z
 ----------------------------------------
     1 Pa    0.003480 -0.002242  0.000472
     2 O     0.001200 -0.000185 -0.002871
     3 O    -0.003001  0.003516  0.000699
     4 O    -0.002305  0.001169 -0.001061
     5 O    -0.001341 -0.001550  0.002935
     6 O    -0.001011 -0.000822 -0.000417
     7 H     0.000640 -0.000077 -0.000504
     8 H     0.000157  0.000430  0.000127
     9 H    -0.000018  0.000560  0.000543
    10 H     0.000259  0.000228 -0.000322
    11 H     0.001940 -0.001026  0.000398
 ----------------------------------------
 Mulliken charges used for AMS results%charges...

 dE(predicted):    -0.17834E-03, dE(actual):    -0.15337E-03, Trust radius:    1.000000, all in a.u.
 
----------------------------------------------------------------------
Geometry Convergence after Step   7       (Hartree/Angstrom,Angstrom)
----------------------------------------------------------------------
current energy                               -2.98031844 Hartree
energy change                      -0.00015337     0.00001100    F
constrained gradient max            0.00352639     0.00010000    F
constrained gradient rms            0.00153806     0.00006667    F
gradient max                        0.00352639
gradient rms                        0.00153806
cart. step max                      0.01893328     0.00100000    F
cart. step rms                      0.00498744     0.00066667    F
 
 
--------
Geometry
--------
Formula: H5O5Pa
Atoms
  Index Symbol   x (angstrom)   y (angstrom)   z (angstrom)
      1     Pa    -0.19608142     0.53045408     0.30353859
      2      O     1.64546255     1.19765597    -0.54207886
      3      O    -1.23760208     2.38429362     0.39049638
      4      O    -1.29860494    -0.38860707    -1.31990895
      5      O    -0.37410803    -0.15566340     2.02767987
      6      O     0.68563161    -1.96353198     0.03348638
      7      H     0.11674780    -2.31740943    -0.66350757
      8      H     0.45586717    -2.42240532     0.85152765
      9      H     2.42430033     1.68583638    -0.81348855
     10      H    -1.74286216     3.11531961     0.74795003
     11      H    -1.76461862    -0.36199461    -2.15661686
 
Total System Charge             0.00000
Bonding info available!
 
 *** GO1_GOStep8 ***



 ======================
 RI Hartree-Fock Scheme
 ======================
  
 Fit Set Quality     : GOOD
 Threshold Quality   : GOOD
 Integration Quality : GOOD
 Response Quality    : DEFAULT
 Is Range Separated  :  F
 
 RIHartreeFock Dependency: number of modified vectors:           5
  
 Hartree-Fock exchange energy:   -509.166436451042     

 Energy gradients wrt nuclear displacements
 ==========================================

     Atom      Cartesian (a.u./angstrom)
                 X         Y         Z
 ----------------------------------------
     1 Pa    0.002948 -0.001785  0.001424
     2 O     0.000676 -0.000272 -0.002426
     3 O    -0.002176  0.002397  0.000550
     4 O    -0.002022  0.001190 -0.000387
     5 O    -0.001055 -0.000938  0.001296
     6 O    -0.000644 -0.000507 -0.000365
     7 H     0.000552 -0.000095 -0.000244
     8 H    -0.000044  0.000233  0.000027
     9 H    -0.000003  0.000526  0.000545
    10 H     0.000204  0.000198 -0.000258
    11 H     0.001566 -0.000947 -0.000161
 ----------------------------------------
 Mulliken charges used for AMS results%charges...

 dE(predicted):    -0.33820E-04, dE(actual):    -0.22457E-05, Trust radius:    0.020000, all in a.u.
 
----------------------------------------------------------------------
Geometry Convergence after Step   8       (Hartree/Angstrom,Angstrom)
----------------------------------------------------------------------
current energy                               -2.98032069 Hartree
energy change                      -0.00000225     0.00001100    T
constrained gradient max            0.00295147     0.00010000    F
constrained gradient rms            0.00117693     0.00006667    F
gradient max                        0.00295147
gradient rms                        0.00117693
cart. step max                      0.00586532     0.00100000    F
cart. step rms                      0.00269792     0.00066667    F
 
 
--------
Geometry
--------
Formula: H5O5Pa
Atoms
  Index Symbol   x (angstrom)   y (angstrom)   z (angstrom)
      1     Pa    -0.19830828     0.53029057     0.30049741
      2      O     1.64523478     1.19853091    -0.53707323
      3      O    -1.23775531     2.38237348     0.38753757
      4      O    -1.30321082    -0.39097741    -1.32047631
      5      O    -0.37030011    -0.15274931     2.02546951
      6      O     0.68759243    -1.96208349     0.03307299
      7      H     0.11704766    -2.31645594    -0.66248513
      8      H     0.45976472    -2.42151032     0.85139599
      9      H     2.42712547     1.68135628    -0.80896577
     10      H    -1.74257440     3.11290388     0.74675999
     11      H    -1.77048394    -0.35773080    -2.15665490
 
Total System Charge             0.00000
Bonding info available!
 
 *** GO1_GOStep9 ***



 ======================
 RI Hartree-Fock Scheme
 ======================
  
 Fit Set Quality     : GOOD
 Threshold Quality   : GOOD
 Integration Quality : GOOD
 Response Quality    : DEFAULT
 Is Range Separated  :  F
 
 RIHartreeFock Dependency: number of modified vectors:           5
  
 Hartree-Fock exchange energy:   -509.168402227002     

 Energy gradients wrt nuclear displacements
 ==========================================

     Atom      Cartesian (a.u./angstrom)
                 X         Y         Z
 ----------------------------------------
     1 Pa    0.001895 -0.000926  0.001565
     2 O     0.000061 -0.000425 -0.001780
     3 O    -0.001013  0.000803  0.000473
     4 O    -0.001660  0.001313  0.000458
     5 O    -0.000690 -0.000348 -0.000166
     6 O    -0.000290 -0.000225 -0.000081
     7 H     0.000387 -0.000076 -0.000243
     8 H    -0.000129  0.000102 -0.000016
     9 H    -0.000079  0.000438  0.000508
    10 H     0.000144  0.000140 -0.000211
    11 H     0.001375 -0.000796 -0.000508
 ----------------------------------------
 Mulliken charges used for AMS results%charges...

 dE(predicted):    -0.37715E-04, dE(actual):    -0.10013E-03, Trust radius:    0.040000, all in a.u.
 
----------------------------------------------------------------------
Geometry Convergence after Step   9       (Hartree/Angstrom,Angstrom)
----------------------------------------------------------------------
current energy                               -2.98042082 Hartree
energy change                      -0.00010013     0.00001100    F
constrained gradient max            0.00189810     0.00010000    F
constrained gradient rms            0.00079999     0.00006667    F
gradient max                        0.00189810
gradient rms                        0.00079999
cart. step max                      0.01191175     0.00100000    F
cart. step rms                      0.00508025     0.00066667    F
 
 
--------
Geometry
--------
Formula: H5O5Pa
Atoms
  Index Symbol   x (angstrom)   y (angstrom)   z (angstrom)
      1     Pa    -0.20124289     0.53078759     0.29508226
      2      O     1.64677918     1.20132358    -0.52700465
      3      O    -1.23909489     2.37994765     0.38199236
      4      O    -1.31095186    -0.39689603    -1.32157519
      5      O    -0.36236585    -0.14675458     2.02253732
      6      O     0.68999987    -1.95947728     0.03088172
      7      H     0.11632609    -2.31474863    -0.66182005
      8      H     0.46601269    -2.41971039     0.84984942
      9      H     2.43483007     1.67326950    -0.79995026
     10      H    -1.74376452     3.10906418     0.74457882
     11      H    -1.78239568    -0.35285775    -2.15549363
 
Total System Charge             0.00000
Bonding info available!
 
 *** GO1_GOStep10 ***



 ======================
 RI Hartree-Fock Scheme
 ======================
  
 Fit Set Quality     : GOOD
 Threshold Quality   : GOOD
 Integration Quality : GOOD
 Response Quality    : DEFAULT
 Is Range Separated  :  F
 
 RIHartreeFock Dependency: number of modified vectors:           5
  
 Hartree-Fock exchange energy:   -509.169889373387     

 Energy gradients wrt nuclear displacements
 ==========================================

     Atom      Cartesian (a.u./angstrom)
                 X         Y         Z
 ----------------------------------------
     1 Pa    0.000758  0.000753  0.001318
     2 O    -0.000654 -0.000559 -0.000828
     3 O     0.000568 -0.001220  0.000402
     4 O    -0.001515  0.001019  0.001259
     5 O    -0.000253  0.000126 -0.001221
     6 O     0.000174  0.000114  0.000223
     7 H     0.000248 -0.000075 -0.000129
     8 H    -0.000284 -0.000084 -0.000115
     9 H    -0.000059  0.000355  0.000384
    10 H     0.000001  0.000092 -0.000115
    11 H     0.001018 -0.000521 -0.001179
 ----------------------------------------
 Mulliken charges used for AMS results%charges...

 dE(predicted):    -0.44712E-04, dE(actual):    -0.64170E-04, Trust radius:    0.080000, all in a.u.
 
----------------------------------------------------------------------
Geometry Convergence after Step  10       (Hartree/Angstrom,Angstrom)
----------------------------------------------------------------------
current energy                               -2.98048499 Hartree
energy change                      -0.00006417     0.00001100    F
constrained gradient max            0.00152716     0.00010000    F
constrained gradient rms            0.00069627     0.00006667    F
gradient max                        0.00152716
gradient rms                        0.00069627
cart. step max                      0.01889011     0.00100000    F
cart. step rms                      0.00660762     0.00066667    F
 
 
--------
Geometry
--------
Formula: H5O5Pa
Atoms
  Index Symbol   x (angstrom)   y (angstrom)   z (angstrom)
      1     Pa    -0.20218428     0.53249552     0.28877764
      2      O     1.65210986     1.20634965    -0.51437286
      3      O    -1.24131352     2.37901977     0.37524786
      4      O    -1.31488779    -0.40302449    -1.32370375
      5      O    -0.35442716    -0.14039599     2.01877186
      6      O     0.69139217    -1.95685693     0.02557963
      7      H     0.11203958    -2.31170070    -0.66278678
      8      H     0.47213148    -2.41698225     0.84588811
      9      H     2.44763285     1.66553171    -0.78713479
     10      H    -1.74707518     3.10556752     0.74163453
     11      H    -1.80128580    -0.35605595    -2.14882333
 
Total System Charge             0.00000
Bonding info available!
 
 *** GO1_GOStep11 ***



 ======================
 RI Hartree-Fock Scheme
 ======================
  
 Fit Set Quality     : GOOD
 Threshold Quality   : GOOD
 Integration Quality : GOOD
 Response Quality    : DEFAULT
 Is Range Separated  :  F
 
 RIHartreeFock Dependency: number of modified vectors:           5
  
 Hartree-Fock exchange energy:   -509.170257122583     

 Energy gradients wrt nuclear displacements
 ==========================================

     Atom      Cartesian (a.u./angstrom)
                 X         Y         Z
 ----------------------------------------
     1 Pa   -0.000005  0.001744  0.000578
     2 O    -0.000880 -0.000451 -0.000175
     3 O     0.001491 -0.002106  0.000440
     4 O    -0.001720  0.000679  0.001137
     5 O     0.000017  0.000243 -0.001289
     6 O     0.000502  0.000339  0.000396
     7 H     0.000141 -0.000148 -0.000015
     8 H    -0.000418 -0.000198 -0.000225
     9 H    -0.000022  0.000266  0.000286
    10 H    -0.000114  0.000015 -0.000058
    11 H     0.001007 -0.000383 -0.001075
 ----------------------------------------
 Mulliken charges used for AMS results%charges...

 dE(predicted):    -0.39042E-04, dE(actual):    -0.41088E-04, Trust radius:    0.160000, all in a.u.
 
----------------------------------------------------------------------
Geometry Convergence after Step  11       (Hartree/Angstrom,Angstrom)
----------------------------------------------------------------------
current energy                               -2.98052608 Hartree
energy change                      -0.00004109     0.00001100    F
constrained gradient max            0.00209681     0.00010000    F
constrained gradient rms            0.00079673     0.00006667    F
gradient max                        0.00209681
gradient rms                        0.00079673
cart. step max                      0.02975374     0.00100000    F
cart. step rms                      0.01013338     0.00066667    F
 
 
--------
Geometry
--------
Formula: H5O5Pa
Atoms
  Index Symbol   x (angstrom)   y (angstrom)   z (angstrom)
      1     Pa    -0.20071691     0.53592072     0.28083491
      2      O     1.66256862     1.21390698    -0.49720528
      3      O    -1.24525301     2.37929044     0.36605090
      4      O    -1.31399394    -0.40852023    -1.32773367
      5      O    -0.34585626    -0.13318736     2.01318334
      6      O     0.69197498    -1.95374979     0.01605863
      7      H     0.10258009    -2.30591204    -0.66535691
      8      H     0.47985907    -2.41269913     0.83890419
      9      H     2.46801377     1.65605036    -0.76862614
     10      H    -1.75400465     3.10141257     0.73715246
     11      H    -1.83103954    -0.36856467    -2.13418432
 
Total System Charge             0.00000
Bonding info available!
 
 *** GO1_GOStep12 ***



 ======================
 RI Hartree-Fock Scheme
 ======================
  
 Fit Set Quality     : GOOD
 Threshold Quality   : GOOD
 Integration Quality : GOOD
 Response Quality    : DEFAULT
 Is Range Separated  :  F
 
 RIHartreeFock Dependency: number of modified vectors:           5
  
 Hartree-Fock exchange energy:   -509.169743155252     

 Energy gradients wrt nuclear displacements
 ==========================================

     Atom      Cartesian (a.u./angstrom)
                 X         Y         Z
 ----------------------------------------
     1 Pa   -0.000551  0.001876 -0.000517
     2 O    -0.000716 -0.000160  0.000264
     3 O     0.001833 -0.001967  0.000527
     4 O    -0.001787  0.000397  0.000829
     5 O     0.000204  0.000139 -0.000783
     6 O     0.000685  0.000451  0.000422
     7 H     0.000048 -0.000228  0.000033
     8 H    -0.000493 -0.000234 -0.000234
     9 H     0.000017  0.000163  0.000222
    10 H    -0.000221 -0.000064 -0.000012
    11 H     0.000981 -0.000374 -0.000749
 ----------------------------------------
 Mulliken charges used for AMS results%charges...

 dE(predicted):    -0.51149E-04, dE(actual):    -0.37205E-04, Trust radius:    0.160000, all in a.u.
 
----------------------------------------------------------------------
Geometry Convergence after Step  12       (Hartree/Angstrom,Angstrom)
----------------------------------------------------------------------
current energy                               -2.98056328 Hartree
energy change                      -0.00003720     0.00001100    F
constrained gradient max            0.00195627     0.00010000    F
constrained gradient rms            0.00077740     0.00006667    F
gradient max                        0.00195627
gradient rms                        0.00077740
cart. step max                      0.02268148     0.00100000    F
cart. step rms                      0.00897005     0.00066667    F
 
 
--------
Geometry
--------
Formula: H5O5Pa
Atoms
  Index Symbol   x (angstrom)   y (angstrom)   z (angstrom)
      1     Pa    -0.19799276     0.53940462     0.27510754
      2      O     1.67279558     1.21985236    -0.48337827
      3      O    -1.25180231     2.37922910     0.35867366
      4      O    -1.30878612    -0.41087231    -1.33239689
      5      O    -0.33827965    -0.12773369     2.00901251
      6      O     0.69081086    -1.95141079     0.00674213
      7      H     0.08899168    -2.30058017    -0.66543698
      8      H     0.48969390    -2.40851857     0.83332929
      9      H     2.48682507     1.64523191    -0.75560953
     10      H    -1.76440301     3.09668796     0.73350942
     11      H    -1.85372102    -0.37734256    -2.12047478
 
Total System Charge             0.00000
Bonding info available!
 
 *** GO1_GOStep13 ***



 ======================
 RI Hartree-Fock Scheme
 ======================
  
 Fit Set Quality     : GOOD
 Threshold Quality   : GOOD
 Integration Quality : GOOD
 Response Quality    : DEFAULT
 Is Range Separated  :  F
 
 RIHartreeFock Dependency: number of modified vectors:           5
  
 Hartree-Fock exchange energy:   -509.168613223386     

 Energy gradients wrt nuclear displacements
 ==========================================

     Atom      Cartesian (a.u./angstrom)
                 X         Y         Z
 ----------------------------------------
     1 Pa   -0.000668  0.001161 -0.001504
     2 O    -0.000216  0.000152  0.000373
     3 O     0.001425 -0.000952  0.000684
     4 O    -0.001529  0.000300  0.000719
     5 O     0.000260 -0.000087 -0.000030
     6 O     0.000595  0.000302  0.000306
     7 H     0.000005 -0.000228  0.000040
     8 H    -0.000408 -0.000156 -0.000123
     9 H    -0.000003  0.000039  0.000195
    10 H    -0.000280 -0.000157 -0.000014
    11 H     0.000819 -0.000375 -0.000647
 ----------------------------------------
 Mulliken charges used for AMS results%charges...
 
----------------------------------------------------------------------
Geometry Convergence after Step  13       (Hartree/Angstrom,Angstrom)
----------------------------------------------------------------------
current energy                               -2.98056295 Hartree
energy change                       0.00000033     0.00001100    T
constrained gradient max            0.00154333     0.00010000    F
constrained gradient rms            0.00062356     0.00006667    F
gradient max                        0.00154333
gradient rms                        0.00062356
cart. step max                      0.01720263     0.00100000    F
cart. step rms                      0.00833805     0.00066667    F
 
 
--------
Geometry
--------
Formula: H5O5Pa
Atoms
  Index Symbol   x (angstrom)   y (angstrom)   z (angstrom)
      1     Pa    -0.19404932     0.54296050     0.27211024
      2      O     1.68266174     1.22398187    -0.47229704
      3      O    -1.26053618     2.37816574     0.35205763
      4      O    -1.30015415    -0.41080679    -1.33672383
      5      O    -0.33163562    -0.12322995     2.00676188
      6      O     0.68855090    -1.94946943    -0.00178925
      7      H     0.07400389    -2.29454151    -0.66458045
      8      H     0.49993743    -2.40548646     0.82822591
      9      H     2.50402770     1.63288537    -0.74755333
     10      H    -1.77784247     3.09097930     0.72927296
     11      H    -1.87083172    -0.38149079    -2.10640662
 
Total System Charge             0.00000
Bonding info available!
 
 *** GO1_GOStep14 ***



 ======================
 RI Hartree-Fock Scheme
 ======================
  
 Fit Set Quality     : GOOD
 Threshold Quality   : GOOD
 Integration Quality : GOOD
 Response Quality    : DEFAULT
 Is Range Separated  :  F
 
 RIHartreeFock Dependency: number of modified vectors:           5
  
 Hartree-Fock exchange energy:   -509.167237998148     

 Energy gradients wrt nuclear displacements
 ==========================================

     Atom      Cartesian (a.u./angstrom)
                 X         Y         Z
 ----------------------------------------
     1 Pa   -0.000357  0.000133 -0.001884
     2 O     0.000261  0.000344  0.000337
     3 O     0.000642  0.000338  0.000761
     4 O    -0.001079  0.000185  0.000828
     5 O     0.000255 -0.000273  0.000462
     6 O     0.000333 -0.000016  0.000111
     7 H     0.000012 -0.000164 -0.000013
     8 H    -0.000193  0.000024  0.000077
     9 H     0.000037 -0.000045  0.000169
    10 H    -0.000319 -0.000198 -0.000008
    11 H     0.000408 -0.000326 -0.000840
 ----------------------------------------
 Mulliken charges used for AMS results%charges...

 dE(predicted):    -0.31849E-04, dE(actual):     0.15950E-03, Trust radius:    0.040000, all in a.u.
 
----------------------------------------------------------------------
Geometry Convergence after Step  14       (Hartree/Angstrom,Angstrom)
----------------------------------------------------------------------
current energy                               -2.98040345 Hartree
energy change                       0.00015950     0.00001100    F
constrained gradient max            0.00189378     0.00010000    F
constrained gradient rms            0.00051217     0.00006667    F
gradient max                        0.00189378
gradient rms                        0.00051217
cart. step max                      0.00683255     0.00100000    F
cart. step rms                      0.00291420     0.00066667    F
 
 
--------
Geometry
--------
Formula: H5O5Pa
Atoms
  Index Symbol   x (angstrom)   y (angstrom)   z (angstrom)
      1     Pa    -0.19186218     0.54373669     0.27441604
      2      O     1.68445207     1.22348172    -0.47262220
      3      O    -1.26516807     2.37638496     0.35104482
      4      O    -1.29369743    -0.40926902    -1.33703584
      5      O    -0.33027372    -0.12252252     2.00883686
      6      O     0.68680280    -1.94952627    -0.00265700
      7      H     0.06889634    -2.29193747    -0.66365207
      8      H     0.50194458    -2.40665233     0.82745678
      9      H     2.50669092     1.62833208    -0.75127700
     10      H    -1.78467502     3.08803080     0.72737504
     11      H    -1.86897808    -0.37611079    -2.10280733
 
Total System Charge             0.00000
Bonding info available!
 
 *** GO1_GOStep15 ***



 ======================
 RI Hartree-Fock Scheme
 ======================
  
 Fit Set Quality     : GOOD
 Threshold Quality   : GOOD
 Integration Quality : GOOD
 Response Quality    : DEFAULT
 Is Range Separated  :  F
 
 RIHartreeFock Dependency: number of modified vectors:           5
  
 Hartree-Fock exchange energy:   -509.167289947322     

 Energy gradients wrt nuclear displacements
 ==========================================

     Atom      Cartesian (a.u./angstrom)
                 X         Y         Z
 ----------------------------------------
     1 Pa   -0.000143 -0.000461 -0.001712
     2 O     0.000336  0.000294  0.000182
     3 O     0.000162  0.000858  0.000759
     4 O    -0.001049  0.000340  0.000615
     5 O     0.000186 -0.000282  0.000366
     6 O     0.000065 -0.000257  0.000042
     7 H     0.000084 -0.000098 -0.000007
     8 H    -0.000043  0.000190  0.000071
     9 H     0.000065 -0.000049  0.000167
    10 H    -0.000290 -0.000211 -0.000031
    11 H     0.000628 -0.000325 -0.000453
 ----------------------------------------
 Mulliken charges used for AMS results%charges...

 dE(predicted):    -0.11937E-04, dE(actual):     0.24354E-04, Trust radius:    0.020000, all in a.u.
 
----------------------------------------------------------------------
Geometry Convergence after Step  15       (Hartree/Angstrom,Angstrom)
----------------------------------------------------------------------
current energy                               -2.98037909 Hartree
energy change                       0.00002435     0.00001100    F
constrained gradient max            0.00172148     0.00010000    F
constrained gradient rms            0.00047834     0.00006667    F
gradient max                        0.00172148
gradient rms                        0.00047834
cart. step max                      0.01068202     0.00100000    F
cart. step rms                      0.00360867     0.00066667    F
 
 
--------
Geometry
--------
Formula: H5O5Pa
Atoms
  Index Symbol   x (angstrom)   y (angstrom)   z (angstrom)
      1     Pa    -0.18950461     0.54385985     0.27822204
      2      O     1.68448553     1.22211943    -0.47571095
      3      O    -1.26933143     2.37330712     0.35085765
      4      O    -1.28738278    -0.40799837    -1.33624707
      5      O    -0.32913041    -0.12151650     2.01260690
      6      O     0.68513612    -1.95016651    -0.00100505
      7      H     0.06628173    -2.28942042    -0.66274772
      8      H     0.50121122    -2.41000383     0.82772101
      9      H     2.50627575     1.62504454    -0.75849208
     10      H    -1.79124581     3.08415131     0.72535972
     11      H    -1.86266308    -0.36542877    -2.10148635
 
Total System Charge             0.00000
Bonding info available!
 
 *** GO1_GOStep16 ***



 ======================
 RI Hartree-Fock Scheme
 ======================
  
 Fit Set Quality     : GOOD
 Threshold Quality   : GOOD
 Integration Quality : GOOD
 Response Quality    : DEFAULT
 Is Range Separated  :  F
 
 RIHartreeFock Dependency: number of modified vectors:           5
  
 Hartree-Fock exchange energy:   -509.168230334211     

 Energy gradients wrt nuclear displacements
 ==========================================

     Atom      Cartesian (a.u./angstrom)
                 X         Y         Z
 ----------------------------------------
     1 Pa    0.000036 -0.000703 -0.001457
     2 O     0.000192  0.000143  0.000057
     3 O    -0.000075  0.000907  0.000744
     4 O    -0.001127  0.000642  0.000344
     5 O     0.000106 -0.000211  0.000062
     6 O    -0.000140 -0.000386  0.000034
     7 H     0.000145 -0.000056  0.000040
     8 H     0.000054  0.000303 -0.000010
     9 H     0.000070 -0.000053  0.000173
    10 H    -0.000266 -0.000214 -0.000058
    11 H     0.001005 -0.000372  0.000070
 ----------------------------------------
 Mulliken charges used for AMS results%charges...

 dE(predicted):    -0.11697E-04, dE(actual):    -0.16719E-03, Trust radius:    0.040000, all in a.u.
 
----------------------------------------------------------------------
Geometry Convergence after Step  16       (Hartree/Angstrom,Angstrom)
----------------------------------------------------------------------
current energy                               -2.98054628 Hartree
energy change                      -0.00016719     0.00001100    F
constrained gradient max            0.00146685     0.00010000    F
constrained gradient rms            0.00047652     0.00006667    F
gradient max                        0.00146685
gradient rms                        0.00047652
cart. step max                      0.02236717     0.00100000    F
cart. step rms                      0.00684323     0.00066667    F
 
 
--------
Geometry
--------
Formula: H5O5Pa
Atoms
  Index Symbol   x (angstrom)   y (angstrom)   z (angstrom)
      1     Pa    -0.18490963     0.54400716     0.28464135
      2      O     1.68508436     1.22087596    -0.47943906
      3      O    -1.27707377     2.36655662     0.34880413
      4      O    -1.27693597    -0.40817848    -1.33485947
      5      O    -0.32469178    -0.11746600     2.02007661
      6      O     0.68215000    -1.95134247     0.00198127
      7      H     0.06156665    -2.28416893    -0.66159903
      8      H     0.49974734    -2.41747323     0.82748787
      9      H     2.50666266     1.61864333    -0.77006923
     10      H    -1.80379654     3.07555551     0.72016012
     11      H    -1.85367109    -0.34306160    -2.09810644
 
Total System Charge             0.00000
Bonding info available!
 
 *** GO1_GOStep17 ***



 ======================
 RI Hartree-Fock Scheme
 ======================
  
 Fit Set Quality     : GOOD
 Threshold Quality   : GOOD
 Integration Quality : GOOD
 Response Quality    : DEFAULT
 Is Range Separated  :  F
 
 RIHartreeFock Dependency: number of modified vectors:           5
  
 Hartree-Fock exchange energy:   -509.168683308779     

 Energy gradients wrt nuclear displacements
 ==========================================

     Atom      Cartesian (a.u./angstrom)
                 X         Y         Z
 ----------------------------------------
     1 Pa    0.000472 -0.000505 -0.000917
     2 O    -0.000104 -0.000084 -0.000044
     3 O    -0.000216  0.000655  0.000682
     4 O    -0.000640  0.000697  0.000758
     5 O    -0.000000 -0.000124 -0.000292
     6 O    -0.000199 -0.000373 -0.000054
     7 H     0.000136 -0.000073  0.000050
     8 H     0.000109  0.000319  0.000067
     9 H     0.000081 -0.000091  0.000167
    10 H    -0.000290 -0.000178 -0.000060
    11 H     0.000650 -0.000242 -0.000356
 ----------------------------------------
 Mulliken charges used for AMS results%charges...

 dE(predicted):    -0.20129E-04, dE(actual):    -0.11165E-03, Trust radius:    0.080000, all in a.u.
 
----------------------------------------------------------------------
Geometry Convergence after Step  17       (Hartree/Angstrom,Angstrom)
----------------------------------------------------------------------
current energy                               -2.98065794 Hartree
energy change                      -0.00011165     0.00001100    F
constrained gradient max            0.00092650     0.00010000    F
constrained gradient rms            0.00038602     0.00006667    F
gradient max                        0.00092650
gradient rms                        0.00038602
cart. step max                      0.02360463     0.00100000    F
cart. step rms                      0.00888445     0.00066667    F
 
 
--------
Geometry
--------
Formula: H5O5Pa
Atoms
  Index Symbol   x (angstrom)   y (angstrom)   z (angstrom)
      1     Pa    -0.17794055     0.54467967     0.29250838
      2      O     1.68810883     1.22222874    -0.47948640
      3      O    -1.28652087     2.35753491     0.34216592
      4      O    -1.26230027    -0.41169932    -1.33241069
      5      O    -0.31627085    -0.10892648     2.03054320
      6      O     0.67752053    -1.95263481     0.00333002
      7      H     0.05456247    -2.27349729    -0.66424287
      8      H     0.49539588    -2.42955012     0.82261853
      9      H     2.51035844     1.61149062    -0.77959263
     10      H    -1.81985015     3.06377890     0.70942214
     11      H    -1.84893124    -0.31945697    -2.08577750
 
Total System Charge             0.00000
Bonding info available!
 
 *** GO1_GOStep18 ***



 ======================
 RI Hartree-Fock Scheme
 ======================
  
 Fit Set Quality     : GOOD
 Threshold Quality   : GOOD
 Integration Quality : GOOD
 Response Quality    : DEFAULT
 Is Range Separated  :  F
 
 RIHartreeFock Dependency: number of modified vectors:           5
  
 Hartree-Fock exchange energy:   -509.169118283060     

 Energy gradients wrt nuclear displacements
 ==========================================

     Atom      Cartesian (a.u./angstrom)
                 X         Y         Z
 ----------------------------------------
     1 Pa    0.000760 -0.000060 -0.000352
     2 O    -0.000428 -0.000227 -0.000098
     3 O    -0.000196  0.000303  0.000568
     4 O    -0.000189  0.000547  0.000943
     5 O    -0.000056 -0.000053 -0.000511
     6 O    -0.000257 -0.000303 -0.000226
     7 H     0.000167 -0.000156  0.000080
     8 H     0.000096  0.000327  0.000157
     9 H     0.000124 -0.000155  0.000153
    10 H    -0.000311 -0.000190 -0.000047
    11 H     0.000289 -0.000033 -0.000667
 ----------------------------------------
 Mulliken charges used for AMS results%charges...

 dE(predicted):    -0.22661E-04, dE(actual):    -0.21767E-04, Trust radius:    0.160000, all in a.u.
 
----------------------------------------------------------------------
Geometry Convergence after Step  18       (Hartree/Angstrom,Angstrom)
----------------------------------------------------------------------
current energy                               -2.98067970 Hartree
energy change                      -0.00002177     0.00001100    F
constrained gradient max            0.00096739     0.00010000    F
constrained gradient rms            0.00034824     0.00006667    F
gradient max                        0.00096739
gradient rms                        0.00034824
cart. step max                      0.02893301     0.00100000    F
cart. step rms                      0.01254915     0.00066667    F
 
 
--------
Geometry
--------
Formula: H5O5Pa
Atoms
  Index Symbol   x (angstrom)   y (angstrom)   z (angstrom)
      1     Pa    -0.16772136     0.54618573     0.30210856
      2      O     1.69548175     1.22750475    -0.47268909
      3      O    -1.29620357     2.34684863     0.32800926
      4      O    -1.24215909    -0.41900499    -1.32819811
      5      O    -0.30444149    -0.09479835     2.04440587
      6      O     0.67126895    -1.95372473     0.00079123
      7      H     0.04554949    -2.25340935    -0.67456426
      8      H     0.48625143    -2.44808847     0.80880917
      9      H     2.51942839     1.60558939    -0.78221518
     10      H    -1.83791371     3.04977689     0.68946515
     11      H    -1.85540859    -0.30293164    -2.05684449
 
Total System Charge             0.00000
Bonding info available!
 
 *** GO1_GOStep19 ***



 ======================
 RI Hartree-Fock Scheme
 ======================
  
 Fit Set Quality     : GOOD
 Threshold Quality   : GOOD
 Integration Quality : GOOD
 Response Quality    : DEFAULT
 Is Range Separated  :  F
 
 RIHartreeFock Dependency: number of modified vectors:           5
  
 Hartree-Fock exchange energy:   -509.169711369104     

 Energy gradients wrt nuclear displacements
 ==========================================

     Atom      Cartesian (a.u./angstrom)
                 X         Y         Z
 ----------------------------------------
     1 Pa    0.000711  0.000332  0.000183
     2 O    -0.000646 -0.000175 -0.000177
     3 O    -0.000031 -0.000005  0.000288
     4 O     0.000207  0.000498  0.000693
     5 O    -0.000030 -0.000035 -0.000523
     6 O    -0.000504 -0.000237 -0.000474
     7 H     0.000282 -0.000299  0.000062
     8 H     0.000030  0.000388  0.000195
     9 H     0.000169 -0.000254  0.000170
    10 H    -0.000333 -0.000250 -0.000007
    11 H     0.000146  0.000037 -0.000411
 ----------------------------------------
 Mulliken charges used for AMS results%charges...
 Rebuilding optimization coordinates
Bad geometry: could not add a dihedral for atom    9

 dE(predicted):    -0.29918E-04, dE(actual):    -0.14072E-04, Trust radius:    0.160000, all in a.u.
 
----------------------------------------------------------------------
Geometry Convergence after Step  19       (Hartree/Angstrom,Angstrom)
----------------------------------------------------------------------
current energy                               -2.98069377 Hartree
energy change                      -0.00001407     0.00001100    F
constrained gradient max            0.00071734     0.00010000    F
constrained gradient rms            0.00033096     0.00006667    F
gradient max                        0.00071734
gradient rms                        0.00033096
cart. step max                      0.03201827     0.00100000    F
cart. step rms                      0.01196082     0.00066667    F
 
 
--------
Geometry
--------
Formula: H5O5Pa
Atoms
  Index Symbol   x (angstrom)   y (angstrom)   z (angstrom)
      1     Pa    -0.15968607     0.54655198     0.30927499
      2      O     1.70264459     1.23356314    -0.46251994
      3      O    -1.30080046     2.33891509     0.31219155
      4      O    -1.22751011    -0.42801538    -1.32400628
      5      O    -0.29556149    -0.08120661     2.05608194
      6      O     0.66716889    -1.95466219    -0.00355568
      7      H     0.03948498    -2.23231124    -0.68709625
      8      H     0.47797097    -2.46704087     0.79197773
      9      H     2.52768347     1.60537126    -0.77662812
     10      H    -1.84756906     3.04080279     0.66818438
     11      H    -1.86969351    -0.29802012    -2.02482622
 
Total System Charge             0.00000
Bonding info available!
 
 *** GO1_GOStep20 ***



 ======================
 RI Hartree-Fock Scheme
 ======================
  
 Fit Set Quality     : GOOD
 Threshold Quality   : GOOD
 Integration Quality : GOOD
 Response Quality    : DEFAULT
 Is Range Separated  :  F
 
 RIHartreeFock Dependency: number of modified vectors:           5
  
 Hartree-Fock exchange energy:   -509.169974935304     

 Energy gradients wrt nuclear displacements
 ==========================================

     Atom      Cartesian (a.u./angstrom)
                 X         Y         Z
 ----------------------------------------
     1 Pa    0.000285  0.000435  0.000317
     2 O    -0.000629  0.000062 -0.000248
     3 O     0.000286 -0.000189 -0.000037
     4 O     0.000352  0.000525  0.000259
     5 O     0.000078 -0.000095 -0.000248
     6 O    -0.000699 -0.000189 -0.000550
     7 H     0.000424 -0.000345  0.000010
     8 H    -0.000037  0.000406  0.000180
     9 H     0.000204 -0.000331  0.000194
    10 H    -0.000367 -0.000302  0.000044
    11 H     0.000103  0.000026  0.000078
 ----------------------------------------
 Mulliken charges used for AMS results%charges...

 dE(predicted):    -0.17961E-04, dE(actual):    -0.35854E-05, Trust radius:    0.160000, all in a.u.
 
----------------------------------------------------------------------
Geometry Convergence after Step  20       (Hartree/Angstrom,Angstrom)
----------------------------------------------------------------------
current energy                               -2.98069736 Hartree
energy change                      -0.00000359     0.00001100    T
constrained gradient max            0.00069108     0.00010000    F
constrained gradient rms            0.00031283     0.00006667    F
gradient max                        0.00069097
gradient rms                        0.00031283
cart. step max                      0.00470268     0.00100000    F
cart. step rms                      0.00196834     0.00066667    F
 
 
--------
Geometry
--------
Formula: H5O5Pa
Atoms
  Index Symbol   x (angstrom)   y (angstrom)   z (angstrom)
      1     Pa    -0.16026316     0.54548403     0.30852700
      2      O     1.70238085     1.23412035    -0.46142910
      3      O    -1.29836963     2.33966524     0.31109364
      4      O    -1.22930782    -0.43069237    -1.32363034
      5      O    -0.29671718    -0.08039175     2.05599279
      6      O     0.66796162    -1.95530771    -0.00375781
      7      H     0.03990173    -2.23049873    -0.68811615
      8      H     0.47790477    -2.46987762     0.79015962
      9      H     2.52642883     1.61007394    -0.77320786
     10      H    -1.84310290     3.04317152     0.66702274
     11      H    -1.87268491    -0.30179903    -2.02357641
 
Total System Charge             0.00000
Bonding info available!
 
 *** GO1_GOStep21 ***



 ======================
 RI Hartree-Fock Scheme
 ======================
  
 Fit Set Quality     : GOOD
 Threshold Quality   : GOOD
 Integration Quality : GOOD
 Response Quality    : DEFAULT
 Is Range Separated  :  F
 
 RIHartreeFock Dependency: number of modified vectors:           5
  
 Hartree-Fock exchange energy:   -509.169708558769     

 Energy gradients wrt nuclear displacements
 ==========================================

     Atom      Cartesian (a.u./angstrom)
                 X         Y         Z
 ----------------------------------------
     1 Pa    0.000140  0.000265  0.000078
     2 O    -0.000512  0.000154 -0.000253
     3 O     0.000337 -0.000107  0.000002
     4 O     0.000278  0.000474  0.000182
     5 O     0.000094 -0.000120 -0.000071
     6 O    -0.000507 -0.000123 -0.000383
     7 H     0.000343 -0.000324 -0.000020
     8 H    -0.000083  0.000330  0.000141
     9 H     0.000207 -0.000306  0.000201
    10 H    -0.000369 -0.000287  0.000044
    11 H     0.000071  0.000044  0.000078
 ----------------------------------------
 Mulliken charges used for AMS results%charges...

 dE(predicted):    -0.42742E-05, dE(actual):    -0.10501E-04, Trust radius:    0.160000, all in a.u.
 
----------------------------------------------------------------------
Geometry Convergence after Step  21       (Hartree/Angstrom,Angstrom)
----------------------------------------------------------------------
current energy                               -2.98070786 Hartree
energy change                      -0.00001050     0.00001100    T
constrained gradient max            0.00051780     0.00010000    F
constrained gradient rms            0.00025226     0.00006667    F
gradient max                        0.00051792
gradient rms                        0.00025226
cart. step max                      0.02922958     0.00100000    F
cart. step rms                      0.01354365     0.00066667    F
 
 
--------
Geometry
--------
Formula: H5O5Pa
Atoms
  Index Symbol   x (angstrom)   y (angstrom)   z (angstrom)
      1     Pa    -0.15962081     0.53940700     0.31047019
      2      O     1.70241022     1.23797353    -0.45368551
      3      O    -1.28670180     2.33991008     0.29896927
      4      O    -1.23005633    -0.45263177    -1.31703664
      5      O    -0.30095175    -0.06901748     2.06327086
      6      O     0.66870979    -1.95969407    -0.00671834
      7      H     0.03727007    -2.20826870    -0.69929491
      8      H     0.47343150    -2.49742180     0.77031939
      9      H     2.51852870     1.63930352    -0.75452576
     10      H    -1.82102785     3.05365552     0.65030564
     11      H    -1.88785951    -0.31926797    -2.00299609
 
Total System Charge             0.00000
Bonding info available!
 
 *** GO1_GOStep22 ***



 ======================
 RI Hartree-Fock Scheme
 ======================
  
 Fit Set Quality     : GOOD
 Threshold Quality   : GOOD
 Integration Quality : GOOD
 Response Quality    : DEFAULT
 Is Range Separated  :  F
 
 RIHartreeFock Dependency: number of modified vectors:           5
  
 Hartree-Fock exchange energy:   -509.168790290789     

 Energy gradients wrt nuclear displacements
 ==========================================

     Atom      Cartesian (a.u./angstrom)
                 X         Y         Z
 ----------------------------------------
     1 Pa   -0.000785 -0.000625 -0.000775
     2 O     0.000093  0.000651 -0.000429
     3 O     0.000656  0.000297  0.000152
     4 O     0.000410  0.000016 -0.000007
     5 O     0.000161 -0.000150  0.000600
     6 O     0.000127  0.000195  0.000265
     7 H     0.000151 -0.000162 -0.000144
     8 H    -0.000312 -0.000055 -0.000014
     9 H     0.000174 -0.000167  0.000293
    10 H    -0.000328 -0.000235  0.000037
    11 H    -0.000347  0.000235  0.000021
 ----------------------------------------
 Mulliken charges used for AMS results%charges...

 dE(predicted):    -0.23858E-04, dE(actual):    -0.31573E-04, Trust radius:    0.160000, all in a.u.
 
----------------------------------------------------------------------
Geometry Convergence after Step  22       (Hartree/Angstrom,Angstrom)
----------------------------------------------------------------------
current energy                               -2.98073943 Hartree
energy change                      -0.00003157     0.00001100    F
constrained gradient max            0.00078370     0.00010000    F
constrained gradient rms            0.00035251     0.00006667    F
gradient max                        0.00078368
gradient rms                        0.00035251
cart. step max                      0.00657713     0.00100000    F
cart. step rms                      0.00296037     0.00066667    F
 
 
--------
Geometry
--------
Formula: H5O5Pa
Atoms
  Index Symbol   x (angstrom)   y (angstrom)   z (angstrom)
      1     Pa    -0.16145323     0.53875282     0.30921977
      2      O     1.70098543     1.23628177    -0.45491156
      3      O    -1.28402569     2.34233082     0.30124853
      4      O    -1.23351859    -0.45545793    -1.31610711
      5      O    -0.30425657    -0.07010152     2.06160770
      6      O     0.66921798    -1.95979910    -0.00750945
      7      H     0.03474336    -2.20858156    -0.69730014
      8      H     0.47720209    -2.49753377     0.77031307
      9      H     2.51488926     1.64472057    -0.75220812
     10      H    -1.81445072     3.05867231     0.65315686
     11      H    -1.88520109    -0.32533657    -2.00843145
 
Total System Charge             0.00000
Bonding info available!
 
 *** GO1_GOStep23 ***



 ======================
 RI Hartree-Fock Scheme
 ======================
  
 Fit Set Quality     : GOOD
 Threshold Quality   : GOOD
 Integration Quality : GOOD
 Response Quality    : DEFAULT
 Is Range Separated  :  F
 
 RIHartreeFock Dependency: number of modified vectors:           5
  
 Hartree-Fock exchange energy:   -509.168703006106     

 Energy gradients wrt nuclear displacements
 ==========================================

     Atom      Cartesian (a.u./angstrom)
                 X         Y         Z
 ----------------------------------------
     1 Pa   -0.000621 -0.000744 -0.000792
     2 O     0.000136  0.000565 -0.000431
     3 O     0.000518  0.000462  0.000302
     4 O     0.000270 -0.000083 -0.000032
     5 O     0.000107 -0.000098  0.000502
     6 O     0.000217  0.000222  0.000321
     7 H     0.000073 -0.000169 -0.000113
     8 H    -0.000292 -0.000074 -0.000072
     9 H     0.000146 -0.000102  0.000311
    10 H    -0.000286 -0.000199  0.000019
    11 H    -0.000268  0.000221 -0.000015
 ----------------------------------------
 Mulliken charges used for AMS results%charges...

 dE(predicted):    -0.32001E-05, dE(actual):    -0.88984E-05, Trust radius:    0.160000, all in a.u.
 
----------------------------------------------------------------------
Geometry Convergence after Step  23       (Hartree/Angstrom,Angstrom)
----------------------------------------------------------------------
current energy                               -2.98074833 Hartree
energy change                      -0.00000890     0.00001100    T
constrained gradient max            0.00079997     0.00010000    F
constrained gradient rms            0.00033525     0.00006667    F
gradient max                        0.00080030
gradient rms                        0.00033525
cart. step max                      0.01330092     0.00100000    F
cart. step rms                      0.00559571     0.00066667    F
 
 
--------
Geometry
--------
Formula: H5O5Pa
Atoms
  Index Symbol   x (angstrom)   y (angstrom)   z (angstrom)
      1     Pa    -0.16125783     0.53874318     0.31190600
      2      O     1.70161705     1.23338974    -0.45302494
      3      O    -1.28360490     2.34300522     0.29903912
      4      O    -1.23166987    -0.46515621    -1.31092761
      5      O    -0.30708988    -0.06608671     2.06472956
      6      O     0.66700957    -1.95917783    -0.01332205
      7      H     0.02144245    -2.19726214    -0.69697351
      8      H     0.48554394    -2.50557188     0.76080953
      9      H     2.51180061     1.65174013    -0.74678583
     10      H    -1.80856961     3.06443533     0.64868484
     11      H    -1.88108930    -0.33411098    -2.00505700
 
Total System Charge             0.00000
Bonding info available!
 
 *** GO1_GOStep24 ***



 ======================
 RI Hartree-Fock Scheme
 ======================
  
 Fit Set Quality     : GOOD
 Threshold Quality   : GOOD
 Integration Quality : GOOD
 Response Quality    : DEFAULT
 Is Range Separated  :  F
 
 RIHartreeFock Dependency: number of modified vectors:           5
  
 Hartree-Fock exchange energy:   -509.169069472659     

 Energy gradients wrt nuclear displacements
 ==========================================

     Atom      Cartesian (a.u./angstrom)
                 X         Y         Z
 ----------------------------------------
     1 Pa   -0.000271 -0.000749 -0.000390
     2 O     0.000092  0.000242 -0.000479
     3 O     0.000191  0.000691  0.000433
     4 O     0.000257 -0.000289 -0.000159
     5 O    -0.000002  0.000028  0.000085
     6 O    -0.000017  0.000198  0.000108
     7 H     0.000087 -0.000151 -0.000007
     8 H    -0.000158 -0.000019 -0.000092
     9 H     0.000097  0.000013  0.000355
    10 H    -0.000186 -0.000146  0.000011
    11 H    -0.000089  0.000182  0.000136
 ----------------------------------------
 Mulliken charges used for AMS results%charges...

 dE(predicted):    -0.72498E-05, dE(actual):    -0.53190E-05, Trust radius:    0.160000, all in a.u.
 
----------------------------------------------------------------------
Geometry Convergence after Step  24       (Hartree/Angstrom,Angstrom)
----------------------------------------------------------------------
current energy                               -2.98075365 Hartree
energy change                      -0.00000532     0.00001100    T
constrained gradient max            0.00074091     0.00010000    F
constrained gradient rms            0.00026479     0.00006667    F
gradient max                        0.00074058
gradient rms                        0.00026479
cart. step max                      0.01146544     0.00100000    F
cart. step rms                      0.00465960     0.00066667    F
 
 
--------
Geometry
--------
Formula: H5O5Pa
Atoms
  Index Symbol   x (angstrom)   y (angstrom)   z (angstrom)
      1     Pa    -0.15989134     0.53941476     0.31615142
      2      O     1.70307380     1.23086213    -0.45032144
      3      O    -1.28601710     2.34136979     0.29526704
      4      O    -1.22909300    -0.47062719    -1.30562937
      5      O    -0.30755357    -0.06223139     2.06941573
      6      O     0.66532098    -1.95798239    -0.01837330
      7      H     0.01076301    -2.18579670    -0.69736706
      8      H     0.49256365    -2.51247667     0.75183137
      9      H     2.51179162     1.65203213    -0.74420011
     10      H    -1.80868334     3.06598003     0.64177779
     11      H    -1.87814250    -0.33659664    -1.99947395
 
Total System Charge             0.00000
Bonding info available!
 
 *** GO1_GOStep25 ***



 ======================
 RI Hartree-Fock Scheme
 ======================
  
 Fit Set Quality     : GOOD
 Threshold Quality   : GOOD
 Integration Quality : GOOD
 Response Quality    : DEFAULT
 Is Range Separated  :  F
 
 RIHartreeFock Dependency: number of modified vectors:           5
  
 Hartree-Fock exchange energy:   -509.169475258980     

 Energy gradients wrt nuclear displacements
 ==========================================

     Atom      Cartesian (a.u./angstrom)
                 X         Y         Z
 ----------------------------------------
     1 Pa    0.000137 -0.000423  0.000078
     2 O    -0.000095 -0.000097 -0.000483
     3 O    -0.000029  0.000601  0.000358
     4 O     0.000225 -0.000343 -0.000249
     5 O    -0.000085  0.000063 -0.000229
     6 O    -0.000222  0.000093 -0.000030
     7 H     0.000087 -0.000071 -0.000021
     8 H     0.000007  0.000063 -0.000033
     9 H     0.000084  0.000080  0.000374
    10 H    -0.000112 -0.000113  0.000031
    11 H     0.000003  0.000147  0.000206
 ----------------------------------------
 Mulliken charges used for AMS results%charges...

 dE(predicted):    -0.39916E-05, dE(actual):     0.36747E-05, Trust radius:    0.020000, all in a.u.
 
----------------------------------------------------------------------
Geometry Convergence after Step  25       (Hartree/Angstrom,Angstrom)
----------------------------------------------------------------------
current energy                               -2.98074998 Hartree
energy change                       0.00000367     0.00001100    T
constrained gradient max            0.00060760     0.00010000    F
constrained gradient rms            0.00021612     0.00006667    F
gradient max                        0.00060769
gradient rms                        0.00021612
cart. step max                      0.00435640     0.00100000    F
cart. step rms                      0.00192640     0.00066667    F
 
 
--------
Geometry
--------
Formula: H5O5Pa
Atoms
  Index Symbol   x (angstrom)   y (angstrom)   z (angstrom)
      1     Pa    -0.15915856     0.54013915     0.31818797
      2      O     1.70400145     1.23026615    -0.44839922
      3      O    -1.28814425     2.33997399     0.29331407
      4      O    -1.22903178    -0.47008997    -1.30326626
      5      O    -0.30662458    -0.06114804     2.07156511
      6      O     0.66534829    -1.95702109    -0.02023507
      7      H     0.00798497    -2.18144031    -0.69777904
      8      H     0.49514710    -2.51393197     0.74875915
      9      H     2.51364280     1.64837822    -0.74411762
     10      H    -1.81113607     3.06506017     0.63837430
     11      H    -1.87789717    -0.33623846    -1.99732528
 
Total System Charge             0.00000
Bonding info available!
 
 *** GO1_GOStep26 ***



 ======================
 RI Hartree-Fock Scheme
 ======================
  
 Fit Set Quality     : GOOD
 Threshold Quality   : GOOD
 Integration Quality : GOOD
 Response Quality    : DEFAULT
 Is Range Separated  :  F
 
 RIHartreeFock Dependency: number of modified vectors:           5
  
 Hartree-Fock exchange energy:   -509.169616181903     

 Energy gradients wrt nuclear displacements
 ==========================================

     Atom      Cartesian (a.u./angstrom)
                 X         Y         Z
 ----------------------------------------
     1 Pa    0.000319 -0.000124  0.000193
     2 O    -0.000227 -0.000211 -0.000434
     3 O    -0.000038  0.000359  0.000215
     4 O     0.000160 -0.000225 -0.000221
     5 O    -0.000099  0.000015 -0.000243
     6 O    -0.000262  0.000025 -0.000041
     7 H     0.000077 -0.000008 -0.000062
     8 H     0.000075  0.000093  0.000011
     9 H     0.000095  0.000076  0.000366
    10 H    -0.000096 -0.000107  0.000061
    11 H    -0.000003  0.000107  0.000156
 ----------------------------------------
 Mulliken charges used for AMS results%charges...

 dE(predicted):    -0.19446E-05, dE(actual):     0.25403E-05, Trust radius:    0.020000, all in a.u.
 
----------------------------------------------------------------------
Geometry Convergence after Step  26       (Hartree/Angstrom,Angstrom)
----------------------------------------------------------------------
current energy                               -2.98074743 Hartree
energy change                       0.00000254     0.00001100    T
constrained gradient max            0.00046675     0.00010000    F
constrained gradient rms            0.00018224     0.00006667    F
gradient max                        0.00046777
gradient rms                        0.00018225
cart. step max                      0.00547504     0.00100000    F
cart. step rms                      0.00230174     0.00066667    F
 
 
--------
Geometry
--------
Formula: H5O5Pa
Atoms
  Index Symbol   x (angstrom)   y (angstrom)   z (angstrom)
      1     Pa    -0.15856847     0.54077985     0.32032445
      2      O     1.70477324     1.23102223    -0.44531345
      3      O    -1.29056131     2.33804830     0.29079475
      4      O    -1.22991965    -0.46858240    -1.30053991
      5      O    -0.30436175    -0.05976349     2.07423579
      6      O     0.66593150    -1.95608179    -0.02183497
      7      H     0.00662718    -2.17692976    -0.69879306
      8      H     0.49668716    -2.51557662     0.74548086
      9      H     2.51637791     1.64290318    -0.74434424
     10      H    -1.81436046     3.06341780     0.63409607
     11      H    -1.87849314    -0.33528945    -1.99502819
 
Total System Charge             0.00000
Bonding info available!
 
 *** GO1_GOStep27 ***



 ======================
 RI Hartree-Fock Scheme
 ======================
  
 Fit Set Quality     : GOOD
 Threshold Quality   : GOOD
 Integration Quality : GOOD
 Response Quality    : DEFAULT
 Is Range Separated  :  F
 
 RIHartreeFock Dependency: number of modified vectors:           5
  
 Hartree-Fock exchange energy:   -509.169698402754     

 Energy gradients wrt nuclear displacements
 ==========================================

     Atom      Cartesian (a.u./angstrom)
                 X         Y         Z
 ----------------------------------------
     1 Pa    0.000283  0.000148  0.000035
     2 O    -0.000311 -0.000195 -0.000345
     3 O     0.000089 -0.000006  0.000018
     4 O     0.000100 -0.000007 -0.000080
     5 O    -0.000072 -0.000074 -0.000071
     6 O    -0.000193 -0.000009  0.000001
     7 H     0.000054  0.000062 -0.000075
     8 H     0.000081  0.000084  0.000020
     9 H     0.000116  0.000031  0.000339
    10 H    -0.000102 -0.000108  0.000105
[...]
    10     H      -0.430648  -0.266141   0.065985
    11     H      -0.148086  -0.049795   0.194927
 
 Mode:    12      Frequency (cm-1):      142.9871     Intensity (km/mol):       11.4945
 Index  Atom      ---- Displacements (x/y/z) ----
     1    Pa      -0.000185   0.002209   0.017829
     2     O      -0.035527   0.040461  -0.035446
     3     O      -0.019583  -0.020679  -0.206178
     4     O      -0.050955   0.150484   0.002739
     5     O       0.110345  -0.231957  -0.042357
     6     O       0.001883  -0.003465   0.064176
     7     H       0.073551  -0.173551   0.055811
     8     H      -0.080681   0.182565   0.187546
     9     H      -0.031861  -0.021728  -0.101957
    10     H      -0.031197   0.216049  -0.758849
    11     H       0.014711   0.324298  -0.024807
 
 Mode:    13      Frequency (cm-1):      153.8347     Intensity (km/mol):       58.4463
 Index  Atom      ---- Displacements (x/y/z) ----
     1    Pa       0.014938  -0.027337  -0.005056
     2     O       0.055701  -0.036464   0.020937
     3     O      -0.068788  -0.080778  -0.050034
     4     O      -0.180345   0.285303   0.000574
     5     O      -0.126702   0.184097   0.060336
     6     O       0.116643   0.046997   0.025299
     7     H       0.261197  -0.264413  -0.005773
     8     H       0.317283  -0.016797   0.022309
     9     H      -0.122516   0.178669  -0.136964
    10     H      -0.243449  -0.293956   0.154296
    11     H      -0.407292   0.328434   0.218766
 
 Mode:    14      Frequency (cm-1):      222.2512     Intensity (km/mol):        5.6458
 Index  Atom      ---- Displacements (x/y/z) ----
     1    Pa       0.012512  -0.033410  -0.002503
     2     O       0.007829  -0.028790  -0.028545
     3     O       0.027615  -0.013513  -0.003572
     4     O      -0.043081  -0.066415  -0.027556
     5     O      -0.001909  -0.022722   0.010639
     6     O      -0.165106   0.529847   0.072187
     7     H      -0.069543   0.455614  -0.009411
     8     H      -0.092635   0.463385   0.038016
     9     H      -0.009646   0.275156   0.302513
    10     H      -0.035442  -0.056565  -0.004632
    11     H       0.110920   0.198465  -0.120174
 
 Mode:    15      Frequency (cm-1):      230.3333     Intensity (km/mol):       70.3943
 Index  Atom      ---- Displacements (x/y/z) ----
     1    Pa      -0.004846  -0.001188  -0.000339
     2     O       0.029305  -0.002540   0.089927
     3     O       0.017327   0.026072  -0.026749
     4     O       0.041090  -0.011027  -0.036494
     5     O       0.043493  -0.019345  -0.002386
     6     O      -0.021775   0.031765   0.003666
     7     H      -0.044547   0.004738   0.034283
     8     H       0.031382   0.043600   0.024045
     9     H      -0.365718   0.016799  -0.819828
    10     H       0.017238  -0.061157   0.171878
    11     H      -0.264397  -0.127186   0.223516
 
 Mode:    16      Frequency (cm-1):      255.8158     Intensity (km/mol):       22.6255
 Index  Atom      ---- Displacements (x/y/z) ----
     1    Pa      -0.004170   0.007570   0.001581
     2     O       0.039680  -0.081917   0.009098
     3     O       0.003816   0.040810  -0.059291
     4     O      -0.028953  -0.019571   0.043281
     5     O       0.037966  -0.038982  -0.011761
     6     O       0.012325  -0.025301  -0.012601
     7     H      -0.013401  -0.055073   0.024008
     8     H       0.073496  -0.023574   0.002062
     9     H      -0.253043   0.524351   0.057966
    10     H      -0.281673  -0.348733   0.371984
    11     H       0.401568   0.150843  -0.322168
 
 Mode:    17      Frequency (cm-1):      294.4665     Intensity (km/mol):      137.8063
 Index  Atom      ---- Displacements (x/y/z) ----
     1    Pa      -0.001462   0.004032  -0.001405
     2     O       0.039689  -0.077240  -0.008215
     3     O      -0.001353  -0.028834   0.087404
     4     O       0.023190   0.011968  -0.015814
     5     O      -0.002286   0.017244   0.000331
     6     O      -0.003354  -0.008241  -0.009919
     7     H      -0.057545   0.015864   0.035287
     8     H       0.042266  -0.011210  -0.002485
     9     H      -0.265083   0.554252   0.043207
    10     H      -0.165923   0.181084  -0.651595
    11     H      -0.105608  -0.313752   0.044020
 
 Mode:    18      Frequency (cm-1):      299.5377     Intensity (km/mol):      135.8200
 Index  Atom      ---- Displacements (x/y/z) ----
     1    Pa       0.002555  -0.001309  -0.002952
     2     O       0.009636   0.025804   0.021244
     3     O      -0.011207  -0.022053   0.046013
     4     O      -0.023704   0.000957   0.027561
     5     O      -0.028649   0.014341  -0.001198
     6     O      -0.027851   0.016419  -0.016561
     7     H      -0.261373  -0.179558   0.276907
     8     H       0.526866  -0.032591   0.066524
     9     H       0.006441  -0.240157  -0.311300
    10     H       0.017340   0.109777  -0.209598
    11     H       0.422876   0.079689  -0.368759
 
 Mode:    19      Frequency (cm-1):      316.7013     Intensity (km/mol):      199.0301
 Index  Atom      ---- Displacements (x/y/z) ----
     1    Pa      -0.001509   0.000921   0.004257
     2     O      -0.022018  -0.006034  -0.043028
     3     O       0.015350   0.029486  -0.042938
     4     O       0.069762   0.017324  -0.027118
     5     O      -0.000201  -0.033689  -0.002191
     6     O      -0.039353   0.009402  -0.022182
     7     H      -0.298630  -0.228192   0.310960
     8     H       0.585068  -0.024418   0.086827
     9     H       0.095407   0.068643   0.326607
    10     H      -0.087977  -0.140176   0.178063
    11     H      -0.321637  -0.148715   0.303235
 
 Mode:    20      Frequency (cm-1):      340.0700     Intensity (km/mol):      190.8077
 Index  Atom      ---- Displacements (x/y/z) ----
     1    Pa      -0.001512  -0.004394   0.000053
     2     O      -0.029436   0.035323   0.013619
     3     O       0.074214   0.030197   0.001807
     4     O      -0.012712   0.043382  -0.002857
     5     O       0.025400   0.012761   0.009735
     6     O       0.002854   0.005762  -0.000168
     7     H      -0.022025   0.126130  -0.016628
     8     H      -0.116352   0.024971  -0.011245
     9     H       0.128964  -0.298656  -0.019284
    10     H      -0.648527  -0.402993  -0.166285
    11     H       0.047215  -0.464457  -0.150042
 
 Mode:    21      Frequency (cm-1):      381.6048     Intensity (km/mol):        5.9281
 Index  Atom      ---- Displacements (x/y/z) ----
     1    Pa      -0.001812   0.002737  -0.001170
     2     O      -0.001235   0.008536   0.008997
     3     O       0.047393   0.030232   0.049849
     4     O      -0.001690  -0.092923  -0.040779
     5     O       0.004595   0.009616  -0.003700
     6     O      -0.006439  -0.007313   0.015163
     7     H       0.163620  -0.196087  -0.086479
     8     H       0.104434  -0.118309  -0.045517
     9     H       0.022817  -0.064904  -0.023486
    10     H      -0.420785  -0.155794  -0.272767
    11     H      -0.131236   0.730472   0.227879
 
 Mode:    22      Frequency (cm-1):      429.9889     Intensity (km/mol):      217.3250
 Index  Atom      ---- Displacements (x/y/z) ----
     1    Pa      -0.000177   0.001750  -0.000932
     2     O       0.027198   0.015836  -0.009523
     3     O      -0.012709   0.008152  -0.006213
     4     O      -0.008817   0.012881   0.026263
     5     O       0.006253  -0.034988  -0.029889
     6     O      -0.051913   0.030118   0.077204
     7     H       0.328422  -0.018222  -0.269151
     8     H       0.281991  -0.709845  -0.413950
     9     H       0.030846   0.003926  -0.014553
    10     H       0.034365   0.030777   0.015935
    11     H      -0.000493  -0.215718  -0.022605
 
 Mode:    23      Frequency (cm-1):      505.0937     Intensity (km/mol):      244.5219
 Index  Atom      ---- Displacements (x/y/z) ----
     1    Pa      -0.019352  -0.024347  -0.021694
     2     O       0.096492   0.052051  -0.025652
     3     O      -0.031320   0.104481   0.027070
     4     O       0.261429   0.120036   0.351297
     5     O      -0.002173   0.029096   0.023332
     6     O      -0.063219   0.039169  -0.065452
     7     H       0.301491  -0.430058  -0.242255
     8     H      -0.200771   0.280195   0.087443
     9     H       0.102562   0.005278  -0.065923
    10     H      -0.164909   0.069322  -0.108101
    11     H       0.252278   0.183873   0.372624
 
 Mode:    24      Frequency (cm-1):      554.3643     Intensity (km/mol):      199.6170
 Index  Atom      ---- Displacements (x/y/z) ----
     1    Pa      -0.045735   0.021641   0.014791
     2     O       0.364147   0.132395  -0.155696
     3     O       0.249553  -0.366243  -0.021657
     4     O       0.003185  -0.032941  -0.035332
     5     O       0.014998  -0.019281   0.030593
     6     O      -0.017143   0.007117  -0.030438
     7     H       0.143207  -0.298085  -0.077803
     8     H      -0.033175   0.188228   0.102597
     9     H       0.386792   0.100373  -0.143100
    10     H       0.241941  -0.440014   0.133231
    11     H      -0.010747  -0.084346  -0.032562
 
 Mode:    25      Frequency (cm-1):      582.8449     Intensity (km/mol):      187.8190
 Index  Atom      ---- Displacements (x/y/z) ----
     1    Pa      -0.009007  -0.004092  -0.006375
     2     O       0.027641   0.008284  -0.005824
     3     O       0.024096  -0.021647   0.006834
     4     O       0.036318   0.043018   0.048631
     5     O       0.014821  -0.002949  -0.018322
     6     O       0.054043  -0.015151   0.047330
     7     H      -0.429753   0.734119   0.254725
     8     H       0.007203  -0.256009  -0.144142
     9     H       0.020947   0.014980  -0.013368
    10     H      -0.017131  -0.038659  -0.019703
    11     H      -0.006903   0.300133   0.135614
 
 Mode:    26      Frequency (cm-1):      604.1434     Intensity (km/mol):      145.7152
 Index  Atom      ---- Displacements (x/y/z) ----
     1    Pa       0.007118   0.034757  -0.027686
     2     O      -0.378926  -0.160057   0.165985
     3     O       0.211807  -0.358876   0.005252
     4     O       0.098793   0.054287   0.157446
     5     O      -0.007297  -0.031911   0.058684
     6     O      -0.040329   0.033314   0.004486
     7     H       0.197821  -0.185179  -0.141985
     8     H       0.076108  -0.113963  -0.084751
     9     H      -0.425552  -0.101428   0.140689
    10     H       0.248541  -0.357223   0.047108
    11     H       0.111681   0.141998   0.166768
 
 Mode:    27      Frequency (cm-1):      845.4049     Intensity (km/mol):      265.7933
 Index  Atom      ---- Displacements (x/y/z) ----
     1    Pa      -0.005798  -0.015945   0.056050
     2     O      -0.066165  -0.023622   0.022875
     3     O       0.052035  -0.080036  -0.009789
     4     O       0.030858   0.027898   0.042024
     5     O       0.075955   0.291315  -0.864221
     6     O      -0.012210   0.021753  -0.016005
     7     H       0.061488  -0.210638  -0.009804
     8     H      -0.037275   0.224774   0.127202
     9     H      -0.058393  -0.027116   0.050568
    10     H       0.064151  -0.095175   0.027855
    11     H       0.022135  -0.002912   0.050267
 
 Mode:    28      Frequency (cm-1):     1590.9934     Intensity (km/mol):       95.1724
 Index  Atom      ---- Displacements (x/y/z) ----
     1    Pa       0.000095  -0.000005   0.000144
     2     O      -0.000308   0.000152  -0.000083
     3     O       0.000047  -0.000148  -0.000062
     4     O       0.001845  -0.001426  -0.001701
     5     O       0.000807  -0.000216   0.000290
     6     O       0.045058   0.053278  -0.006310
     7     H      -0.271949  -0.505644   0.442352
     8     H      -0.505368  -0.305422  -0.347890
     9     H      -0.000216   0.000248   0.000645
    10     H       0.000133  -0.000489   0.000005
    11     H       0.002623  -0.007134  -0.003181
 
 Mode:    29      Frequency (cm-1):     3699.0776     Intensity (km/mol):       58.3003
 Index  Atom      ---- Displacements (x/y/z) ----
     1    Pa       0.000052  -0.000051   0.000049
     2     O      -0.000110   0.000020   0.000015
     3     O      -0.000141   0.000144  -0.000016
     4     O      -0.000562  -0.000781  -0.000979
     5     O      -0.000065   0.000204   0.000012
     6     O      -0.041112  -0.024693  -0.023014
     7     H       0.612262   0.204049   0.668528
     8     H       0.039174   0.205270  -0.300098
     9     H       0.001267   0.000512  -0.000411
    10     H       0.000609  -0.000783  -0.000378
    11     H       0.001115   0.000998   0.001661
 
 Mode:    30      Frequency (cm-1):     3842.8750     Intensity (km/mol):      128.9512
 Index  Atom      ---- Displacements (x/y/z) ----
     1    Pa       0.000017   0.000012   0.000027
     2     O       0.000156   0.000102  -0.000084
     3     O      -0.000255   0.000334   0.000148
     4     O       0.000013  -0.000405  -0.000124
     5     O       0.000010   0.000087  -0.000294
     6     O      -0.006118   0.028762  -0.061335
     7     H       0.243057   0.095940   0.235167
     8     H      -0.147193  -0.549179   0.740557
     9     H      -0.003770  -0.002062   0.001788
    10     H       0.004582  -0.006372  -0.002849
    11     H      -0.002244   0.000633  -0.001883
 
 Mode:    31      Frequency (cm-1):     3877.2401     Intensity (km/mol):      126.1007
 Index  Atom      ---- Displacements (x/y/z) ----
     1    Pa      -0.000015   0.000002  -0.000005
     2     O      -0.001460  -0.000754   0.000659
     3     O       0.002347  -0.003271  -0.001492
     4     O      -0.042123   0.008091  -0.045895
     5     O       0.000054   0.000013   0.000215
     6     O       0.000159   0.000060  -0.000136
     7     H      -0.000666  -0.000122  -0.001048
     8     H      -0.000709  -0.002339   0.003489
     9     H       0.026171   0.013352  -0.010893
    10     H      -0.038267   0.054918   0.024494
    11     H       0.667953  -0.132040   0.725503
 
 Mode:    32      Frequency (cm-1):     3888.6259     Intensity (km/mol):      168.2706
 Index  Atom      ---- Displacements (x/y/z) ----
     1    Pa      -0.000003  -0.000003   0.000011
     2     O      -0.005949  -0.003160   0.002548
     3     O      -0.033790   0.048225   0.020919
     4     O      -0.002900   0.000436  -0.003224
     5     O       0.000060  -0.000158   0.000272
     6     O       0.000121  -0.000206   0.000471
     7     H      -0.002953  -0.000479  -0.002762
     8     H       0.000842   0.004054  -0.004862
     9     H       0.097884   0.050858  -0.041330
    10     H       0.533984  -0.761493  -0.335576
    11     H       0.044741  -0.008583   0.048928
 
 Mode:    33      Frequency (cm-1):     3894.9204     Intensity (km/mol):      159.9096
 Index  Atom      ---- Displacements (x/y/z) ----
     1    Pa      -0.000010  -0.000003  -0.000009
     2     O      -0.052221  -0.026908   0.022167
     3     O       0.004108  -0.005788  -0.002455
     4     O       0.001796  -0.000185   0.001955
     5     O       0.000158   0.000138  -0.000264
     6     O      -0.000040   0.000276  -0.000280
     7     H       0.000799  -0.000200   0.000398
     8     H      -0.000577  -0.003409   0.004155
     9     H       0.823722   0.425930  -0.348293
    10     H      -0.062132   0.088424   0.038934
    11     H      -0.026272   0.005249  -0.028440

PES point character: Geometry corresponds to a local minimum on the PES.




 ============================
 Statistical Thermal Analysis  ***  ideal gas assumed  ***
 ============================
  
 Pressure:                  1.000000 atm.
 Temperature:             298.150000 K



 Moments of Inertia [amu*bohr^2] and principal axis
 ==================================================

         776.7435       1143.6910       1164.4600
 ------------------------------------------------
          -0.2793          0.8733         -0.3991
           0.9495          0.1893         -0.2503
           0.1431          0.4488          0.8821


 The rotational contribution to the molecular entropy includes
 a term, dependent on the symmetry number sigma. The results 
 reported below were computed using sigma = 1, determined from
 the point group symmetry of the input geometry (NOSYM). 
 If this is not the correct symmetry, try symmetrizing the molecule before
 running the calculation (note: linear molecules should be aligned along one
 of the Cartesian axes).
 Contributions from frequencies below 20 1/cm are not included in vibrational sums.
 Their contributions, if any, are reported separately.


     Temp                                                        Transl      Rotat     Vibrat     Total
     ----                                                        ------      -----     ------     -----

     298.15   Entropy (cal/mol-K):                               43.148     28.427     39.056    110.632
              Nuclear Internal Energy (kcal/mol):                 0.889      0.889     45.212     46.990
              Constant Volume Heat Capacity (cal/mol-K):          2.981      2.981     33.536     39.498
          (c) Constant Volume Heat Capacity (cal/mol-K):          2.981      2.981     30.207     36.168

       Summary of energy terms
                                                   hartree              eV         kcal/mol           kJ/mol
                                      --------------------     -----------       ----------      -----------
      Energy from Engine:               -2.980746623714831        -81.1102         -1870.45         -7825.95
      Nuclear Internal Energy:           0.074882628804828          2.0377            46.99           196.60
  (c) Nuclear Internal Energy:           0.073154391595555          1.9906            45.91           192.07
      Internal Energy U:                -2.905863994910003        -79.0726         -1823.46         -7629.34
      pV/n = RT:                         0.000944186013486          0.0257             0.59             2.48
      Enthalpy H:                       -2.904919808896517        -79.0469         -1822.86         -7626.87
      -T*S:                             -0.052564685177955         -1.4304           -32.98          -138.01
  (c) -T*S:                             -0.051368657569386         -1.3978           -32.23          -134.87
      Gibbs free energy:                -2.957484494074472        -80.4772         -1855.85         -7764.87
 
 
 
  (c) The properties marked with this symbol have been corrected using 'low vibrational frequency free rotor
      interpolation corrections'. For those terms all positive frequencies are used (also ones below 20 1/cm),
      but the contribution to the partition function of small vibrational frequencies is modified as described
      in the following paper:
      S. Grimme, 'Supramolecular Binding Thermodynamics by Dispersion-Corrected Density Functional Theory'
      (Chem. Eur. J. 2012, 18, 9955-9964)
      Configuration: Dampener Frequency          :   100.000 1/cm
                     Dampener Alpha              :     4.000
                     Averaging Moment of Inertia : 1.000E-44 kg m2

--------------
Atomic charges
--------------
  Index   Atom    Charge
      1     Pa    2.5172
      2      O   -0.6279
      3      O   -0.6444
      4      O   -0.7028
      5      O   -0.7369
      6      O   -0.4321
      7      H    0.2508
      8      H    0.2259
      9      H    0.0171
     10      H    0.0409
     11      H    0.0922


Dipole moment vector    (Debye):    -0.19520257   -0.94386901   -1.92736421
              magnitude (Debye):     2.15493052


Final PES point is a local minimum. Geometry optimization successful!


AMS application finished. Exiting.
NORMAL TERMINATION
     Total cpu time:   66740.40
  Total system time:   46548.04
 Total elapsed time:  121261.05
 WARNING: total system time is high compared to CPU time. 
 Make sure the machine is not oversubscribed and has enough memory, SCM_TMPDIR p
 oints to a fast file system, and the network is fast enough.
