

 Parallel Execution: Process Information
 ==============================================================================
 Rank   Node Name                              NodeID   MyNodeRank  NodeMaster
    0   u-0-10.local                              0          0          0
    1   u-0-10.local                              0          1         -1
    2   u-0-10.local                              0          2         -1
    3   u-0-10.local                              0          3         -1
    4   u-0-10.local                              1          0          1
    5   u-0-10.local                              1          1         -1
    6   u-0-10.local                              1          2         -1
    7   u-0-10.local                              1          3         -1
 ==============================================================================


May use up to 62450MB of RAM as shared memory on node 0
May use up to 124950MB of RAM as shared memory on node 1

 *******************************************************************************
 *                                                                             *
 *  --------------------------------                                           *
 *   Amsterdam Modeling Suite (AMS)              2023.101                      *
 *  --------------------------------                                           *
 *                                               r111868 2023-03-31            *
 *                                                                             *
 *                                                                             *
 *                              =================                              *
 *                              |               |                              *
 *                              |     A M S     |                              *
 *                              |               |                              *
 *                              =================                              *
 *                                                                             *
 *                                                                             *
 *   Online information and documentation:  https://www.scm.com/support/       *
 *   E-mail:  support@scm.com   info@scm.com                                   *
 *                                                                             *
 *   Scientific publications using AMS results must be properly referenced     *
 *   See the User Manuals (or the web site) for recommended citations          *
 *   The terms and conditions of the End User License Agreement apply to       *
 *   the use of AMS, https://www.scm.com/license-terms/                        *
 *                                                                             *
 **********************  x86_64_linux_intel / intelmpi  ************************
 
 Licensed to: Dr. Val?rie Vallet / Laboratoire PhLAM UMR 8523 / Villeneuve d'Ascq Cedex / FRANCE 2023-03-27 15:45:49
 SCM User ID: u10325
  
 AMS 2023.101  RunTime: Nov19-2023 20:40:29  ShM Nodes: 2  Procs: 8

 AMS jobname: pao_oh2_br_h2o.SO.b3lyp.tz2p.sp-A2-gp
 AMS jobid  : 269962543

 Start   directory: /home/shaaban/ams/PhD/bromide/pao_oh2_br_h2o/solvation/SP-SR-SO-GP/
 Results directory: /home/shaaban/ams/PhD/bromide/pao_oh2_br_h2o/solvation/SP-SR-SO-GP/pao_oh2_br_h2o.SO.b3lyp.tz2p.sp-A2-gp.results/
 Scratch directory: /state/partition2/shaaban/985806.phlam-s-sakura/amstmp_pao_oh2_br_h2o.SO.b3lyp.tz2p.sp-A2-gp_kid0.269962543/


 Communication costs MPI_COMM_WORLD:      1.873 usec per message,   0.0320 usec per 8-byte item
 Communication costs for intra-node:      0.504 usec per message,   0.0057 usec per 8-byte item

 RNG seed: 459336896 1144605742 1067831584 -73048523 -1574911174 1825216687 158911521 -1694058025



                      ************************************************************************
                      *  ADF 2023.101  RunTime: Nov19-2023 20:40:30  ShM Nodes: 2  Procs: 8  *
                      ************************************************************************
  

       ****************************
       * SINGLE POINT CALCULATION *
       ****************************
 
--------
Geometry
--------
Formula: H4BrO4Pa
Atoms
  Index Symbol   x (angstrom)   y (angstrom)   z (angstrom)
      1     Pa    -0.16098493     0.07361913     0.80252242
      2      O     1.10866547     1.52552245    -0.11013594
      3      O    -1.74013905     0.80804222    -0.35974684
      4     Br    -0.92894851     1.64836864     3.10835868
      5      H    -1.82840042     1.55174982    -0.97179095
      6      O     0.03138922    -1.63455271    -1.00304235
      7      H    -0.47026657    -1.65284211    -1.82874564
      8      H     0.71280394    -2.31681660    -1.06398387
      9      H     2.06358919     1.62056960    -0.01163833
     10      O     1.18719477    -0.85412324     1.67519133
 
Total System Charge             0.00000
Bonding info available!
 
 
----------------
ADF Engine Input
----------------
 
 Basis
 Type TZ2P
 Core None
 End
 XC
 Hybrid B3LYP
 End
 Relativity
 Level Spin-Orbit
 End
 NumericalQuality Good
 

 Title: *** (NO TITLE) ***

 *** adf ***



 ===========================
 A T T A C H E D   F I L E S
 ===========================
  



 ===============================
 M O D E L   P A R A M E T E R S
 ===============================
  
 DENSITY FUNCTIONAL POTENTIAL (scf)
    Hybrid:                            B3LYP                                   == Not Default ==

 SPIN  (restricted / unrestr.)
    Molecule:                          Restricted                               
    Fragments:                         Restricted                               

 OTHER ASPECTS
    Relativistic Corrections:          Spin-Orbit (ZORA,MAPA)                  == Not Default ==

    Nuclear Charge Density Model:      Point Charge Nuclei                      
    Core Treatment:                    Frozen Orbital(s)                        

    Hyperfine or Zeeman Interaction:   ---                                      


 Fragment File(s)
 ----------------
 Pa:
         file : /home/shaaban/ams/PhD/bromide/pao_oh2_br_h2o/solvation/SP-SR-SO-GP/pao_oh2_br_h2o.SO.b3lyp.tz2p.sp-A2-gp.results/t21.376DF1AB.Pa
         jobid: 0
         title: Protactinium (TZ2P, all electron)
 O:
         file : /home/shaaban/ams/PhD/bromide/pao_oh2_br_h2o/solvation/SP-SR-SO-GP/pao_oh2_br_h2o.SO.b3lyp.tz2p.sp-A2-gp.results/t21.6BA271D4.O
         jobid: 0
         title: Oxygen (TZ2P)
 Br:
         file : /home/shaaban/ams/PhD/bromide/pao_oh2_br_h2o/solvation/SP-SR-SO-GP/pao_oh2_br_h2o.SO.b3lyp.tz2p.sp-A2-gp.results/t21.3E678DE8.Br
         jobid: 0
         title: Bromine (TZ2P)
 H:
         file : /home/shaaban/ams/PhD/bromide/pao_oh2_br_h2o/solvation/SP-SR-SO-GP/pao_oh2_br_h2o.SO.b3lyp.tz2p.sp-A2-gp.results/t21.1FC863BF.H
         jobid: 0
         title: Hydrogen (TZ2P)



 ===============
 G E O M E T R Y  ***  3D  Molecule  ***
 ===============
  

 ATOMS
 =====                            X Y Z                    CHARGE
                                (Angstrom)             Nucl     +Core       At.Mass
                       --------------------------    ----------------       -------
    1  Pa             -0.1610    0.0736    0.8025     91.00     91.00      231.0359
    2  O               1.1087    1.5255   -0.1101      8.00      8.00       15.9949
    3  O              -1.7401    0.8080   -0.3597      8.00      8.00       15.9949
    4  Br             -0.9289    1.6484    3.1084     35.00     35.00       78.9183
    5  H              -1.8284    1.5517   -0.9718      1.00      1.00        1.0078
    6  O               0.0314   -1.6346   -1.0030      8.00      8.00       15.9949
    7  H              -0.4703   -1.6528   -1.8287      1.00      1.00        1.0078
    8  H               0.7128   -2.3168   -1.0640      1.00      1.00        1.0078
    9  H               2.0636    1.6206   -0.0116      1.00      1.00        1.0078
   10  O               1.1872   -0.8541    1.6752      8.00      8.00       15.9949


 FRAGMENTS
 =========                                     Atoms in this Fragment     Cart. coord.s (Angstrom)
                                               -------------------------------------------------------
    1  Pa                                                1  Pa          -0.1610    0.0736    0.8025
    2  O                                                 2  O            1.1087    1.5255   -0.1101
    3  O                                                 3  O           -1.7401    0.8080   -0.3597
    4  O                                                 6  O            0.0314   -1.6346   -1.0030
    5  O                                                10  O            1.1872   -0.8541    1.6752
    6  Br                                                4  Br          -0.9289    1.6484    3.1084
    7  H                                                 5  H           -1.8284    1.5517   -0.9718
    8  H                                                 7  H           -0.4703   -1.6528   -1.8287
    9  H                                                 8  H            0.7128   -2.3168   -1.0640
   10  H                                                 9  H            2.0636    1.6206   -0.0116


 Interatomic Distance Matrix (Angstrom)
 --------------------------------------

   1)     0.000
   2)     2.134   0.000
   3)     2.094   2.948   0.000
   4)     2.896   3.811   3.659   0.000
   5)     2.848   3.061   0.967   4.179   0.000
   6)     2.493   3.456   3.085   5.348   3.689   0.000
   7)     3.162   3.943   3.135   5.957   3.584   0.966   0.000
   8)     3.156   3.979   4.035   5.986   4.629   0.966   1.557   0.000
   9)     2.829   0.965   3.905   4.323   4.009   3.963   4.521   4.294   0.000
  10)     1.855   2.976   3.934   3.577   4.679   3.020   3.958   3.141   3.121   0.000

 Min. Distance =    0.9647
 Max. Distance =    5.9855



 =====================================
 S Y M M E T R Y ,   E L E C T R O N S
 =====================================
  
 Symmetry: NOSYM

 Double Group Irreducible Representations (spinor symmetry)
 -----------------------------------------------------------
 A1/2

 Symmetry is NOT used when fitting density


 Configuration of Valence Electrons
 ==================================
 ( determined in the SCF procedure )

 Total:   162

 Net Charge: 0 (Nuclei minus Electrons)

 Aufbau principle for MO occupations will be applied through SCF cycle no.     150
 Thereafter, the program will assign electrons to MOs that are spatially
 similar to the occupied MOs in a "reference" cycle ("KeepOrbitals").
 The reference cycle is always the PREVIOUS cycle: it will evolve with
 the SCF procedure.
1
 ***************************************************************************************************



                                      ****************************************
                                      *  B U I L D : (Fragments, Functions)  *
                                      ****************************************
  



 =======
 S F O s  ***  (Symmetrized Fragment Orbitals)  ***
 =======
  
 SFOs are linear combinations of (valence) Fragment Orbitals (FOs), such that the SFOs transform as the
 irreducible representations of the (molecular) symmetry group. Each SFO is therefore characterized by
 an irrep of the molecule and by a few (or only one) generating FOs.
 The SFOs constitute a symmetry-adapted basis for the Fock matrix. The MO eigenvector coefficients in
 this basis provide a direct interpretation of the MOs in terms of Frontier Orbital Theory.

 The SFOs are combined with auxiliary Core Functions (CFs) to ensure orthogonalization on the (frozen)
 Core Orbitals (COs). The Core-orthogonalized SFOs (CSFOs) constitute the true Fock basis.

 The FOs, and hence also the (C)SFOs are combinations of the elementary basis functions (BAS). The basis
 functions that participate in the description of the SFOs depend on the irrep. The indices of the
 involved functions are printed below for each irrep.
 (The complete list of primitive basis functions is printed in another section)

 Total nr. of (C)SFOs (summation over all irreps) :   339

 NOTE: a (C)SFO that is defined as a combination of more than one FO is usually NOT normalized.

 NOTE: the (C)SFOs are single group symmetry adapted orbitals.



                                       === A ===
 Nr. of SFOs :  339
 Cartesian basis functions that participate in this irrep (total number =   390) :
      1     2     3     4     5     6     7     8     9    10
     11    12    13    14    15    16    17    20    23    26
     29    32    35    38    41    44    47    50   157    18
     21    24    27    30    33    36    39    42    45    48
     51   158    19    22    25    28    31    34    37    40
     43    46    49    52   159    53    59    65    71    77
     83    89    95   101    54    60    66    72    78    84
     90    96   102    55    61    67    73    79    85    91
     97   103    56    62    68    74    80    86    92    98
    104    57    63    69    75    81    87    93    99   105
     58    64    70    76    82    88    94   100   106   107
    117   127   137   147   108   118   128   138   148   109
    119   129   139   149   110   120   130   140   150   111
    121   131   141   151   112   122   132   142   152   113
    123   133   143   153   114   124   134   144   154   115
    125   135   145   155   116   126   136   146   156   160
    161   162   163   164   165   168   171   166   169   172
    167   170   173   174   175   176   177   178   179   180
    181   182   183   184   185   186   187   188   189   190
    191   192   193   194   195   198   201   196   199   202
    197   200   203   204   205   206   207   208   209   210
    211   212   213   214   215   216   217   218   219   220
    221   222   223   224   225   228   231   226   229   232
    227   230   233   234   235   236   237   238   239   240
    241   242   243   244   245   246   247   248   249   250
    251   252   253   254   255   258   261   256   259   262
    257   260   263   264   265   266   267   268   269   270
    271   272   273   274   275   276   277   278   279   280
    281   282   289   290   315   316   317   283   286   291
    294   318   321   324   284   287   292   295   319   322
    325   285   288   293   296   320   323   326   297   303
    309   327   298   304   310   328   299   305   311   329
    300   306   312   330   301   307   313   331   302   308
    314   332   333   334   335   336   337   338   339   340
    341   342   343   344   345   346   347   348   349   350
    351   352   353   354   355   356   357   358   359   360
    361   362   363   364   365   366   367   368   369   370
    371   372   373   374   375   376   377   378   379   380
    381   382   383   384   385   386   387   388   389   390

    SFO  (index         Fragment          Generating    Expansion in Fragment Orbitals
  indx  incl.CFs)   Occup   Orb.Energy   FragmentType  Coeff.   Orbital     on Fragment
 --------------------------------------------------------------------------------------
     1       1      2.000   -4140.144 au  Pa            1.00      1 S               1
                        ( -112659.040 eV)
     2       2      2.000    -772.390 au  Pa            1.00      2 S               1
                        (  -21017.794 eV)
     3       3      2.000    -195.003 au  Pa            1.00      3 S               1
                        (   -5306.298 eV)
     4       4      2.000     -49.664 au  Pa            1.00      4 S               1
                        (   -1351.436 eV)
     5       5      2.000     -11.057 au  Pa            1.00      5 S               1
                        (    -300.888 eV)
     6       6      2.000      -1.766 au  Pa            1.00      6 S               1
                        (     -48.049 eV)
     7       7      2.000      -0.167 au  Pa            1.00      7 S               1
                        (      -4.550 eV)
     8       8       --         0.031 au  Pa            1.00      8 S               1
                        (       0.841 eV)
     9       9       --         0.336 au  Pa            1.00      9 S               1
                        (       9.133 eV)
    10      10       --         1.674 au  Pa            1.00     10 S               1
                        (      45.549 eV)
    11      11       --         8.680 au  Pa            1.00     11 S               1
                        (     236.196 eV)
    12      12       --        46.308 au  Pa            1.00     12 S               1
                        (    1260.118 eV)
    13      13       --      1052.293 au  Pa            1.00     13 S               1
                        (   28634.347 eV)
    14      14       --      5423.866 au  Pa            1.00     14 S               1
                        (  147590.909 eV)
    15      15       --     16326.809 au  Pa            1.00     15 S               1
                        (  444275.077 eV)
    16      16       --     46434.730 au  Pa            1.00     16 S               1
                        ( 1263553.301 eV)
    17      17      2.000    -644.804 au  Pa            1.00      1 P:x             1
                        (  -17546.004 eV)
    18      18      2.000    -159.382 au  Pa            1.00      2 P:x             1
                        (   -4336.995 eV)
    19      19      2.000     -38.001 au  Pa            1.00      3 P:x             1
                        (   -1034.059 eV)
    20      20      2.000      -7.452 au  Pa            1.00      4 P:x             1
                        (    -202.774 eV)
    21      21      2.000      -0.880 au  Pa            1.00      5 P:x             1
                        (     -23.949 eV)
    22      22       --        -0.008 au  Pa            1.00      6 P:x             1
                        (      -0.215 eV)
    23      23       --         0.404 au  Pa            1.00      7 P:x             1
                        (      10.994 eV)
    24      24       --         1.850 au  Pa            1.00      8 P:x             1
                        (      50.342 eV)
    25      25       --         7.570 au  Pa            1.00      9 P:x             1
                        (     205.994 eV)
    26      26       --        35.931 au  Pa            1.00     10 P:x             1
                        (     977.731 eV)
    27      27       --       178.469 au  Pa            1.00     11 P:x             1
                        (    4856.387 eV)
    28      28       --      1509.400 au  Pa            1.00     12 P:x             1
                        (   41072.871 eV)
    29      29       --     10783.504 au  Pa            1.00     13 P:x             1
                        (  293434.081 eV)
    30      30      2.000    -644.804 au  Pa            1.00      1 P:y             1
                        (  -17546.004 eV)
    31      31      2.000    -159.382 au  Pa            1.00      2 P:y             1
                        (   -4336.995 eV)
    32      32      2.000     -38.001 au  Pa            1.00      3 P:y             1
                        (   -1034.059 eV)
    33      33      2.000      -7.452 au  Pa            1.00      4 P:y             1
                        (    -202.774 eV)
    34      34      2.000      -0.880 au  Pa            1.00      5 P:y             1
                        (     -23.949 eV)
    35      35       --        -0.008 au  Pa            1.00      6 P:y             1
                        (      -0.215 eV)
    36      36       --         0.404 au  Pa            1.00      7 P:y             1
                        (      10.994 eV)
    37      37       --         1.850 au  Pa            1.00      8 P:y             1
                        (      50.342 eV)
    38      38       --         7.570 au  Pa            1.00      9 P:y             1
                        (     205.994 eV)
    39      39       --        35.931 au  Pa            1.00     10 P:y             1
                        (     977.731 eV)
    40      40       --       178.469 au  Pa            1.00     11 P:y             1
                        (    4856.387 eV)
    41      41       --      1509.400 au  Pa            1.00     12 P:y             1
                        (   41072.871 eV)
    42      42       --     10783.504 au  Pa            1.00     13 P:y             1
                        (  293434.081 eV)
    43      43      2.000    -644.804 au  Pa            1.00      1 P:z             1
                        (  -17546.004 eV)
    44      44      2.000    -159.382 au  Pa            1.00      2 P:z             1
                        (   -4336.995 eV)
    45      45      2.000     -38.001 au  Pa            1.00      3 P:z             1
                        (   -1034.059 eV)
    46      46      2.000      -7.452 au  Pa            1.00      4 P:z             1
                        (    -202.774 eV)
    47      47      2.000      -0.880 au  Pa            1.00      5 P:z             1
                        (     -23.949 eV)
    48      48       --        -0.008 au  Pa            1.00      6 P:z             1
                        (      -0.215 eV)
    49      49       --         0.404 au  Pa            1.00      7 P:z             1
                        (      10.994 eV)
    50      50       --         1.850 au  Pa            1.00      8 P:z             1
                        (      50.342 eV)
    51      51       --         7.570 au  Pa            1.00      9 P:z             1
                        (     205.994 eV)
    52      52       --        35.931 au  Pa            1.00     10 P:z             1
                        (     977.731 eV)
    53      53       --       178.469 au  Pa            1.00     11 P:z             1
                        (    4856.387 eV)
    54      54       --      1509.400 au  Pa            1.00     12 P:z             1
                        (   41072.871 eV)
    55      55       --     10783.504 au  Pa            1.00     13 P:z             1
                        (  293434.081 eV)
    56      56      2.000    -127.750 au  Pa            1.00      1 D:z2            1
                        (   -3476.261 eV)
    57      57      2.000     -25.974 au  Pa            1.00      2 D:z2            1
                        (    -706.779 eV)
    58      58      2.000      -3.548 au  Pa            1.00      3 D:z2            1
                        (     -96.540 eV)
    59      59      0.200      -0.066 au  Pa            1.00      4 D:z2            1
                        (      -1.808 eV)
    60      60       --         0.084 au  Pa            1.00      5 D:z2            1
                        (       2.281 eV)
    61      61       --         0.569 au  Pa            1.00      6 D:z2            1
                        (      15.477 eV)
    62      62       --         3.594 au  Pa            1.00      7 D:z2            1
                        (      97.805 eV)
    63      63       --        24.986 au  Pa            1.00      8 D:z2            1
                        (     679.903 eV)
    64      64       --       204.782 au  Pa            1.00      9 D:z2            1
                        (    5572.393 eV)
    65      65      2.000    -127.750 au  Pa            1.00      1 D:x2-y2         1
                        (   -3476.261 eV)
    66      66      2.000     -25.974 au  Pa            1.00      2 D:x2-y2         1
                        (    -706.779 eV)
    67      67      2.000      -3.548 au  Pa            1.00      3 D:x2-y2         1
                        (     -96.540 eV)
    68      68      0.200      -0.066 au  Pa            1.00      4 D:x2-y2         1
                        (      -1.808 eV)
    69      69       --         0.084 au  Pa            1.00      5 D:x2-y2         1
                        (       2.281 eV)
    70      70       --         0.569 au  Pa            1.00      6 D:x2-y2         1
                        (      15.477 eV)
    71      71       --         3.594 au  Pa            1.00      7 D:x2-y2         1
                        (      97.805 eV)
    72      72       --        24.986 au  Pa            1.00      8 D:x2-y2         1
                        (     679.903 eV)
    73      73       --       204.782 au  Pa            1.00      9 D:x2-y2         1
                        (    5572.393 eV)
    74      74      2.000    -127.750 au  Pa            1.00      1 D:xy            1
                        (   -3476.261 eV)
    75      75      2.000     -25.974 au  Pa            1.00      2 D:xy            1
                        (    -706.779 eV)
    76      76      2.000      -3.548 au  Pa            1.00      3 D:xy            1
                        (     -96.540 eV)
    77      77      0.200      -0.066 au  Pa            1.00      4 D:xy            1
                        (      -1.808 eV)
    78      78       --         0.084 au  Pa            1.00      5 D:xy            1
                        (       2.281 eV)
    79      79       --         0.569 au  Pa            1.00      6 D:xy            1
                        (      15.477 eV)
    80      80       --         3.594 au  Pa            1.00      7 D:xy            1
                        (      97.805 eV)
    81      81       --        24.986 au  Pa            1.00      8 D:xy            1
                        (     679.903 eV)
    82      82       --       204.782 au  Pa            1.00      9 D:xy            1
                        (    5572.393 eV)
    83      83      2.000    -127.750 au  Pa            1.00      1 D:xz            1
                        (   -3476.261 eV)
    84      84      2.000     -25.974 au  Pa            1.00      2 D:xz            1
                        (    -706.779 eV)
    85      85      2.000      -3.548 au  Pa            1.00      3 D:xz            1
                        (     -96.540 eV)
    86      86      0.200      -0.066 au  Pa            1.00      4 D:xz            1
                        (      -1.808 eV)
    87      87       --         0.084 au  Pa            1.00      5 D:xz            1
                        (       2.281 eV)
    88      88       --         0.569 au  Pa            1.00      6 D:xz            1
                        (      15.477 eV)
    89      89       --         3.594 au  Pa            1.00      7 D:xz            1
                        (      97.805 eV)
    90      90       --        24.986 au  Pa            1.00      8 D:xz            1
                        (     679.903 eV)
    91      91       --       204.782 au  Pa            1.00      9 D:xz            1
                        (    5572.393 eV)
    92      92      2.000    -127.750 au  Pa            1.00      1 D:yz            1
                        (   -3476.261 eV)
    93      93      2.000     -25.974 au  Pa            1.00      2 D:yz            1
                        (    -706.779 eV)
    94      94      2.000      -3.548 au  Pa            1.00      3 D:yz            1
                        (     -96.540 eV)
    95      95      0.200      -0.066 au  Pa            1.00      4 D:yz            1
                        (      -1.808 eV)
    96      96       --         0.084 au  Pa            1.00      5 D:yz            1
                        (       2.281 eV)
    97      97       --         0.569 au  Pa            1.00      6 D:yz            1
                        (      15.477 eV)
    98      98       --         3.594 au  Pa            1.00      7 D:yz            1
                        (      97.805 eV)
    99      99       --        24.986 au  Pa            1.00      8 D:yz            1
                        (     679.903 eV)
   100     100       --       204.782 au  Pa            1.00      9 D:yz            1
                        (    5572.393 eV)
   101     101      2.000     -13.085 au  Pa            1.00      1 F:z3            1
                        (    -356.050 eV)
   102     102      0.286      -0.042 au  Pa            1.00      2 F:z3            1
                        (      -1.139 eV)
   103     103       --         0.419 au  Pa            1.00      3 F:z3            1
                        (      11.400 eV)
   104     104       --         2.553 au  Pa            1.00      4 F:z3            1
                        (      69.470 eV)
   105     105       --        21.603 au  Pa            1.00      5 F:z3            1
                        (     587.835 eV)
   106     106      2.000     -13.085 au  Pa            1.00      1 F:z             1
                        (    -356.050 eV)
   107     107      0.286      -0.042 au  Pa            1.00      2 F:z             1
                        (      -1.139 eV)
   108     108       --         0.419 au  Pa            1.00      3 F:z             1
                        (      11.400 eV)
   109     109       --         2.553 au  Pa            1.00      4 F:z             1
                        (      69.470 eV)
   110     110       --        21.603 au  Pa            1.00      5 F:z             1
                        (     587.835 eV)
   111     111      2.000     -13.085 au  Pa            1.00      1 F:xyz           1
                        (    -356.050 eV)
   112     112      0.286      -0.042 au  Pa            1.00      2 F:xyz           1
                        (      -1.139 eV)
   113     113       --         0.419 au  Pa            1.00      3 F:xyz           1
                        (      11.400 eV)
   114     114       --         2.553 au  Pa            1.00      4 F:xyz           1
                        (      69.470 eV)
   115     115       --        21.603 au  Pa            1.00      5 F:xyz           1
                        (     587.835 eV)
   116     116      2.000     -13.085 au  Pa            1.00      1 F:z2x           1
                        (    -356.050 eV)
   117     117      0.286      -0.042 au  Pa            1.00      2 F:z2x           1
                        (      -1.139 eV)
   118     118       --         0.419 au  Pa            1.00      3 F:z2x           1
                        (      11.400 eV)
   119     119       --         2.553 au  Pa            1.00      4 F:z2x           1
                        (      69.470 eV)
   120     120       --        21.603 au  Pa            1.00      5 F:z2x           1
                        (     587.835 eV)
   121     121      2.000     -13.085 au  Pa            1.00      1 F:z2y           1
                        (    -356.050 eV)
   122     122      0.286      -0.042 au  Pa            1.00      2 F:z2y           1
                        (      -1.139 eV)
   123     123       --         0.419 au  Pa            1.00      3 F:z2y           1
                        (      11.400 eV)
   124     124       --         2.553 au  Pa            1.00      4 F:z2y           1
                        (      69.470 eV)
   125     125       --        21.603 au  Pa            1.00      5 F:z2y           1
                        (     587.835 eV)
   126     126      2.000     -13.085 au  Pa            1.00      1 F:x             1
                        (    -356.050 eV)
   127     127      0.286      -0.042 au  Pa            1.00      2 F:x             1
                        (      -1.139 eV)
   128     128       --         0.419 au  Pa            1.00      3 F:x             1
                        (      11.400 eV)
   129     129       --         2.553 au  Pa            1.00      4 F:x             1
                        (      69.470 eV)
   130     130       --        21.603 au  Pa            1.00      5 F:x             1
                        (     587.835 eV)
   131     131      2.000     -13.085 au  Pa            1.00      1 F:y             1
                        (    -356.050 eV)
   132     132      0.286      -0.042 au  Pa            1.00      2 F:y             1
                        (      -1.139 eV)
   133     133       --         0.419 au  Pa            1.00      3 F:y             1
                        (      11.400 eV)
   134     134       --         2.553 au  Pa            1.00      4 F:y             1
                        (      69.470 eV)
   135     135       --        21.603 au  Pa            1.00      5 F:y             1
                        (     587.835 eV)
   136     136      2.000     -19.315 au  O             1.00      1 S               2
                        (    -525.599 eV)
   137     137      2.000      -0.972 au  O             1.00      2 S               2
                        (     -26.457 eV)
   138     138       --         0.838 au  O             1.00      3 S               2
                        (      22.795 eV)
   139     139       --        13.598 au  O             1.00      4 S               2
                        (     370.019 eV)
   140     140       --       122.184 au  O             1.00      5 S               2
                        (    3324.790 eV)
   141     141      1.333      -0.361 au  O             1.00      1 P:x             2
                        (      -9.818 eV)
   142     142       --         0.380 au  O             1.00      2 P:x             2
                        (      10.337 eV)
   143     143       --         3.931 au  O             1.00      3 P:x             2
                        (     106.958 eV)
   144     144      1.333      -0.361 au  O             1.00      1 P:y             2
                        (      -9.818 eV)
   145     145       --         0.380 au  O             1.00      2 P:y             2
                        (      10.337 eV)
   146     146       --         3.931 au  O             1.00      3 P:y             2
                        (     106.958 eV)
   147     147      1.333      -0.361 au  O             1.00      1 P:z             2
                        (      -9.818 eV)
   148     148       --         0.380 au  O             1.00      2 P:z             2
                        (      10.337 eV)
   149     149       --         3.931 au  O             1.00      3 P:z             2
                        (     106.958 eV)
   150     150       --         1.117 au  O             1.00      1 D:z2            2
                        (      30.399 eV)
   151     151       --         1.117 au  O             1.00      1 D:x2-y2         2
                        (      30.399 eV)
   152     152       --         1.117 au  O             1.00      1 D:xy            2
                        (      30.399 eV)
   153     153       --         1.117 au  O             1.00      1 D:xz            2
                        (      30.399 eV)
   154     154       --         1.117 au  O             1.00      1 D:yz            2
                        (      30.399 eV)
   155     155       --         3.432 au  O             1.00      1 F:z3            2
                        (      93.382 eV)
   156     156       --         3.432 au  O             1.00      1 F:z             2
                        (      93.382 eV)
   157     157       --         3.432 au  O             1.00      1 F:xyz           2
                        (      93.382 eV)
   158     158       --         3.432 au  O             1.00      1 F:z2x           2
                        (      93.382 eV)
   159     159       --         3.432 au  O             1.00      1 F:z2y           2
                        (      93.382 eV)
   160     160       --         3.432 au  O             1.00      1 F:x             2
                        (      93.382 eV)
   161     161       --         3.432 au  O             1.00      1 F:y             2
                        (      93.382 eV)
   162     162      2.000     -19.315 au  O             1.00      1 S               3
                        (    -525.599 eV)
   163     163      2.000      -0.972 au  O             1.00      2 S               3
                        (     -26.457 eV)
   164     164       --         0.838 au  O             1.00      3 S               3
                        (      22.795 eV)
   165     165       --        13.598 au  O             1.00      4 S               3
                        (     370.019 eV)
   166     166       --       122.184 au  O             1.00      5 S               3
                        (    3324.790 eV)
   167     167      1.333      -0.361 au  O             1.00      1 P:x             3
                        (      -9.818 eV)
   168     168       --         0.380 au  O             1.00      2 P:x             3
                        (      10.337 eV)
   169     169       --         3.931 au  O             1.00      3 P:x             3
                        (     106.958 eV)
   170     170      1.333      -0.361 au  O             1.00      1 P:y             3
                        (      -9.818 eV)
   171     171       --         0.380 au  O             1.00      2 P:y             3
                        (      10.337 eV)
   172     172       --         3.931 au  O             1.00      3 P:y             3
                        (     106.958 eV)
   173     173      1.333      -0.361 au  O             1.00      1 P:z             3
                        (      -9.818 eV)
   174     174       --         0.380 au  O             1.00      2 P:z             3
                        (      10.337 eV)
   175     175       --         3.931 au  O             1.00      3 P:z             3
                        (     106.958 eV)
   176     176       --         1.117 au  O             1.00      1 D:z2            3
                        (      30.399 eV)
   177     177       --         1.117 au  O             1.00      1 D:x2-y2         3
                        (      30.399 eV)
   178     178       --         1.117 au  O             1.00      1 D:xy            3
                        (      30.399 eV)
   179     179       --         1.117 au  O             1.00      1 D:xz            3
                        (      30.399 eV)
   180     180       --         1.117 au  O             1.00      1 D:yz            3
                        (      30.399 eV)
   181     181       --         3.432 au  O             1.00      1 F:z3            3
                        (      93.382 eV)
   182     182       --         3.432 au  O             1.00      1 F:z             3
                        (      93.382 eV)
   183     183       --         3.432 au  O             1.00      1 F:xyz           3
                        (      93.382 eV)
   184     184       --         3.432 au  O             1.00      1 F:z2x           3
                        (      93.382 eV)
   185     185       --         3.432 au  O             1.00      1 F:z2y           3
                        (      93.382 eV)
   186     186       --         3.432 au  O             1.00      1 F:x             3
                        (      93.382 eV)
   187     187       --         3.432 au  O             1.00      1 F:y             3
                        (      93.382 eV)
   188     188      2.000     -19.315 au  O             1.00      1 S               4
                        (    -525.599 eV)
   189     189      2.000      -0.972 au  O             1.00      2 S               4
                        (     -26.457 eV)
   190     190       --         0.838 au  O             1.00      3 S               4
                        (      22.795 eV)
   191     191       --        13.598 au  O             1.00      4 S               4
                        (     370.019 eV)
   192     192       --       122.184 au  O             1.00      5 S               4
                        (    3324.790 eV)
   193     193      1.333      -0.361 au  O             1.00      1 P:x             4
                        (      -9.818 eV)
   194     194       --         0.380 au  O             1.00      2 P:x             4
                        (      10.337 eV)
   195     195       --         3.931 au  O             1.00      3 P:x             4
                        (     106.958 eV)
   196     196      1.333      -0.361 au  O             1.00      1 P:y             4
                        (      -9.818 eV)
   197     197       --         0.380 au  O             1.00      2 P:y             4
                        (      10.337 eV)
   198     198       --         3.931 au  O             1.00      3 P:y             4
                        (     106.958 eV)
   199     199      1.333      -0.361 au  O             1.00      1 P:z             4
                        (      -9.818 eV)
   200     200       --         0.380 au  O             1.00      2 P:z             4
                        (      10.337 eV)
   201     201       --         3.931 au  O             1.00      3 P:z             4
                        (     106.958 eV)
   202     202       --         1.117 au  O             1.00      1 D:z2            4
                        (      30.399 eV)
   203     203       --         1.117 au  O             1.00      1 D:x2-y2         4
                        (      30.399 eV)
   204     204       --         1.117 au  O             1.00      1 D:xy            4
                        (      30.399 eV)
   205     205       --         1.117 au  O             1.00      1 D:xz            4
                        (      30.399 eV)
   206     206       --         1.117 au  O             1.00      1 D:yz            4
                        (      30.399 eV)
   207     207       --         3.432 au  O             1.00      1 F:z3            4
                        (      93.382 eV)
   208     208       --         3.432 au  O             1.00      1 F:z             4
                        (      93.382 eV)
   209     209       --         3.432 au  O             1.00      1 F:xyz           4
                        (      93.382 eV)
   210     210       --         3.432 au  O             1.00      1 F:z2x           4
                        (      93.382 eV)
   211     211       --         3.432 au  O             1.00      1 F:z2y           4
                        (      93.382 eV)
   212     212       --         3.432 au  O             1.00      1 F:x             4
                        (      93.382 eV)
   213     213       --         3.432 au  O             1.00      1 F:y             4
                        (      93.382 eV)
   214     214      2.000     -19.315 au  O             1.00      1 S               5
                        (    -525.599 eV)
   215     215      2.000      -0.972 au  O             1.00      2 S               5
                        (     -26.457 eV)
   216     216       --         0.838 au  O             1.00      3 S               5
                        (      22.795 eV)
   217     217       --        13.598 au  O             1.00      4 S               5
                        (     370.019 eV)
   218     218       --       122.184 au  O             1.00      5 S               5
                        (    3324.790 eV)
   219     219      1.333      -0.361 au  O             1.00      1 P:x             5
                        (      -9.818 eV)
   220     220       --         0.380 au  O             1.00      2 P:x             5
                        (      10.337 eV)
   221     221       --         3.931 au  O             1.00      3 P:x             5
                        (     106.958 eV)
   222     222      1.333      -0.361 au  O             1.00      1 P:y             5
                        (      -9.818 eV)
   223     223       --         0.380 au  O             1.00      2 P:y             5
                        (      10.337 eV)
   224     224       --         3.931 au  O             1.00      3 P:y             5
                        (     106.958 eV)
   225     225      1.333      -0.361 au  O             1.00      1 P:z             5
                        (      -9.818 eV)
   226     226       --         0.380 au  O             1.00      2 P:z             5
                        (      10.337 eV)
   227     227       --         3.931 au  O             1.00      3 P:z             5
                        (     106.958 eV)
   228     228       --         1.117 au  O             1.00      1 D:z2            5
                        (      30.399 eV)
   229     229       --         1.117 au  O             1.00      1 D:x2-y2         5
                        (      30.399 eV)
   230     230       --         1.117 au  O             1.00      1 D:xy            5
                        (      30.399 eV)
   231     231       --         1.117 au  O             1.00      1 D:xz            5
                        (      30.399 eV)
   232     232       --         1.117 au  O             1.00      1 D:yz            5
                        (      30.399 eV)
   233     233       --         3.432 au  O             1.00      1 F:z3            5
                        (      93.382 eV)
   234     234       --         3.432 au  O             1.00      1 F:z             5
                        (      93.382 eV)
   235     235       --         3.432 au  O             1.00      1 F:xyz           5
                        (      93.382 eV)
   236     236       --         3.432 au  O             1.00      1 F:z2x           5
                        (      93.382 eV)
   237     237       --         3.432 au  O             1.00      1 F:z2y           5
                        (      93.382 eV)
   238     238       --         3.432 au  O             1.00      1 F:x             5
                        (      93.382 eV)
   239     239       --         3.432 au  O             1.00      1 F:y             5
                        (      93.382 eV)
   240     240      2.000    -490.425 au  Br            1.00      1 S               6
                        (  -13345.153 eV)
   241     241      2.000     -64.284 au  Br            1.00      2 S               6
                        (   -1749.254 eV)
   242     242      2.000      -9.014 au  Br            1.00      3 S               6
                        (    -245.287 eV)
   243     243      2.000      -0.803 au  Br            1.00      4 S               6
                        (     -21.839 eV)
   244     244       --         0.253 au  Br            1.00      5 S               6
                        (       6.896 eV)
   245     245       --         2.489 au  Br            1.00      6 S               6
                        (      67.729 eV)
   246     246       --        13.742 au  Br            1.00      7 S               6
                        (     373.941 eV)
   247     247       --       616.782 au  Br            1.00      8 S               6
                        (   16783.495 eV)
   248     248      2.000     -56.699 au  Br            1.00      1 P:x             6
                        (   -1542.860 eV)
   249     249      2.000      -6.616 au  Br            1.00      2 P:x             6
                        (    -180.024 eV)
   250     250      1.667      -0.315 au  Br            1.00      3 P:x             6
                        (      -8.570 eV)
   251     251       --         0.156 au  Br            1.00      4 P:x             6
                        (       4.239 eV)
   252     252       --         1.263 au  Br            1.00      5 P:x             6
                        (      34.364 eV)
   253     253       --         8.906 au  Br            1.00      6 P:x             6
                        (     242.347 eV)
   254     254       --        96.229 au  Br            1.00      7 P:x             6
                        (    2618.513 eV)
   255     255      2.000     -56.699 au  Br            1.00      1 P:y             6
                        (   -1542.860 eV)
   256     256      2.000      -6.616 au  Br            1.00      2 P:y             6
                        (    -180.024 eV)
   257     257      1.667      -0.315 au  Br            1.00      3 P:y             6
                        (      -8.570 eV)
   258     258       --         0.156 au  Br            1.00      4 P:y             6
                        (       4.239 eV)
   259     259       --         1.263 au  Br            1.00      5 P:y             6
                        (      34.364 eV)
   260     260       --         8.906 au  Br            1.00      6 P:y             6
                        (     242.347 eV)
   261     261       --        96.229 au  Br            1.00      7 P:y             6
                        (    2618.513 eV)
   262     262      2.000     -56.699 au  Br            1.00      1 P:z             6
                        (   -1542.860 eV)
   263     263      2.000      -6.616 au  Br            1.00      2 P:z             6
                        (    -180.024 eV)
   264     264      1.667      -0.315 au  Br            1.00      3 P:z             6
                        (      -8.570 eV)
   265     265       --         0.156 au  Br            1.00      4 P:z             6
                        (       4.239 eV)
   266     266       --         1.263 au  Br            1.00      5 P:z             6
                        (      34.364 eV)
   267     267       --         8.906 au  Br            1.00      6 P:z             6
                        (     242.347 eV)
   268     268       --        96.229 au  Br            1.00      7 P:z             6
                        (    2618.513 eV)
   269     269      2.000      -2.608 au  Br            1.00      1 D:z2            6
                        (     -70.973 eV)
   270     270       --         0.301 au  Br            1.00      2 D:z2            6
                        (       8.189 eV)
   271     271       --         2.805 au  Br            1.00      3 D:z2            6
                        (      76.341 eV)
   272     272       --        20.795 au  Br            1.00      4 D:z2            6
                        (     565.860 eV)
   273     273      2.000      -2.608 au  Br            1.00      1 D:x2-y2         6
                        (     -70.973 eV)
   274     274       --         0.301 au  Br            1.00      2 D:x2-y2         6
                        (       8.189 eV)
   275     275       --         2.805 au  Br            1.00      3 D:x2-y2         6
                        (      76.341 eV)
   276     276       --        20.795 au  Br            1.00      4 D:x2-y2         6
                        (     565.860 eV)
   277     277      2.000      -2.608 au  Br            1.00      1 D:xy            6
                        (     -70.973 eV)
   278     278       --         0.301 au  Br            1.00      2 D:xy            6
                        (       8.189 eV)
   279     279       --         2.805 au  Br            1.00      3 D:xy            6
                        (      76.341 eV)
   280     280       --        20.795 au  Br            1.00      4 D:xy            6
                        (     565.860 eV)
   281     281      2.000      -2.608 au  Br            1.00      1 D:xz            6
                        (     -70.973 eV)
   282     282       --         0.301 au  Br            1.00      2 D:xz            6
                        (       8.189 eV)
   283     283       --         2.805 au  Br            1.00      3 D:xz            6
                        (      76.341 eV)
   284     284       --        20.795 au  Br            1.00      4 D:xz            6
                        (     565.860 eV)
   285     285      2.000      -2.608 au  Br            1.00      1 D:yz            6
                        (     -70.973 eV)
   286     286       --         0.301 au  Br            1.00      2 D:yz            6
                        (       8.189 eV)
   287     287       --         2.805 au  Br            1.00      3 D:yz            6
                        (      76.341 eV)
   288     288       --        20.795 au  Br            1.00      4 D:yz            6
                        (     565.860 eV)
   289     289       --         0.902 au  Br            1.00      1 F:z3            6
                        (      24.536 eV)
   290     290       --         0.902 au  Br            1.00      1 F:z             6
                        (      24.536 eV)
   291     291       --         0.902 au  Br            1.00      1 F:xyz           6
                        (      24.536 eV)
   292     292       --         0.902 au  Br            1.00      1 F:z2x           6
                        (      24.536 eV)
   293     293       --         0.902 au  Br            1.00      1 F:z2y           6
                        (      24.536 eV)
   294     294       --         0.902 au  Br            1.00      1 F:x             6
                        (      24.536 eV)
   295     295       --         0.902 au  Br            1.00      1 F:y             6
                        (      24.536 eV)
   296     296      1.000      -0.244 au  H             1.00      1 S               7
                        (      -6.641 eV)
   297     297       --         0.104 au  H             1.00      2 S               7
                        (       2.836 eV)
   298     298       --         1.564 au  H             1.00      3 S               7
                        (      42.560 eV)
   299     299       --         0.436 au  H             1.00      1 P:x             7
                        (      11.864 eV)
   300     300       --         0.436 au  H             1.00      1 P:y             7
                        (      11.864 eV)
   301     301       --         0.436 au  H             1.00      1 P:z             7
                        (      11.864 eV)
   302     302       --         2.617 au  H             1.00      1 D:z2            7
                        (      71.221 eV)
   303     303       --         2.617 au  H             1.00      1 D:x2-y2         7
                        (      71.221 eV)
   304     304       --         2.617 au  H             1.00      1 D:xy            7
                        (      71.221 eV)
   305     305       --         2.617 au  H             1.00      1 D:xz            7
                        (      71.221 eV)
   306     306       --         2.617 au  H             1.00      1 D:yz            7
                        (      71.221 eV)
   307     307      1.000      -0.244 au  H             1.00      1 S               8
                        (      -6.641 eV)
   308     308       --         0.104 au  H             1.00      2 S               8
                        (       2.836 eV)
   309     309       --         1.564 au  H             1.00      3 S               8
                        (      42.560 eV)
   310     310       --         0.436 au  H             1.00      1 P:x             8
                        (      11.864 eV)
   311     311       --         0.436 au  H             1.00      1 P:y             8
                        (      11.864 eV)
   312     312       --         0.436 au  H             1.00      1 P:z             8
                        (      11.864 eV)
   313     313       --         2.617 au  H             1.00      1 D:z2            8
                        (      71.221 eV)
   314     314       --         2.617 au  H             1.00      1 D:x2-y2         8
                        (      71.221 eV)
   315     315       --         2.617 au  H             1.00      1 D:xy            8
                        (      71.221 eV)
   316     316       --         2.617 au  H             1.00      1 D:xz            8
                        (      71.221 eV)
   317     317       --         2.617 au  H             1.00      1 D:yz            8
                        (      71.221 eV)
   318     318      1.000      -0.244 au  H             1.00      1 S               9
                        (      -6.641 eV)
   319     319       --         0.104 au  H             1.00      2 S               9
                        (       2.836 eV)
   320     320       --         1.564 au  H             1.00      3 S               9
                        (      42.560 eV)
   321     321       --         0.436 au  H             1.00      1 P:x             9
                        (      11.864 eV)
   322     322       --         0.436 au  H             1.00      1 P:y             9
                        (      11.864 eV)
   323     323       --         0.436 au  H             1.00      1 P:z             9
                        (      11.864 eV)
   324     324       --         2.617 au  H             1.00      1 D:z2            9
                        (      71.221 eV)
   325     325       --         2.617 au  H             1.00      1 D:x2-y2         9
                        (      71.221 eV)
   326     326       --         2.617 au  H             1.00      1 D:xy            9
                        (      71.221 eV)
   327     327       --         2.617 au  H             1.00      1 D:xz            9
                        (      71.221 eV)
   328     328       --         2.617 au  H             1.00      1 D:yz            9
                        (      71.221 eV)
   329     329      1.000      -0.244 au  H             1.00      1 S              10
                        (      -6.641 eV)
   330     330       --         0.104 au  H             1.00      2 S              10
                        (       2.836 eV)
   331     331       --         1.564 au  H             1.00      3 S              10
                        (      42.560 eV)
   332     332       --         0.436 au  H             1.00      1 P:x            10
                        (      11.864 eV)
   333     333       --         0.436 au  H             1.00      1 P:y            10
                        (      11.864 eV)
   334     334       --         0.436 au  H             1.00      1 P:z            10
                        (      11.864 eV)
   335     335       --         2.617 au  H             1.00      1 D:z2           10
                        (      71.221 eV)
   336     336       --         2.617 au  H             1.00      1 D:x2-y2        10
                        (      71.221 eV)
   337     337       --         2.617 au  H             1.00      1 D:xy           10
                        (      71.221 eV)
   338     338       --         2.617 au  H             1.00      1 D:xz           10
                        (      71.221 eV)
   339     339       --         2.617 au  H             1.00      1 D:yz           10
                        (      71.221 eV)



 ================================
 (Slater-type)  F U N C T I O N S  ***  (Basis and Fit)  ***
 ================================
  

 Atom Type    1  (Pa)
 ==============

 Valence Basis Sets:  43
 -----------------------
   1 S 1028.000000
   1 S  240.000000
   1 S  107.000000
   2 S  131.500000
   2 S   46.500000
   3 S   59.100000
   3 S   25.450000
   4 S   15.550000
   4 S   11.050000
   5 S   10.200000
   5 S    7.100000
   6 S    4.950000
   6 S    3.250000
   7 S    2.350000
   7 S    1.550000
   7 S    1.020000
   2 P  240.000000
   2 P   84.000000
   2 P   43.600000
   3 P   24.750000
   3 P   17.850000
   4 P   17.650000
   4 P   12.100000
   5 P    8.500000
   5 P    5.900000
   6 P    4.400000
   6 P    3.000000
   6 P    2.100000
   3 D   33.750000
   3 D   21.750000
   4 D   15.300000
   4 D   10.450000
   5 D    7.150000
   5 D    4.600000
   6 D    3.000000
   6 D    1.700000
   6 D    0.980000
   4 F   17.100000
   4 F    9.350000
   5 F    5.850000
   5 F    3.150000
   5 F    1.550000
   7 P    1.550000

 Charge Fitting Sets (for the computation of the Coulomb Potential):  87
 -----------------------------------------------------------------------
   1 S 2056.000000
   1 S 1549.519000
   1 S 1167.806000
   1 S  880.126000
   1 S  663.313000
   1 S  499.911000
   1 S  376.761000
   1 S  283.949000
   1 S  214.000000
   1 S  127.280000
   2 S  140.220000
   2 S   93.850000
   3 S   92.230000
   3 S   65.710000
   4 S   61.900000
   4 S   45.910000
   5 S   42.420000
   5 S   32.370000
   6 S   29.610000
   6 S   23.090000
   7 S   21.000000
   7 S   16.670000
   8 S   15.120000
   8 S   12.170000
   9 S   11.020000
   9 S    8.970000
  10 S    8.120000
  10 S    6.680000
  11 S    6.050000
  11 S    5.020000
  12 S    4.550000
  12 S    3.800000
  12 S    3.180000
  13 S    2.880000
  13 S    2.420000
  13 S    2.040000
   2 P  150.600000
   3 P  125.870000
   4 P  103.260000
   5 P   84.350000
   6 P   68.960000
   7 P   56.560000
   7 P   40.600000
   8 P   33.430000
   8 P   24.490000
   9 P   20.250000
   9 P   15.090000
  10 P   12.530000
  10 P    9.470000
  11 P    7.900000
  11 P    6.040000
  12 P    5.060000
  12 P    3.910000
  13 P    3.290000
  13 P    2.570000
   3 D  128.750000
   4 D   91.090000
   5 D   65.210000
   6 D   47.270000
   7 D   34.690000
   8 D   25.740000
   9 D   19.290000
   9 D   13.060000
  10 D    9.880000
  10 D    6.820000
  11 D    5.210000
  11 D    3.650000
  12 D    2.810000
  12 D    2.000000
   4 F  116.350000
   5 F   72.360000
   6 F   46.140000
   7 F   30.070000
   8 F   19.970000
   9 F   13.480000
  10 F    9.240000
  10 F    5.790000
  11 F    4.020000
  11 F    2.570000
   5 G   52.950000
   6 G   31.380000
   7 G   19.110000
   8 G   11.920000
   9 G    7.580000
  10 G    4.910000
  11 G    3.230000
  11 G    1.960000

 Atom Type    2  (O)
 ==============

 Valence Basis Sets:  10
 -----------------------
   1 S    9.800000
   1 S    6.800000
   2 S    7.580000
   2 S    2.880000
   2 S    1.720000
   2 P    4.080000
   2 P    2.080000
   2 P    1.120000
   3 D    2.000000
   4 F    3.000000

 Charge Fitting Sets (for the computation of the Coulomb Potential):  22
 -----------------------------------------------------------------------
   1 S   19.600000
   2 S   22.600000
   2 S   15.680000
   2 S   10.890000
   2 S    7.560000
   3 S    7.690000
   3 S    5.650000
   3 S    4.150000
   3 S    3.050000
   3 S    2.240000
   2 P   12.860000
   2 P    7.680000
   3 P    6.780000
   3 P    4.390000
   3 P    2.840000
   3 D    8.800000
   3 D    5.580000
   3 D    3.530000
   3 D    2.240000
   4 F    6.200000
   4 F    3.700000
   5 G    4.500000

 Atom Type    3  (Br)
 ==============

 Valence Basis Sets:  20
 -----------------------
   1 S   41.300000
   1 S   32.800000
   2 S   13.900000
   2 P   19.450000
   2 P   13.100000
   3 S    7.200000
   3 S    4.950000
   3 P    7.900000
   3 P    5.050000
   3 D   10.900000
   3 D    6.050000
   3 D    3.500000
   4 S    4.500000
   4 S    2.800000
   4 S    1.800000
   4 P    3.250000
   4 P    1.950000
   4 P    1.200000
   4 D    1.800000
   4 F    1.800000

 Charge Fitting Sets (for the computation of the Coulomb Potential):  41
 -----------------------------------------------------------------------
   1 S   82.600000
   2 S   92.520000
   2 S   62.760000
   3 S   62.470000
   3 S   45.010000
   4 S   42.870000
   4 S   32.110000
   4 S   24.060000
   5 S   22.440000
   5 S   17.280000
   5 S   13.310000
   6 S   12.280000
   6 S    9.660000
   6 S    7.590000
   6 S    5.970000
   7 S    5.480000
   7 S    4.380000
   7 S    3.500000
   7 S    2.800000
   2 P   60.750000
   3 P   39.390000
   4 P   25.970000
   5 P   17.450000
   6 P   11.940000
   6 P    7.050000
   7 P    4.900000
   7 P    3.000000
   3 D   47.350000
   4 D   30.380000
   5 D   19.930000
   6 D   13.340000
   6 D    7.700000
   7 D    5.250000
   7 D    3.150000
   4 F   19.840000
   5 F   11.010000
   6 F    6.330000
   7 F    3.750000
   5 G   10.680000
   6 G    6.110000
   7 G    3.600000

 Atom Type    4  (H)
 ==============

 Valence Basis Sets:   5
 -----------------------
   1 S    0.690000
   1 S    0.920000
   1 S    1.580000
   2 P    1.250000
   3 D    2.500000

 Charge Fitting Sets (for the computation of the Coulomb Potential):  11
 -----------------------------------------------------------------------
   1 S    3.160000
   1 S    2.090000
   1 S    1.380000
   2 S    1.500000
   2 P    4.000000
   2 P    2.650000
   2 P    1.750000
   3 D    4.000000
   3 D    2.500000
   4 F    3.000000
   5 G    4.000000


 BAS: List of all Elementary Cartesian Basis Functions
 =====================================================

 The numbering in the list below (to the right of the function characteristics) is referred
 to in print-outs of MO eigenvectors and Mulliken populations in the BAS representation
 (as contrasted to the SFO representation).

 Notes:
 1. The functions are characterized by a polynomial prefactor (powers of x,y,z and r) and
    an exponential decay factor alpha.
 2. Since the basis sets are specific for an atom TYPE, the individual functions occur on
    all atoms of that type.
 3. The word 'Core' in the left margin signals that it is a Core Function (CF) : not a
    degree of freedom in the valence set, but only used to ensure orthogonalization of
    the other valence basis functions on the frozen Core Orbitals.


 (power of) X  Y  Z  R     Alpha  on Atom
            ==========     =====     ==========

 Pa                                   1
                                  ---------------------------------------------------------------------------
            0  0  0  0  1028.000      1
            0  0  0  0   240.000      2
            0  0  0  0   107.000      3
            0  0  0  1   131.500      4
            0  0  0  1    46.500      5
            0  0  0  2    59.100      6
            0  0  0  2    25.450      7
            0  0  0  3    15.550      8
            0  0  0  3    11.050      9
            0  0  0  4    10.200     10
            0  0  0  4     7.100     11
            0  0  0  5     4.950     12
            0  0  0  5     3.250     13
            0  0  0  6     2.350     14
            0  0  0  6     1.550     15
            0  0  0  6     1.020     16
            1  0  0  0   240.000     17
            0  1  0  0   240.000     18
            0  0  1  0   240.000     19
            1  0  0  0    84.000     20
            0  1  0  0    84.000     21
            0  0  1  0    84.000     22
            1  0  0  0    43.600     23
            0  1  0  0    43.600     24
            0  0  1  0    43.600     25
            1  0  0  1    24.750     26
            0  1  0  1    24.750     27
            0  0  1  1    24.750     28
            1  0  0  1    17.850     29
            0  1  0  1    17.850     30
            0  0  1  1    17.850     31
            1  0  0  2    17.650     32
            0  1  0  2    17.650     33
            0  0  1  2    17.650     34
            1  0  0  2    12.100     35
            0  1  0  2    12.100     36
            0  0  1  2    12.100     37
            1  0  0  3     8.500     38
            0  1  0  3     8.500     39
            0  0  1  3     8.500     40
            1  0  0  3     5.900     41
            0  1  0  3     5.900     42
            0  0  1  3     5.900     43
            1  0  0  4     4.400     44
            0  1  0  4     4.400     45
            0  0  1  4     4.400     46
            1  0  0  4     3.000     47
            0  1  0  4     3.000     48
            0  0  1  4     3.000     49
            1  0  0  4     2.100     50
            0  1  0  4     2.100     51
            0  0  1  4     2.100     52
            2  0  0  0    33.750     53
            1  1  0  0    33.750     54
            1  0  1  0    33.750     55
            0  2  0  0    33.750     56
            0  1  1  0    33.750     57
            0  0  2  0    33.750     58
            2  0  0  0    21.750     59
            1  1  0  0    21.750     60
            1  0  1  0    21.750     61
            0  2  0  0    21.750     62
            0  1  1  0    21.750     63
            0  0  2  0    21.750     64
            2  0  0  1    15.300     65
            1  1  0  1    15.300     66
            1  0  1  1    15.300     67
            0  2  0  1    15.300     68
            0  1  1  1    15.300     69
            0  0  2  1    15.300     70
            2  0  0  1    10.450     71
            1  1  0  1    10.450     72
            1  0  1  1    10.450     73
            0  2  0  1    10.450     74
            0  1  1  1    10.450     75
            0  0  2  1    10.450     76
            2  0  0  2     7.150     77
            1  1  0  2     7.150     78
            1  0  1  2     7.150     79
            0  2  0  2     7.150     80
            0  1  1  2     7.150     81
            0  0  2  2     7.150     82
            2  0  0  2     4.600     83
            1  1  0  2     4.600     84
            1  0  1  2     4.600     85
            0  2  0  2     4.600     86
            0  1  1  2     4.600     87
            0  0  2  2     4.600     88
            2  0  0  3     3.000     89
            1  1  0  3     3.000     90
            1  0  1  3     3.000     91
            0  2  0  3     3.000     92
            0  1  1  3     3.000     93
            0  0  2  3     3.000     94
            2  0  0  3     1.700     95
            1  1  0  3     1.700     96
            1  0  1  3     1.700     97
            0  2  0  3     1.700     98
            0  1  1  3     1.700     99
            0  0  2  3     1.700    100
            2  0  0  3     0.980    101
            1  1  0  3     0.980    102
            1  0  1  3     0.980    103
            0  2  0  3     0.980    104
            0  1  1  3     0.980    105
            0  0  2  3     0.980    106
            3  0  0  0    17.100    107
            2  1  0  0    17.100    108
            2  0  1  0    17.100    109
            1  2  0  0    17.100    110
            1  1  1  0    17.100    111
            1  0  2  0    17.100    112
            0  3  0  0    17.100    113
            0  2  1  0    17.100    114
            0  1  2  0    17.100    115
            0  0  3  0    17.100    116
            3  0  0  0     9.350    117
            2  1  0  0     9.350    118
            2  0  1  0     9.350    119
            1  2  0  0     9.350    120
            1  1  1  0     9.350    121
            1  0  2  0     9.350    122
            0  3  0  0     9.350    123
            0  2  1  0     9.350    124
            0  1  2  0     9.350    125
            0  0  3  0     9.350    126
            3  0  0  1     5.850    127
            2  1  0  1     5.850    128
            2  0  1  1     5.850    129
            1  2  0  1     5.850    130
            1  1  1  1     5.850    131
            1  0  2  1     5.850    132
            0  3  0  1     5.850    133
            0  2  1  1     5.850    134
            0  1  2  1     5.850    135
            0  0  3  1     5.850    136
            3  0  0  1     3.150    137
            2  1  0  1     3.150    138
            2  0  1  1     3.150    139
            1  2  0  1     3.150    140
            1  1  1  1     3.150    141
            1  0  2  1     3.150    142
            0  3  0  1     3.150    143
            0  2  1  1     3.150    144
            0  1  2  1     3.150    145
            0  0  3  1     3.150    146
            3  0  0  1     1.550    147
            2  1  0  1     1.550    148
            2  0  1  1     1.550    149
            1  2  0  1     1.550    150
            1  1  1  1     1.550    151
            1  0  2  1     1.550    152
            0  3  0  1     1.550    153
            0  2  1  1     1.550    154
            0  1  2  1     1.550    155
            0  0  3  1     1.550    156
            1  0  0  5     1.550    157
            0  1  0  5     1.550    158
            0  0  1  5     1.550    159

 O                                    2    3    4    5
                                  ---------------------------------------------------------------------------
            0  0  0  0     9.800    160  190  220  250
            0  0  0  0     6.800    161  191  221  251
            0  0  0  1     7.580    162  192  222  252
            0  0  0  1     2.880    163  193  223  253
            0  0  0  1     1.720    164  194  224  254
            1  0  0  0     4.080    165  195  225  255
            0  1  0  0     4.080    166  196  226  256
            0  0  1  0     4.080    167  197  227  257
            1  0  0  0     2.080    168  198  228  258
            0  1  0  0     2.080    169  199  229  259
            0  0  1  0     2.080    170  200  230  260
            1  0  0  0     1.120    171  201  231  261
            0  1  0  0     1.120    172  202  232  262
            0  0  1  0     1.120    173  203  233  263
            2  0  0  0     2.000    174  204  234  264
            1  1  0  0     2.000    175  205  235  265
            1  0  1  0     2.000    176  206  236  266
            0  2  0  0     2.000    177  207  237  267
            0  1  1  0     2.000    178  208  238  268
            0  0  2  0     2.000    179  209  239  269
            3  0  0  0     3.000    180  210  240  270
            2  1  0  0     3.000    181  211  241  271
            2  0  1  0     3.000    182  212  242  272
            1  2  0  0     3.000    183  213  243  273
            1  1  1  0     3.000    184  214  244  274
            1  0  2  0     3.000    185  215  245  275
            0  3  0  0     3.000    186  216  246  276
            0  2  1  0     3.000    187  217  247  277
            0  1  2  0     3.000    188  218  248  278
            0  0  3  0     3.000    189  219  249  279

 Br                                   6
                                  ---------------------------------------------------------------------------
            0  0  0  0    41.300    280
            0  0  0  0    32.800    281
            0  0  0  1    13.900    282
            1  0  0  0    19.450    283
            0  1  0  0    19.450    284
            0  0  1  0    19.450    285
            1  0  0  0    13.100    286
            0  1  0  0    13.100    287
            0  0  1  0    13.100    288
            0  0  0  2     7.200    289
            0  0  0  2     4.950    290
            1  0  0  1     7.900    291
            0  1  0  1     7.900    292
            0  0  1  1     7.900    293
            1  0  0  1     5.050    294
            0  1  0  1     5.050    295
            0  0  1  1     5.050    296
            2  0  0  0    10.900    297
            1  1  0  0    10.900    298
            1  0  1  0    10.900    299
            0  2  0  0    10.900    300
            0  1  1  0    10.900    301
            0  0  2  0    10.900    302
            2  0  0  0     6.050    303
            1  1  0  0     6.050    304
            1  0  1  0     6.050    305
            0  2  0  0     6.050    306
            0  1  1  0     6.050    307
            0  0  2  0     6.050    308
            2  0  0  0     3.500    309
            1  1  0  0     3.500    310
            1  0  1  0     3.500    311
            0  2  0  0     3.500    312
            0  1  1  0     3.500    313
            0  0  2  0     3.500    314
            0  0  0  3     4.500    315
            0  0  0  3     2.800    316
            0  0  0  3     1.800    317
            1  0  0  2     3.250    318
            0  1  0  2     3.250    319
            0  0  1  2     3.250    320
            1  0  0  2     1.950    321
            0  1  0  2     1.950    322
            0  0  1  2     1.950    323
            1  0  0  2     1.200    324
            0  1  0  2     1.200    325
            0  0  1  2     1.200    326
            2  0  0  1     1.800    327
            1  1  0  1     1.800    328
            1  0  1  1     1.800    329
            0  2  0  1     1.800    330
            0  1  1  1     1.800    331
            0  0  2  1     1.800    332
            3  0  0  0     1.800    333
            2  1  0  0     1.800    334
            2  0  1  0     1.800    335
            1  2  0  0     1.800    336
            1  1  1  0     1.800    337
            1  0  2  0     1.800    338
            0  3  0  0     1.800    339
            0  2  1  0     1.800    340
            0  1  2  0     1.800    341
            0  0  3  0     1.800    342

 H                                    7    8    9   10
                                  ---------------------------------------------------------------------------
            0  0  0  0     0.690    343  355  367  379
            0  0  0  0     0.920    344  356  368  380
            0  0  0  0     1.580    345  357  369  381
            1  0  0  0     1.250    346  358  370  382
            0  1  0  0     1.250    347  359  371  383
            0  0  1  0     1.250    348  360  372  384
            2  0  0  0     2.500    349  361  373  385
            1  1  0  0     2.500    350  362  374  386
            1  0  1  0     2.500    351  363  375  387
            0  2  0  0     2.500    352  364  376  388
            0  1  1  0     2.500    353  365  377  389
            0  0  2  0     2.500    354  366  378  390

 Total number of charge fitting functions (nprimf)      1103
 Total number of Cartesian basis functions (naos)        390
 Total number of Cartesian core functions  (ncos)          0

1
 ***************************************************************************************************



                                              ***********************
                                              *  T E C H N I C A L  *
                                              ***********************
  



 =============================================================
 P A R A L L E L I Z A T I O N  and  V E C T O R I Z A T I O N
 =============================================================
  
 Nr of parallel processes:                                8
 Maximum vector length in NumInt loops:                 128



 =====================
 S C F   U P D A T E S
 =====================
  
 Max. nr. of cycles:                               300
 Convergence criterion:                              0.0000010000
   secondary criterion:                              0.0010000000

 Mix parameter (when DIIS does not apply):           0.2000000000
 Mixed ADIIS+SDIIS will be used                  
    Max number of expansion vectors:                10
    Pure ADIIS when Max([F,P]) is above              0.1000000000
    Pure SDIIS when Max([F,P]) is below              0.0010000000
 Automatic ElectronSmearing (in case of problematic SCF convergence) disabled



 =================
 P R E C I S I O N  ***  (General: NumInt, NeglectFunctionTails, ...)  ***
 =================
  

 NumInt:           Target precision:                 6.0000000000
 -------           Initial precision:                6.0000000000
                   Min. precision (optimization):    6.0000000000

 Neglect Functions:          Basis functions:        0.1000000000E-07
 ------------------          Fit functions:          0.1000000000E-07



 ===========================
 L I N E A R   S C A L I N G
 ===========================
  

 Cut-off radii density fit:                        0.1000000000E-09
 Overlap cut-off criterion AO matrix elements:     0.1000000000E-07
 Cut-offs for Coulomb potential and fitted density:0.1000000000E-09
 Cut-off criterion for Coulomb multipole terms:    0.1000000000E-09
 Progressive Convergence parameter:                 0.000000000    
1
 ***************************************************************************************************



                                            ***************************
                                            *  C O M P U T A T I O N  *
                                            ***************************
  



 ==============================
 Double group spinor symmetries  ***  (Spin-Orbit)  ***
 ==============================
  

 The double group Lowdins are spinors adapted to the irreducible representations
[...]

Note: only printing virtual orbitals with
      energy smaller than HOMO + 100. eV

HOMO (eV):              -6.4115
LUMO (eV):              -2.3389
HOMO-LUMO gap (eV):      4.0726

   Index   Energy (eV)    Occupation
     446       93.4423         0.000       
     445       93.4423         0.000       
     444       92.7493         0.000       
     443       92.7493         0.000       
     442       90.8620         0.000       
     441       90.8620         0.000       
     440       90.0660         0.000       
     439       90.0660         0.000       
     438       89.7859         0.000       
     437       89.7859         0.000       
     436       87.9718         0.000       
     435       87.9718         0.000       
     434       86.3106         0.000       
     433       86.3106         0.000       
     432       85.8961         0.000       
     431       85.8961         0.000       
     430       82.7589         0.000       
     429       82.7589         0.000       
     428       82.2295         0.000       
     427       82.2295         0.000       
     426       81.6325         0.000       
     425       81.6325         0.000       
     424       81.2975         0.000       
     423       81.2975         0.000       
     422       81.2342         0.000       
     421       81.2342         0.000       
     420       80.7105         0.000       
     419       80.7105         0.000       
     418       80.1835         0.000       
     417       80.1835         0.000       
     416       76.6305         0.000       
     415       76.6305         0.000       
     414       75.7946         0.000       
     413       75.7946         0.000       
     412       75.1251         0.000       
     411       75.1251         0.000       
     410       74.5093         0.000       
     409       74.5093         0.000       
     408       73.8094         0.000       
     407       73.8094         0.000       
     406       73.3989         0.000       
     405       73.3989         0.000       
     404       72.9169         0.000       
     403       72.9169         0.000       
     402       70.8877         0.000       
     401       70.8877         0.000       
     400       69.3698         0.000       
     399       69.3698         0.000       
     398       68.3191         0.000       
     397       68.3191         0.000       
     396       67.8858         0.000       
     395       67.8858         0.000       
     394       67.2760         0.000       
     393       67.2760         0.000       
     392       65.5838         0.000       
     391       65.5838         0.000       
     390       62.8188         0.000       
     389       62.8188         0.000       
     388       61.7275         0.000       
     387       61.7275         0.000       
     386       61.2026         0.000       
     385       61.2026         0.000       
     384       60.2649         0.000       
     383       60.2649         0.000       
     382       59.3623         0.000       
     381       59.3623         0.000       
     380       57.1583         0.000       
     379       57.1583         0.000       
     378       55.4993         0.000       
     377       55.4993         0.000       
     376       53.4120         0.000       
     375       53.4120         0.000       
     374       52.5173         0.000       
     373       52.5173         0.000       
     372       51.6362         0.000       
     371       51.6362         0.000       
     370       49.3189         0.000       
     369       49.3189         0.000       
     368       48.4695         0.000       
     367       48.4695         0.000       
     366       48.0613         0.000       
     365       48.0613         0.000       
     364       47.7059         0.000       
     363       47.7059         0.000       
     362       46.6892         0.000       
     361       46.6892         0.000       
     360       45.6578         0.000       
     359       45.6578         0.000       
     358       45.0608         0.000       
     357       45.0608         0.000       
     356       44.1198         0.000       
     355       44.1198         0.000       
     354       43.0935         0.000       
     353       43.0935         0.000       
     352       42.4614         0.000       
     351       42.4614         0.000       
     350       42.0826         0.000       
     349       42.0826         0.000       
     348       41.4793         0.000       
     347       41.4793         0.000       
     346       41.1475         0.000       
     345       41.1475         0.000       
     344       40.0156         0.000       
     343       40.0156         0.000       
     342       38.9437         0.000       
     341       38.9437         0.000       
     340       37.9598         0.000       
     339       37.9598         0.000       
     338       37.1787         0.000       
     337       37.1787         0.000       
     336       36.4802         0.000       
     335       36.4802         0.000       
     334       35.6984         0.000       
     333       35.6984         0.000       
     332       35.5346         0.000       
     331       35.5346         0.000       
     330       34.5158         0.000       
     329       34.5158         0.000       
     328       34.3947         0.000       
     327       34.3947         0.000       
     326       33.3123         0.000       
     325       33.3123         0.000       
     324       32.6028         0.000       
     323       32.6028         0.000       
     322       31.9849         0.000       
     321       31.9849         0.000       
     320       31.2709         0.000       
     319       31.2709         0.000       
     318       30.6360         0.000       
     317       30.6360         0.000       
     316       29.9464         0.000       
     315       29.9464         0.000       
     314       29.1462         0.000       
     313       29.1462         0.000       
     312       28.8866         0.000       
     311       28.8866         0.000       
     310       28.3550         0.000       
     309       28.3550         0.000       
     308       27.7992         0.000       
     307       27.7992         0.000       
     306       27.5073         0.000       
     305       27.5073         0.000       
     304       27.0695         0.000       
     303       27.0695         0.000       
     302       26.4860         0.000       
     301       26.4860         0.000       
     300       25.9166         0.000       
     299       25.9166         0.000       
     298       25.5797         0.000       
     297       25.5797         0.000       
     296       24.3063         0.000       
     295       24.3063         0.000       
     294       23.5007         0.000       
     293       23.5007         0.000       
     292       22.9622         0.000       
     291       22.9622         0.000       
     290       22.4042         0.000       
     289       22.4042         0.000       
     288       21.6575         0.000       
     287       21.6575         0.000       
     286       21.0931         0.000       
     285       21.0931         0.000       
     284       19.9535         0.000       
     283       19.9535         0.000       
     282       19.1866         0.000       
     281       19.1866         0.000       
     280       18.8317         0.000       
     279       18.8317         0.000       
     278       18.4976         0.000       
     277       18.4976         0.000       
     276       18.0965         0.000       
     275       18.0965         0.000       
     274       17.7737         0.000       
     273       17.7737         0.000       
     272       17.4380         0.000       
     271       17.4380         0.000       
     270       17.0030         0.000       
     269       17.0030         0.000       
     268       16.7339         0.000       
     267       16.7339         0.000       
     266       15.9150         0.000       
     265       15.9150         0.000       
     264       15.6458         0.000       
     263       15.6458         0.000       
     262       15.3577         0.000       
     261       15.3577         0.000       
     260       15.0014         0.000       
     259       15.0014         0.000       
     258       14.6432         0.000       
     257       14.6432         0.000       
     256       14.3683         0.000       
     255       14.3683         0.000       
     254       14.1474         0.000       
     253       14.1474         0.000       
     252       13.5233         0.000       
     251       13.5233         0.000       
     250       13.1743         0.000       
     249       13.1743         0.000       
     248       12.9110         0.000       
     247       12.9110         0.000       
     246       12.6136         0.000       
     245       12.6136         0.000       
     244       12.2650         0.000       
     243       12.2650         0.000       
     242       11.8668         0.000       
     241       11.8668         0.000       
     240       11.6294         0.000       
     239       11.6294         0.000       
     238       10.9536         0.000       
     237       10.9536         0.000       
     236       10.5471         0.000       
     235       10.5471         0.000       
     234       10.3654         0.000       
     233       10.3654         0.000       
     232        9.7225         0.000       
     231        9.7225         0.000       
     230        9.2939         0.000       
     229        9.2939         0.000       
     228        9.0037         0.000       
     227        9.0037         0.000       
     226        8.5203         0.000       
     225        8.5203         0.000       
     224        7.7808         0.000       
     223        7.7808         0.000       
     222        7.4910         0.000       
     221        7.4910         0.000       
     220        6.7562         0.000       
     219        6.7562         0.000       
     218        6.6381         0.000       
     217        6.6381         0.000       
     216        6.2271         0.000       
     215        6.2271         0.000       
     214        5.4538         0.000       
     213        5.4538         0.000       
     212        5.0546         0.000       
     211        5.0546         0.000       
     210        4.6459         0.000       
     209        4.6459         0.000       
     208        4.1215         0.000       
     207        4.1215         0.000       
     206        3.2089         0.000       
     205        3.2089         0.000       
     204        3.1498         0.000       
     203        3.1498         0.000       
     202        2.6363         0.000       
     201        2.6363         0.000       
     200        2.5305         0.000       
     199        2.5305         0.000       
     198        2.3323         0.000       
     197        2.3323         0.000       
     196        2.0797         0.000       
     195        2.0797         0.000       
     194        2.0143         0.000       
     193        2.0143         0.000       
     192        1.9144         0.000       
     191        1.9144         0.000       
     190        1.6348         0.000       
     189        1.6348         0.000       
     188        0.8503         0.000       
     187        0.8503         0.000       
     186        0.5772         0.000       
     185        0.5772         0.000       
     184        0.3128         0.000       
     183        0.3128         0.000       
     182        0.1958         0.000       
     181        0.1958         0.000       
     180       -0.0302         0.000       
     179       -0.0302         0.000       
     178       -0.3018         0.000       
     177       -0.3018         0.000       
     176       -0.8323         0.000       
     175       -0.8323         0.000       
     174       -1.3721         0.000       
     173       -1.3721         0.000       
     172       -1.5567         0.000       
     171       -1.5567         0.000       
     170       -1.6379         0.000       
     169       -1.6379         0.000       
     168       -1.9492         0.000       
     167       -1.9492         0.000       
     166       -2.1079         0.000       
     165       -2.1079         0.000       
     164       -2.3389         0.000       
     163       -2.3389         0.000 < LUMO
     162       -6.4115         1.000 < HOMO
     161       -6.4115         1.000       
     160       -6.7482         1.000       
     159       -6.7482         1.000       
     158       -7.3310         1.000       
     157       -7.3310         1.000       
     156       -8.0565         1.000       
     155       -8.0565         1.000       
     154       -8.7780         1.000       
     153       -8.7780         1.000       
     152       -8.9272         1.000       
     151       -8.9272         1.000       
     150       -9.0289         1.000       
     149       -9.0289         1.000       
     148       -9.1490         1.000       
     147       -9.1490         1.000       
     146       -9.8240         1.000       
     145       -9.8240         1.000       
     144      -10.1739         1.000       
     143      -10.1739         1.000       
     142      -11.9077         1.000       
     141      -11.9077         1.000       
     140      -12.6312         1.000       
     139      -12.6312         1.000       
     138      -13.4424         1.000       
     137      -13.4424         1.000       
     136      -14.4059         1.000       
     135      -14.4059         1.000       
     134      -17.6190         1.000       
     133      -17.6190         1.000       
     132      -19.2994         1.000       
     131      -19.2994         1.000       
     130      -20.0436         1.000       
     129      -20.0436         1.000       
     128      -22.5205         1.000       
     127      -22.5205         1.000       
     126      -25.6295         1.000       
     125      -25.6295         1.000       
     124      -26.5984         1.000       
     123      -26.5984         1.000       
     122      -27.7156         1.000       
     121      -27.7156         1.000       
     120      -30.7309         1.000       
     119      -30.7309         1.000       
     118      -31.9915         1.000       
     117      -31.9915         1.000       
     116      -49.2799         1.000       
     115      -49.2799         1.000       
     114      -67.4003         1.000       
     113      -67.4003         1.000       
     112      -67.4310         1.000       
     111      -67.4310         1.000       
     110      -67.4586         1.000       
     109      -67.4586         1.000       
     108      -68.5001         1.000       
     107      -68.5001         1.000       
     106      -68.5448         1.000       
     105      -68.5448         1.000       
     104      -95.5451         1.000       
     103      -95.5451         1.000       
     102      -95.6334         1.000       
     101      -95.6334         1.000       
     100      -95.7544         1.000       
      99      -95.7544         1.000       
      98     -102.9634         1.000       
      97     -102.9634         1.000       
      96     -103.1256         1.000       
      95     -103.1256         1.000       
      94     -174.7185         1.000       
      93     -174.7185         1.000       
      92     -174.7546         1.000       
      91     -174.7546         1.000       
      90     -181.4355         1.000       
      89     -181.4355         1.000       
      88     -192.4289         1.000       
      87     -192.4289         1.000       
      86     -192.6635         1.000       
      85     -192.6635         1.000       
      84     -240.8343         1.000       
      83     -240.8343         1.000       
      82     -242.1640         1.000       
      81     -242.1640         1.000       
      80     -302.9428         1.000       
      79     -302.9428         1.000       
      78     -353.3085         1.000       
      77     -353.3085         1.000       
      76     -353.3856         1.000       
      75     -353.3856         1.000       
      74     -353.5344         1.000       
      73     -353.5344         1.000       
      72     -353.6883         1.000       
      71     -353.6883         1.000       
      70     -363.0724         1.000       
      69     -363.0724         1.000       
      68     -363.2134         1.000       
      67     -363.2134         1.000       
      66     -363.4149         1.000       
      65     -363.4149         1.000       
      64     -520.1723         1.000       
      63     -520.1723         1.000       
      62     -520.5209         1.000       
      61     -520.5209         1.000       
      60     -521.2308         1.000       
      59     -521.2308         1.000       
      58     -524.0614         1.000       
      57     -524.0614         1.000       
      56     -692.5864         1.000       
      55     -692.5864         1.000       
      54     -692.7445         1.000       
      53     -692.7445         1.000       
      52     -692.9429         1.000       
      51     -692.9429         1.000       
      50     -731.9341         1.000       
      49     -731.9341         1.000       
      48     -732.2014         1.000       
      47     -732.2014         1.000       
      46     -981.8861         1.000       
      45     -981.8861         1.000       
      44     -982.1601         1.000       
      43     -982.1601         1.000       
      42    -1188.7926         1.000       
      41    -1188.7926         1.000       
      40    -1351.9498         1.000       
      39    -1351.9498         1.000       
      38    -1524.7527         1.000       
      37    -1524.7527         1.000       
      36    -1524.7639         1.000       
      35    -1524.7639         1.000       
      34    -1570.6123         1.000       
      33    -1570.6123         1.000       
      32    -1746.0664         1.000       
      31    -1746.0664         1.000       
      30    -3408.8618         1.000       
      29    -3408.8618         1.000       
      28    -3408.9309         1.000       
      27    -3408.9309         1.000       
      26    -3409.0262         1.000       
      25    -3409.0262         1.000       
      24    -3575.6731         1.000       
      23    -3575.6731         1.000       
      22    -3575.7895         1.000       
      21    -3575.7895         1.000       
      20    -4129.5503         1.000       
      19    -4129.5503         1.000       
      18    -4129.7087         1.000       
      17    -4129.7087         1.000       
      16    -4925.4199         1.000       
      15    -4925.4199         1.000       
      14    -5302.2120         1.000       
      13    -5302.2120         1.000       
      12   -13341.8011         1.000       
      11   -13341.8011         1.000       
      10   -16647.9356         1.000       
       9   -16647.9356         1.000       
       8   -16647.9605         1.000       
       7   -16647.9605         1.000       
       6   -20125.6273         1.000       
       5   -20125.6273         1.000       
       4   -20999.2067         1.000       
       3   -20999.2067         1.000       
       2  -112594.5965         1.000       
       1  -112594.5965         1.000       

AMS application finished. Exiting.
NORMAL TERMINATION
     Total cpu time:     611.39
  Total system time:      44.77
 Total elapsed time:     657.59
