
 Primary working directories    : /state/partition2/shaaban/863967.phlam-s-sakura/molpro.7SHkVK5bpM
 Secondary working directories  : /state/partition2/shaaban/863967.phlam-s-sakura/molpro.7SHkVK5bpM
 Wavefunction directory         : /home/shaaban/wfu/
 Main file repository           : /state/partition2/shaaban/863967.phlam-s-sakura/molpro.7SHkVK5bpM/

 id        : lill

 Nodes       nprocs
 u-0-12.local    8

 Using customized tuning parameters: mindgm=1; mindgv=20; mindgc=4; mindgr=1; noblas=0; minvec=7
 default implementation of scratch files=sf  


 Variables initialized (945), CPU time= 0.01 sec
 ***,Pa(OH)4(NO3) - MP2 and CCSD(T)
 memory,2500, m;
 file, 1, pa_oh4_no3.ccsd-tx.int, new;
 file, 2, pa_oh4_no3.ccsd-tx.wfu, new;
 
 gprint, basis;
 gprint, orbital=10;
 
 nosym;
 
 geomtyp=xyz;
 
 geometry={
 Including file /home/shaaban/molpro/nitrate/pa_oh4_no3/pa_oh4_no3.SR.b3lyp.tz2p.xyz
 }
 
 charge=0;
 
                                                                                 ! Select X2C SR Hamiltonian
 SET,DKHO=101
 
                                                                                 ! Calculation with VTZ basis set
 basis={
 Pa=cc-pVTZ-X2C;
 O=aug-cc-pVTZ-X2C;
 H=aug-cc-pVTZ-X2C;
 N=aug-cc-pVTZ-X2C;
 }
 
                                                                                 ! Hartree-Fock calculation
 {hf;}
 
                                                                                 ! MP2 and CCSD(T) calculation
 {ccsd(t);}
 
                                                                  ! Save HF energy and CCSD(T) correlation energy for VTZ basis set
 energy_hf(1) = energr(1);
 corr_mp2(1) = EMP2-energr(1);
 corr_ccsdt(1) = ENERGT(1)-energr(1);
 
 Commands  initialized (802), CPU time= 0.01 sec, 659 directives.
 Default parameters read. Elapsed time= 0.15 sec

 Checking input...
 Passed
1


                                         ***  PROGRAM SYSTEM MOLPRO  ***
                                       Copyright, TTI GmbH Stuttgart, 2015
                                    Version 2020.1 linked Oct  6 2020 12:04:11


 **********************************************************************************************************************************
 LABEL *   Pa(OH)4(NO3) - MP2 and CCSD(T)                                                
  64 bit mpp version                                                                     DATE: 30-May-22          TIME: 11:02:53  
 **********************************************************************************************************************************

 SHA1:             8c27446f6450a7499e38f603e13c65f775101d37
 **********************************************************************************************************************************

 Memory per process:      2500 MW
 Total memory per node:  20000 MW

 GA preallocation disabled
 GA check disabled

 Variable memory set to 2500.0 MW



 Permanent file  1  pa_oh4_no3.ccsd-tx.int           assigned.  Implementation=df  
 Permanent file  2  pa_oh4_no3.ccsd-tx.wfu           assigned.  Implementation=df  



 **********************************************************************************************************************************
 DATASETS  * FILE   NREC   LENGTH (MB)   RECORD NAMES
              1       1        0.03       500   
                                          VAR  

              2       1        0.03       500   
                                          VAR  

 PROGRAMS   *        TOTAL      FILE
 CPU TIMES  *         0.17      0.00
 REAL TIME  *         0.30 SEC
 DISK USED  *         0.10 MB (local),        0.84 MB (total)
 **********************************************************************************************************************************


 SETTING GEOMTYP        =    XYZ
 ZSYMEL=NOSYM

 SETTING CHARGE         =     0.00000000D+00                                  
 SETTING DKHO           =       101.00000000                                  
 SETTING BASIS          =    PA=CC-PVTZ-X2C,O=AUG-CC-PVTZ-X2C,H=AUG-CC-PVTZ-X2C,N=AUG-CC-PVTZ-X2C


 Recomputing integrals since basis changed


 Using spherical harmonics

 Library entry PA     S cc-pVTZ-X2C          selected for orbital group  1
 Library entry PA     P cc-pVTZ-X2C          selected for orbital group  1
 Library entry PA     D cc-pVTZ-X2C          selected for orbital group  1
 Library entry PA     F cc-pVTZ-X2C          selected for orbital group  1
 Library entry PA     G cc-pVTZ-X2C          selected for orbital group  1
 Library entry PA     H cc-pVTZ-X2C          selected for orbital group  1
 Library entry O      S aug-cc-pVTZ-X2C      selected for orbital group  2
 Library entry O      P aug-cc-pVTZ-X2C      selected for orbital group  2
 Library entry O      D aug-cc-pVTZ-X2C      selected for orbital group  2
 Library entry O      F aug-cc-pVTZ-X2C      selected for orbital group  2
 Library entry H      S aug-cc-pVTZ-X2C      selected for orbital group  3
 Library entry H      P aug-cc-pVTZ-X2C      selected for orbital group  3
 Library entry H      D aug-cc-pVTZ-X2C      selected for orbital group  3
 Library entry N      S aug-cc-pVTZ-X2C      selected for orbital group  7
 Library entry N      P aug-cc-pVTZ-X2C      selected for orbital group  7
 Library entry N      D aug-cc-pVTZ-X2C      selected for orbital group  7
 Library entry N      F aug-cc-pVTZ-X2C      selected for orbital group  7


 PROGRAM * SEWARD (Integral evaluation for generally contracted gaussian basis sets)     Author: Roland Lindh, 1990

 Geometry written to block  1 of record 700


 Point group  C1  



 ATOMIC COORDINATES

 NR  ATOM    CHARGE       X              Y              Z

   1  PA     91.00   -2.506119005    0.920936896   -0.329720843
   2  O       8.00   -1.859370228   -2.130617883   -2.746100315
   3  O       8.00   -1.492249650    4.877650872    1.964011285
   4  O       8.00   -3.699401839    3.234035777   -3.275579168
   5  H       1.00   -0.483165455   -1.963624804    4.166918440
   6  O       8.00   -0.870306702   -0.928718699    2.728081367
   7  H       1.00   -1.557785603   -3.723806946   -3.553865157
   8  H       1.00   -7.848224974    0.261257752    1.685378777
   9  H       1.00   -4.454957264    3.898346082   -4.785252686
  10  O       8.00   -6.146982396    0.463272487    1.097323123
  11  O       8.00    1.455820345    3.393127937   -0.459959513
  12  N       7.00    0.765923635    5.137158946    1.095397558
  13  O       8.00    2.117302850    6.856551258    1.683153113

 Bond lengths in Bohr (Angstrom)

 1-2  3.945777528  1-3  4.684519574  1-4  3.930958105  1-5  5.712512767  1-6  3.930300505
     ( 2.088015547)     ( 2.478941002)     ( 2.080173446)     ( 3.022931573)     ( 2.079825460)

  1- 7  5.733069698   1- 8  5.747512439   1- 9  5.702166257   1-10  3.937232203   1-11  4.671793453
       ( 3.033809833)       ( 3.041452602)       ( 3.017456436)       ( 2.083493556)       ( 2.472206630)

  1-12  5.523925586   2- 7  1.811543187   3-12  2.433347659   4- 9  1.814190264   5- 6  1.814155758
       ( 2.923135535)       ( 0.958627371)       ( 1.287672128)       ( 0.960028144)       ( 0.960009884)

  8-10  1.811310497  11-12  2.436542068  12-13  2.264507076
       ( 0.958504237)       ( 1.289362536)       ( 1.198325539)

 Bond angles

  1- 2- 7  168.66889330   1- 3-12   96.66957175   1- 4- 9  164.90670189   1- 5- 6    8.90931387

  1- 6- 5  166.99136360   1- 7- 2    7.77169248   1- 8-10    1.59939618   1- 9- 4   10.34114349

  1-10- 8  177.66488230   1-11-12   96.94137985   1-12- 3   57.38407449   1-12-11   57.09146603

  1-12-13  179.64720937   2- 1- 3  156.57733892   2- 1- 4   92.63098579   2- 1- 5   91.91912149

  2-1-6   92.53724796   2-1-7    3.55941422   2-1-8  106.15823978   2-1-9   88.93008707

  2- 1-10  106.47735203   2- 1-11  104.66530836   2- 1-12  130.63143294   3- 1- 4   86.30907932

  3-1-5   87.96189255   3-1-6   85.78349075   3-1-7  157.49679865   3-1-8   97.26380922

  3- 1- 9   90.88999246   3- 1-10   96.94112346   3- 1-11   51.91326490   3- 1-12   25.94635376

  3-12-11  114.47476490   3-12-13  122.82869656   4- 1- 5  174.00147651   4- 1- 6  170.50705452

  4- 1- 7   96.05575251   4- 1- 8   92.75882729   4- 1- 9    4.75215462   4- 1-10   93.40008243

  4- 1-11   85.70808254   4- 1-12   85.64242679   5- 1- 6    4.09932253   5- 1- 7   88.56760538

  5- 1- 8   89.72562153   5- 1- 9  178.74223565   5- 1-10   89.05290516   5- 1-11   89.36022046

  5- 1-12   88.42833624   6- 1- 7   89.27865315   6- 1- 8   93.44326930   6- 1- 9  174.80731179

  6- 1-10   92.76183079   6- 1-11   85.28270177   6- 1-12   84.94858348   7- 1- 8  104.94728178

  7- 1- 9   92.30040108   7- 1-10  105.22569488   7- 1-11  105.82861284   7- 1-12  131.71904343

  8- 1- 9   90.92936484   8- 1-10    0.73572152   8- 1-11  149.17625631   8- 1-12  123.21014677

  9- 1-10   91.59637050   9- 1-11   89.52718983   9- 1-12   90.31455202  10- 1-11  148.85208185

 10- 1-12  122.88581725  11- 1-12   25.96715412  11-12-13  122.69653452


 BASIS DATA

   Nr Sym  Nuc  Type         Exponents   Contraction coefficients

    1.1 A     1  1s    57606659.000000     0.002669    0.000875   -0.001011   -0.000162    0.000138   -0.000062
                                           0.000029    0.000051   -0.000067   -0.000085    0.000000
    2.1 A              15333099.000000     0.001763    0.000577   -0.000669   -0.000107    0.000091   -0.000041
                                           0.000019    0.000034   -0.000045   -0.000056    0.000000
    3.1 A               5244434.800000     0.005688    0.001860   -0.002159   -0.000346    0.000294   -0.000133
                                           0.000061    0.000110   -0.000144   -0.000182    0.000000
    4.1 A               1993947.300000     0.005833    0.001897   -0.002226   -0.000357    0.000304   -0.000137
                                           0.000063    0.000114   -0.000148   -0.000188    0.000000
    5.1 A                831464.670000     0.012471    0.004046   -0.004768   -0.000766    0.000651   -0.000294
                                           0.000135    0.000243   -0.000318   -0.000402    0.000000
    6.1 A                367473.800000     0.015337    0.004923   -0.005922   -0.000954    0.000810   -0.000366
                                           0.000168    0.000303   -0.000396   -0.000502    0.000000
    7.1 A                170948.980000     0.027802    0.008860   -0.010807   -0.001745    0.001481   -0.000669
                                           0.000307    0.000553   -0.000723   -0.000913    0.000000
    8.1 A                 82498.208000     0.037893    0.011845   -0.014983   -0.002432    0.002060   -0.000931
                                           0.000428    0.000771   -0.001008   -0.001281    0.000000
    9.1 A                 41068.557000     0.063446    0.019489   -0.025472   -0.004156    0.003514   -0.001588
                                           0.000730    0.001312   -0.001713   -0.002158    0.000000
   10.1 A                 20931.097000     0.090970    0.026964   -0.037612   -0.006192    0.005220   -0.002360
                                           0.001084    0.001959   -0.002562   -0.003271    0.000000
   11.1 A                 10881.858000     0.141353    0.040137   -0.060450   -0.010069    0.008456   -0.003823
                                           0.001756    0.003150   -0.004109   -0.005142    0.000000
                           5751.850200     0.192150    0.050328   -0.087023   -0.014758    0.012320   -0.005570
                                           0.002559    0.004641   -0.006081   -0.007843    0.000000
                           3085.413800     0.245625    0.057494   -0.119370   -0.020746    0.017180   -0.007769
                                           0.003568    0.006365   -0.008281   -0.010186    0.000000
                           1676.302600     0.236828    0.048791   -0.122988   -0.021795    0.017936   -0.008112
                                           0.003728    0.006861   -0.009046   -0.012129    0.000000
                            920.364860     0.144288    0.051386   -0.045258   -0.005640    0.005268   -0.002373
                                           0.001085    0.001652   -0.001974   -0.001042    0.000000
                            507.302700    -0.025759    0.115725    0.203246    0.056561   -0.041187    0.018724
                                          -0.008598   -0.014902    0.019190    0.021482    0.000000
                            285.301180    -0.127248    0.207489    0.548666    0.172341   -0.122683    0.055908
                                          -0.025737   -0.047910    0.063712    0.088054    0.000000
                            162.083520    -0.106345    0.166212    0.606264    0.222723   -0.155054    0.070944
                                          -0.032607   -0.056240    0.072273    0.078654    0.000000
                             92.502257    -0.075897    0.111536    0.036795   -0.036386    0.019294   -0.009062
                                           0.004086    0.001475    0.001168    0.030443    0.000000
                             54.996696    -0.159518    0.199400   -0.676887   -0.645265    0.447335   -0.211910
                                           0.098395    0.193270   -0.267108   -0.419400    0.000000
                             32.498055    -0.126680    0.162427   -0.590845   -0.685716    0.477369   -0.227312
                                           0.105023    0.171409   -0.214999   -0.161690    0.000000
                             19.139224    -0.031866    0.038627   -0.102127    0.187644   -0.152132    0.072681
                                          -0.032972   -0.027495    0.028200   -0.136514    0.000000
                             11.382710     0.001867    0.000895    0.103491    0.862021   -0.976205    0.547811
                                          -0.263192   -0.581563    0.872312    1.708580    0.000000
                              6.786052     0.000710   -0.001446    0.057992    0.445035   -0.716251    0.417708
                                          -0.198179   -0.257965    0.233684   -0.803168    0.000000
                              4.149622     0.000624    0.000224    0.007493    0.066545    0.448492   -0.350229
                                           0.170540    0.219139   -0.310498    1.111350    0.000000
                              2.398648    -0.000456    0.000036    0.000333    0.014140    0.872214   -0.849732
                                           0.456257    1.306370   -2.312230   -7.677220    0.000000
                              1.389239     0.000090    0.000196   -0.000539    0.002102    0.319316   -0.431871
                                           0.230358    0.273179    0.312923   10.897300    0.000000
                              0.799685    -0.000092   -0.000045    0.000120    0.000488    0.047531    0.436228
                                          -0.277578   -1.772950    4.829150   -2.756210    0.000000
                              0.427327     0.000032    0.000027   -0.000069   -0.000720    0.030738    0.715435
                                          -0.561943   -0.897998   -3.625440   -6.603630    0.000000
                              0.220940    -0.000014   -0.000008    0.000023   -0.000086    0.010089    0.233487
                                          -0.326569    1.531090   -1.220420    6.760400    0.000000
                              0.086038     0.000004    0.000003   -0.000008   -0.000060    0.001152    0.063336
                                           0.301677    1.025940    2.677810   -2.145480    0.000000
                              0.041219    -0.000002   -0.000001    0.000004   -0.000044    0.001537    0.118995
                                           0.692734   -0.772162   -0.536170   -1.021350    0.000000
                              0.018781     0.000001    0.000000   -0.000001   -0.000024    0.000590    0.043903
                                           0.253879   -0.484754   -0.805222    1.252960    1.000000
   12.1 A     1  2px   52575799.000000     0.000013
                       15301659.000000     0.000017
                        4822461.600000     0.000052
                        1632045.600000     0.000107
                         584338.640000     0.000256
                         219508.320000     0.000572
                          86085.039000     0.001336
                          35172.956000     0.003129
                          14975.745000     0.007503
                           6652.821900     0.017986
                           3084.270200     0.042103
                           1489.211300     0.090969
                            745.288670     0.167976
                            384.521300     0.234709
                            203.927220     0.220200
                            110.523340     0.174708
                             61.345569     0.190642
                             34.404375     0.137246
                             19.094147     0.033402
                             10.684628    -0.000867
                              5.931463    -0.000935
                              3.230992    -0.000009
                              1.730655     0.000164
                              0.869483     0.000022
                              0.440589     0.000009
                              0.215859    -0.000000
                              0.091015     0.000001
                              0.040174    -0.000000
                              0.017215     0.000000
   13.1 A     1  2py   52575799.000000     0.000013
                       15301659.000000     0.000017
                        4822461.600000     0.000052
                        1632045.600000     0.000107
                         584338.640000     0.000256
                         219508.320000     0.000572
                          86085.039000     0.001336
                          35172.956000     0.003129
                          14975.745000     0.007503
                           6652.821900     0.017986
                           3084.270200     0.042103
                           1489.211300     0.090969
                            745.288670     0.167976
                            384.521300     0.234709
                            203.927220     0.220200
                            110.523340     0.174708
                             61.345569     0.190642
                             34.404375     0.137246
                             19.094147     0.033402
                             10.684628    -0.000867
                              5.931463    -0.000935
                              3.230992    -0.000009
                              1.730655     0.000164
                              0.869483     0.000022
                              0.440589     0.000009
                              0.215859    -0.000000
                              0.091015     0.000001
                              0.040174    -0.000000
                              0.017215     0.000000
   14.1 A     1  2pz   52575799.000000     0.000013
                       15301659.000000     0.000017
                        4822461.600000     0.000052
                        1632045.600000     0.000107
                         584338.640000     0.000256
                         219508.320000     0.000572
                          86085.039000     0.001336
                          35172.956000     0.003129
                          14975.745000     0.007503
                           6652.821900     0.017986
                           3084.270200     0.042103
                           1489.211300     0.090969
                            745.288670     0.167976
                            384.521300     0.234709
                            203.927220     0.220200
                            110.523340     0.174708
                             61.345569     0.190642
                             34.404375     0.137246
                             19.094147     0.033402
                             10.684628    -0.000867
                              5.931463    -0.000935
                              3.230992    -0.000009
                              1.730655     0.000164
                              0.869483     0.000022
                              0.440589     0.000009
                              0.215859    -0.000000
                              0.091015     0.000001
                              0.040174    -0.000000
                              0.017215     0.000000
   15.1 A     1  2px   52575799.000000    -0.000015
                       15301659.000000    -0.000020
                        4822461.600000    -0.000063
                        1632045.600000    -0.000128
                         584338.640000    -0.000307
                         219508.320000    -0.000688
                          86085.039000    -0.001611
                          35172.956000    -0.003789
                          14975.745000    -0.009145
                           6652.821900    -0.022135
                           3084.270200    -0.052666
                           1489.211300    -0.116756
                            745.288670    -0.223673
                            384.521300    -0.322150
                            203.927220    -0.236330
                            110.523340     0.145050
                             61.345569     0.527334
                             34.404375     0.400957
                             19.094147     0.019469
                             10.684628    -0.122609
                              5.931463    -0.050931
                              3.230992    -0.002720
                              1.730655     0.002231
                              0.869483     0.000423
                              0.440589     0.000084
                              0.215859     0.000018
                              0.091015     0.000006
                              0.040174    -0.000002
                              0.017215     0.000001
   16.1 A     1  2py   52575799.000000    -0.000015
                       15301659.000000    -0.000020
                        4822461.600000    -0.000063
                        1632045.600000    -0.000128
                         584338.640000    -0.000307
                         219508.320000    -0.000688
                          86085.039000    -0.001611
                          35172.956000    -0.003789
                          14975.745000    -0.009145
                           6652.821900    -0.022135
                           3084.270200    -0.052666
                           1489.211300    -0.116756
                            745.288670    -0.223673
                            384.521300    -0.322150
                            203.927220    -0.236330
                            110.523340     0.145050
                             61.345569     0.527334
                             34.404375     0.400957
                             19.094147     0.019469
                             10.684628    -0.122609
                              5.931463    -0.050931
                              3.230992    -0.002720
                              1.730655     0.002231
                              0.869483     0.000423
                              0.440589     0.000084
                              0.215859     0.000018
                              0.091015     0.000006
                              0.040174    -0.000002
                              0.017215     0.000001
   17.1 A     1  2pz   52575799.000000    -0.000015
                       15301659.000000    -0.000020
                        4822461.600000    -0.000063
                        1632045.600000    -0.000128
                         584338.640000    -0.000307
                         219508.320000    -0.000688
                          86085.039000    -0.001611
                          35172.956000    -0.003789
                          14975.745000    -0.009145
                           6652.821900    -0.022135
                           3084.270200    -0.052666
                           1489.211300    -0.116756
                            745.288670    -0.223673
                            384.521300    -0.322150
                            203.927220    -0.236330
                            110.523340     0.145050
                             61.345569     0.527334
                             34.404375     0.400957
                             19.094147     0.019469
                             10.684628    -0.122609
                              5.931463    -0.050931
                              3.230992    -0.002720
                              1.730655     0.002231
                              0.869483     0.000423
                              0.440589     0.000084
                              0.215859     0.000018
                              0.091015     0.000006
                              0.040174    -0.000002
                              0.017215     0.000001
   18.1 A     1  2px   52575799.000000     0.000002
                       15301659.000000     0.000002
                        4822461.600000     0.000007
                        1632045.600000     0.000015
                         584338.640000     0.000036
                         219508.320000     0.000081
                          86085.039000     0.000191
                          35172.956000     0.000452
                          14975.745000     0.001103
                           6652.821900     0.002719
                           3084.270200     0.006655
                           1489.211300     0.015415
                            745.288670     0.031304
                            384.521300     0.047289
                            203.927220     0.017930
                            110.523340    -0.123036
                             61.345569    -0.327485
                             34.404375    -0.190153
                             19.094147     0.365341
                             10.684628     0.614487
                              5.931463     0.253665
                              3.230992     0.025247
                              1.730655     0.001457
                              0.869483    -0.000189
                              0.440589     0.000178
                              0.215859    -0.000001
                              0.091015     0.000034
                              0.040174    -0.000010
                              0.017215     0.000003
   19.1 A     1  2py   52575799.000000     0.000002
                       15301659.000000     0.000002
                        4822461.600000     0.000007
                        1632045.600000     0.000015
                         584338.640000     0.000036
                         219508.320000     0.000081
                          86085.039000     0.000191
                          35172.956000     0.000452
                          14975.745000     0.001103
                           6652.821900     0.002719
                           3084.270200     0.006655
                           1489.211300     0.015415
                            745.288670     0.031304
                            384.521300     0.047289
                            203.927220     0.017930
                            110.523340    -0.123036
                             61.345569    -0.327485
                             34.404375    -0.190153
                             19.094147     0.365341
                             10.684628     0.614487
                              5.931463     0.253665
                              3.230992     0.025247
                              1.730655     0.001457
                              0.869483    -0.000189
                              0.440589     0.000178
                              0.215859    -0.000001
                              0.091015     0.000034
                              0.040174    -0.000010
                              0.017215     0.000003
   20.1 A     1  2pz   52575799.000000     0.000002
                       15301659.000000     0.000002
                        4822461.600000     0.000007
                        1632045.600000     0.000015
                         584338.640000     0.000036
                         219508.320000     0.000081
                          86085.039000     0.000191
                          35172.956000     0.000452
                          14975.745000     0.001103
                           6652.821900     0.002719
                           3084.270200     0.006655
                           1489.211300     0.015415
                            745.288670     0.031304
                            384.521300     0.047289
                            203.927220     0.017930
                            110.523340    -0.123036
                             61.345569    -0.327485
                             34.404375    -0.190153
                             19.094147     0.365341
                             10.684628     0.614487
                              5.931463     0.253665
                              3.230992     0.025247
                              1.730655     0.001457
                              0.869483    -0.000189
                              0.440589     0.000178
                              0.215859    -0.000001
                              0.091015     0.000034
                              0.040174    -0.000010
                              0.017215     0.000003
   21.1 A     1  2px   52575799.000000    -0.000002
                       15301659.000000    -0.000003
                        4822461.600000    -0.000009
                        1632045.600000    -0.000018
                         584338.640000    -0.000043
                         219508.320000    -0.000097
                          86085.039000    -0.000228
                          35172.956000    -0.000537
                          14975.745000    -0.001302
                           6652.821900    -0.003177
                           3084.270200    -0.007652
                           1489.211300    -0.017311
                            745.288670    -0.034068
                            384.521300    -0.050256
                            203.927220    -0.027762
                            110.523340     0.078094
                             61.345569     0.225253
                             34.404375     0.124053
                             19.094147    -0.273486
                             10.684628    -0.553839
                              5.931463    -0.065277
                              3.230992     0.618524
                              1.730655     0.501044
                              0.869483     0.107343
                              0.440589     0.023201
                              0.215859     0.014691
                              0.091015     0.001511
                              0.040174     0.000132
                              0.017215    -0.000015
   22.1 A     1  2py   52575799.000000    -0.000002
                       15301659.000000    -0.000003
                        4822461.600000    -0.000009
                        1632045.600000    -0.000018
                         584338.640000    -0.000043
                         219508.320000    -0.000097
                          86085.039000    -0.000228
                          35172.956000    -0.000537
                          14975.745000    -0.001302
                           6652.821900    -0.003177
                           3084.270200    -0.007652
                           1489.211300    -0.017311
                            745.288670    -0.034068
                            384.521300    -0.050256
                            203.927220    -0.027762
                            110.523340     0.078094
                             61.345569     0.225253
                             34.404375     0.124053
                             19.094147    -0.273486
                             10.684628    -0.553839
                              5.931463    -0.065277
                              3.230992     0.618524
                              1.730655     0.501044
                              0.869483     0.107343
                              0.440589     0.023201
                              0.215859     0.014691
                              0.091015     0.001511
                              0.040174     0.000132
                              0.017215    -0.000015
   23.1 A     1  2pz   52575799.000000    -0.000002
                       15301659.000000    -0.000003
                        4822461.600000    -0.000009
                        1632045.600000    -0.000018
                         584338.640000    -0.000043
                         219508.320000    -0.000097
                          86085.039000    -0.000228
                          35172.956000    -0.000537
                          14975.745000    -0.001302
                           6652.821900    -0.003177
                           3084.270200    -0.007652
                           1489.211300    -0.017311
                            745.288670    -0.034068
                            384.521300    -0.050256
                            203.927220    -0.027762
                            110.523340     0.078094
                             61.345569     0.225253
                             34.404375     0.124053
                             19.094147    -0.273486
                             10.684628    -0.553839
                              5.931463    -0.065277
                              3.230992     0.618524
                              1.730655     0.501044
                              0.869483     0.107343
                              0.440589     0.023201
                              0.215859     0.014691
                              0.091015     0.001511
                              0.040174     0.000132
                              0.017215    -0.000015
   24.1 A     1  2px   52575799.000000     0.000001
                       15301659.000000     0.000001
                        4822461.600000     0.000004
                        1632045.600000     0.000008
                         584338.640000     0.000019
                         219508.320000     0.000043
                          86085.039000     0.000102
                          35172.956000     0.000240
                          14975.745000     0.000583
                           6652.821900     0.001422
                           3084.270200     0.003426
                           1489.211300     0.007745
                            745.288670     0.015249
                            384.521300     0.022470
                            203.927220     0.012451
                            110.523340    -0.035134
                             61.345569    -0.101385
                             34.404375    -0.055104
                             19.094147     0.131617
                             10.684628     0.274237
                              5.931463     0.008683
                              3.230992    -0.421618
                              1.730655    -0.381893
                              0.869483     0.226214
                              0.440589     0.602150
                              0.215859     0.367232
                              0.091015     0.055939
                              0.040174    -0.001129
                              0.017215     0.001121
   25.1 A     1  2py   52575799.000000     0.000001
                       15301659.000000     0.000001
                        4822461.600000     0.000004
                        1632045.600000     0.000008
                         584338.640000     0.000019
                         219508.320000     0.000043
                          86085.039000     0.000102
                          35172.956000     0.000240
                          14975.745000     0.000583
                           6652.821900     0.001422
                           3084.270200     0.003426
                           1489.211300     0.007745
                            745.288670     0.015249
                            384.521300     0.022470
                            203.927220     0.012451
                            110.523340    -0.035134
                             61.345569    -0.101385
                             34.404375    -0.055104
                             19.094147     0.131617
                             10.684628     0.274237
                              5.931463     0.008683
                              3.230992    -0.421618
                              1.730655    -0.381893
                              0.869483     0.226214
                              0.440589     0.602150
                              0.215859     0.367232
                              0.091015     0.055939
                              0.040174    -0.001129
                              0.017215     0.001121
   26.1 A     1  2pz   52575799.000000     0.000001
                       15301659.000000     0.000001
                        4822461.600000     0.000004
                        1632045.600000     0.000008
                         584338.640000     0.000019
                         219508.320000     0.000043
                          86085.039000     0.000102
                          35172.956000     0.000240
                          14975.745000     0.000583
                           6652.821900     0.001422
                           3084.270200     0.003426
                           1489.211300     0.007745
                            745.288670     0.015249
                            384.521300     0.022470
                            203.927220     0.012451
                            110.523340    -0.035134
                             61.345569    -0.101385
                             34.404375    -0.055104
                             19.094147     0.131617
                             10.684628     0.274237
                              5.931463     0.008683
                              3.230992    -0.421618
                              1.730655    -0.381893
                              0.869483     0.226214
                              0.440589     0.602150
                              0.215859     0.367232
                              0.091015     0.055939
                              0.040174    -0.001129
                              0.017215     0.001121
   27.1 A     1  2px   52575799.000000    -0.000000
                       15301659.000000    -0.000000
                        4822461.600000    -0.000001
                        1632045.600000    -0.000002
                         584338.640000    -0.000005
                         219508.320000    -0.000010
                          86085.039000    -0.000024
                          35172.956000    -0.000058
                          14975.745000    -0.000140
                           6652.821900    -0.000342
                           3084.270200    -0.000823
                           1489.211300    -0.001861
                            745.288670    -0.003664
                            384.521300    -0.005398
                            203.927220    -0.002991
                            110.523340     0.008482
                             61.345569     0.024454
                             34.404375     0.013272
                             19.094147    -0.032305
                             10.684628    -0.067432
                              5.931463    -0.001366
                              3.230992     0.110673
                              1.730655     0.103187
                              0.869483    -0.077840
                              0.440589    -0.217735
                              0.215859    -0.188345
                              0.091015     0.201020
                              0.040174     0.637069
                              0.017215     0.326669
   28.1 A     1  2py   52575799.000000    -0.000000
                       15301659.000000    -0.000000
                        4822461.600000    -0.000001
                        1632045.600000    -0.000002
                         584338.640000    -0.000005
                         219508.320000    -0.000010
                          86085.039000    -0.000024
                          35172.956000    -0.000058
                          14975.745000    -0.000140
                           6652.821900    -0.000342
                           3084.270200    -0.000823
                           1489.211300    -0.001861
                            745.288670    -0.003664
                            384.521300    -0.005398
                            203.927220    -0.002991
                            110.523340     0.008482
                             61.345569     0.024454
                             34.404375     0.013272
                             19.094147    -0.032305
                             10.684628    -0.067432
                              5.931463    -0.001366
                              3.230992     0.110673
                              1.730655     0.103187
                              0.869483    -0.077840
                              0.440589    -0.217735
                              0.215859    -0.188345
                              0.091015     0.201020
                              0.040174     0.637069
                              0.017215     0.326669
   29.1 A     1  2pz   52575799.000000    -0.000000
                       15301659.000000    -0.000000
                        4822461.600000    -0.000001
                        1632045.600000    -0.000002
                         584338.640000    -0.000005
                         219508.320000    -0.000010
                          86085.039000    -0.000024
                          35172.956000    -0.000058
                          14975.745000    -0.000140
                           6652.821900    -0.000342
                           3084.270200    -0.000823
                           1489.211300    -0.001861
                            745.288670    -0.003664
                            384.521300    -0.005398
                            203.927220    -0.002991
                            110.523340     0.008482
                             61.345569     0.024454
                             34.404375     0.013272
                             19.094147    -0.032305
                             10.684628    -0.067432
                              5.931463    -0.001366
                              3.230992     0.110673
                              1.730655     0.103187
                              0.869483    -0.077840
                              0.440589    -0.217735
                              0.215859    -0.188345
                              0.091015     0.201020
                              0.040174     0.637069
                              0.017215     0.326669
   30.1 A     1  2px   52575799.000000    -0.000001
                       15301659.000000    -0.000001
                        4822461.600000    -0.000003
                        1632045.600000    -0.000005
                         584338.640000    -0.000013
                         219508.320000    -0.000028
                          86085.039000    -0.000066
                          35172.956000    -0.000156
                          14975.745000    -0.000379
                           6652.821900    -0.000925
                           3084.270200    -0.002224
                           1489.211300    -0.005040
                            745.288670    -0.009895
                            384.521300    -0.014653
                            203.927220    -0.007970
                            110.523340     0.022757
                             61.345569     0.067049
                             34.404375     0.034635
                             19.094147    -0.086605
                             10.684628    -0.190567
                              5.931463     0.011210
                              3.230992     0.295370
                              1.730655     0.357708
                              0.869483    -0.483437
                              0.440589    -0.603385
                              0.215859     0.215887
                              0.091015     0.715465
                              0.040174     0.271767
                              0.017215     0.004114
   31.1 A     1  2py   52575799.000000    -0.000001
                       15301659.000000    -0.000001
                        4822461.600000    -0.000003
                        1632045.600000    -0.000005
                         584338.640000    -0.000013
                         219508.320000    -0.000028
                          86085.039000    -0.000066
                          35172.956000    -0.000156
                          14975.745000    -0.000379
                           6652.821900    -0.000925
                           3084.270200    -0.002224
                           1489.211300    -0.005040
                            745.288670    -0.009895
                            384.521300    -0.014653
                            203.927220    -0.007970
                            110.523340     0.022757
                             61.345569     0.067049
                             34.404375     0.034635
                             19.094147    -0.086605
                             10.684628    -0.190567
                              5.931463     0.011210
                              3.230992     0.295370
                              1.730655     0.357708
                              0.869483    -0.483437
                              0.440589    -0.603385
                              0.215859     0.215887
                              0.091015     0.715465
                              0.040174     0.271767
                              0.017215     0.004114
   32.1 A     1  2pz   52575799.000000    -0.000001
                       15301659.000000    -0.000001
                        4822461.600000    -0.000003
                        1632045.600000    -0.000005
                         584338.640000    -0.000013
                         219508.320000    -0.000028
                          86085.039000    -0.000066
                          35172.956000    -0.000156
                          14975.745000    -0.000379
                           6652.821900    -0.000925
                           3084.270200    -0.002224
                           1489.211300    -0.005040
                            745.288670    -0.009895
                            384.521300    -0.014653
                            203.927220    -0.007970
                            110.523340     0.022757
                             61.345569     0.067049
                             34.404375     0.034635
                             19.094147    -0.086605
                             10.684628    -0.190567
                              5.931463     0.011210
                              3.230992     0.295370
                              1.730655     0.357708
                              0.869483    -0.483437
                              0.440589    -0.603385
                              0.215859     0.215887
                              0.091015     0.715465
                              0.040174     0.271767
                              0.017215     0.004114
   33.1 A     1  2px   52575799.000000    -0.000001
                       15301659.000000    -0.000001
                        4822461.600000    -0.000004
                        1632045.600000    -0.000009
                         584338.640000    -0.000021
                         219508.320000    -0.000047
                          86085.039000    -0.000111
                          35172.956000    -0.000263
                          14975.745000    -0.000636
                           6652.821900    -0.001554
                           3084.270200    -0.003739
                           1489.211300    -0.008475
                            745.288670    -0.016642
                            384.521300    -0.024644
                            203.927220    -0.013367
                            110.523340     0.038637
                             61.345569     0.114090
                             34.404375     0.057493
                             19.094147    -0.152735
                             10.684628    -0.335275
                              5.931463     0.054116
                              3.230992     0.556566
                              1.730655     0.705542
                              0.869483    -1.835570
                              0.440589    -0.012121
                              0.215859     1.665730
                              0.091015    -0.585220
                              0.040174    -0.541179
                              0.017215     0.007323
   34.1 A     1  2py   52575799.000000    -0.000001
                       15301659.000000    -0.000001
                        4822461.600000    -0.000004
                        1632045.600000    -0.000009
                         584338.640000    -0.000021
                         219508.320000    -0.000047
                          86085.039000    -0.000111
                          35172.956000    -0.000263
                          14975.745000    -0.000636
                           6652.821900    -0.001554
                           3084.270200    -0.003739
                           1489.211300    -0.008475
                            745.288670    -0.016642
                            384.521300    -0.024644
                            203.927220    -0.013367
                            110.523340     0.038637
                             61.345569     0.114090
                             34.404375     0.057493
                             19.094147    -0.152735
                             10.684628    -0.335275
                              5.931463     0.054116
                              3.230992     0.556566
                              1.730655     0.705542
                              0.869483    -1.835570
                              0.440589    -0.012121
                              0.215859     1.665730
                              0.091015    -0.585220
                              0.040174    -0.541179
                              0.017215     0.007323
   35.1 A     1  2pz   52575799.000000    -0.000001
                       15301659.000000    -0.000001
                        4822461.600000    -0.000004
                        1632045.600000    -0.000009
                         584338.640000    -0.000021
                         219508.320000    -0.000047
                          86085.039000    -0.000111
                          35172.956000    -0.000263
                          14975.745000    -0.000636
                           6652.821900    -0.001554
                           3084.270200    -0.003739
                           1489.211300    -0.008475
                            745.288670    -0.016642
                            384.521300    -0.024644
                            203.927220    -0.013367
                            110.523340     0.038637
                             61.345569     0.114090
                             34.404375     0.057493
                             19.094147    -0.152735
                             10.684628    -0.335275
                              5.931463     0.054116
                              3.230992     0.556566
                              1.730655     0.705542
                              0.869483    -1.835570
                              0.440589    -0.012121
                              0.215859     1.665730
                              0.091015    -0.585220
                              0.040174    -0.541179
                              0.017215     0.007323
   36.1 A     1  2px   52575799.000000    -0.000001
                       15301659.000000    -0.000002
                        4822461.600000    -0.000006
                        1632045.600000    -0.000012
                         584338.640000    -0.000030
                         219508.320000    -0.000066
                          86085.039000    -0.000157
                          35172.956000    -0.000360
                          14975.745000    -0.000908
                           6652.821900    -0.002110
                           3084.270200    -0.005394
                           1489.211300    -0.011352
                            745.288670    -0.024563
                            384.521300    -0.031084
                            203.927220    -0.026677
                            110.523340     0.074398
                             61.345569     0.122621
                             34.404375     0.158055
                             19.094147    -0.396610
                             10.684628    -0.217370
                              5.931463    -0.310283
                              3.230992     1.975310
                              1.730655    -0.901781
                              0.869483    -2.796670
                              0.440589     4.376690
                              0.215859    -2.312120
                              0.091015    -0.328877
                              0.040174     0.867979
                              0.017215    -0.037454
   37.1 A     1  2py   52575799.000000    -0.000001
                       15301659.000000    -0.000002
                        4822461.600000    -0.000006
                        1632045.600000    -0.000012
                         584338.640000    -0.000030
                         219508.320000    -0.000066
                          86085.039000    -0.000157
                          35172.956000    -0.000360
                          14975.745000    -0.000908
                           6652.821900    -0.002110
                           3084.270200    -0.005394
                           1489.211300    -0.011352
                            745.288670    -0.024563
                            384.521300    -0.031084
                            203.927220    -0.026677
                            110.523340     0.074398
                             61.345569     0.122621
                             34.404375     0.158055
                             19.094147    -0.396610
                             10.684628    -0.217370
                              5.931463    -0.310283
                              3.230992     1.975310
                              1.730655    -0.901781
                              0.869483    -2.796670
                              0.440589     4.376690
                              0.215859    -2.312120
                              0.091015    -0.328877
                              0.040174     0.867979
                              0.017215    -0.037454
   38.1 A     1  2pz   52575799.000000    -0.000001
                       15301659.000000    -0.000002
                        4822461.600000    -0.000006
                        1632045.600000    -0.000012
                         584338.640000    -0.000030
                         219508.320000    -0.000066
                          86085.039000    -0.000157
                          35172.956000    -0.000360
                          14975.745000    -0.000908
                           6652.821900    -0.002110
                           3084.270200    -0.005394
                           1489.211300    -0.011352
                            745.288670    -0.024563
                            384.521300    -0.031084
                            203.927220    -0.026677
                            110.523340     0.074398
                             61.345569     0.122621
                             34.404375     0.158055
                             19.094147    -0.396610
                             10.684628    -0.217370
                              5.931463    -0.310283
                              3.230992     1.975310
                              1.730655    -0.901781
                              0.869483    -2.796670
                              0.440589     4.376690
                              0.215859    -2.312120
                              0.091015    -0.328877
                              0.040174     0.867979
                              0.017215    -0.037454
   39.1 A     1  2px   52575799.000000     0.000000
                       15301659.000000     0.000000
                        4822461.600000     0.000000
                        1632045.600000     0.000000
                         584338.640000     0.000000
                         219508.320000     0.000000
                          86085.039000     0.000000
                          35172.956000     0.000000
                          14975.745000     0.000000
                           6652.821900     0.000000
                           3084.270200     0.000000
                           1489.211300     0.000000
                            745.288670     0.000000
                            384.521300     0.000000
                            203.927220     0.000000
                            110.523340     0.000000
                             61.345569     0.000000
                             34.404375     0.000000
                             19.094147     0.000000
                             10.684628     0.000000
                              5.931463     0.000000
                              3.230992     0.000000
                              1.730655     0.000000
                              0.869483     0.000000
                              0.440589     0.000000
                              0.215859     0.000000
                              0.091015     0.000000
                              0.040174     0.000000
                              0.017215     1.000000
   40.1 A     1  2py   52575799.000000     0.000000
                       15301659.000000     0.000000
                        4822461.600000     0.000000
                        1632045.600000     0.000000
                         584338.640000     0.000000
                         219508.320000     0.000000
                          86085.039000     0.000000
                          35172.956000     0.000000
                          14975.745000     0.000000
                           6652.821900     0.000000
                           3084.270200     0.000000
                           1489.211300     0.000000
                            745.288670     0.000000
                            384.521300     0.000000
                            203.927220     0.000000
                            110.523340     0.000000
                             61.345569     0.000000
                             34.404375     0.000000
                             19.094147     0.000000
                             10.684628     0.000000
                              5.931463     0.000000
                              3.230992     0.000000
                              1.730655     0.000000
                              0.869483     0.000000
                              0.440589     0.000000
                              0.215859     0.000000
                              0.091015     0.000000
                              0.040174     0.000000
                              0.017215     1.000000
   41.1 A     1  2pz   52575799.000000     0.000000
                       15301659.000000     0.000000
                        4822461.600000     0.000000
                        1632045.600000     0.000000
                         584338.640000     0.000000
                         219508.320000     0.000000
                          86085.039000     0.000000
                          35172.956000     0.000000
                          14975.745000     0.000000
                           6652.821900     0.000000
                           3084.270200     0.000000
                           1489.211300     0.000000
                            745.288670     0.000000
                            384.521300     0.000000
                            203.927220     0.000000
                            110.523340     0.000000
                             61.345569     0.000000
                             34.404375     0.000000
                             19.094147     0.000000
                             10.684628     0.000000
                              5.931463     0.000000
                              3.230992     0.000000
                              1.730655     0.000000
                              0.869483     0.000000
                              0.440589     0.000000
                              0.215859     0.000000
                              0.091015     0.000000
                              0.040174     0.000000
                              0.017215     1.000000
   42.1 A     1  3d0     105911.200000     0.000020
                          24974.572000     0.000129
                           8108.852700     0.000677
                           3150.520500     0.003052
                           1380.647900     0.011950
                            658.188950     0.039706
                            332.909040     0.108875
                            176.023220     0.231727
                             95.780704     0.354949
                             53.337287     0.336096
                             29.864821     0.140603
                             16.526778    -0.033742
                              9.155323    -0.064042
                              4.984876    -0.024095
                              2.636633    -0.002233
                              1.354062     0.000305
                              0.656031     0.000103
                              0.269853     0.000008
                              0.103443     0.000000
                              0.036685     0.000000
   43.1 A     1  3d2-    105911.200000     0.000020
                          24974.572000     0.000129
                           8108.852700     0.000677
                           3150.520500     0.003052
                           1380.647900     0.011950
                            658.188950     0.039706
                            332.909040     0.108875
                            176.023220     0.231727
                             95.780704     0.354949
                             53.337287     0.336096
                             29.864821     0.140603
                             16.526778    -0.033742
                              9.155323    -0.064042
                              4.984876    -0.024095
                              2.636633    -0.002233
                              1.354062     0.000305
                              0.656031     0.000103
                              0.269853     0.000008
                              0.103443     0.000000
                              0.036685     0.000000
   44.1 A     1  3d1+    105911.200000     0.000020
                          24974.572000     0.000129
                           8108.852700     0.000677
                           3150.520500     0.003052
                           1380.647900     0.011950
                            658.188950     0.039706
                            332.909040     0.108875
                            176.023220     0.231727
                             95.780704     0.354949
                             53.337287     0.336096
                             29.864821     0.140603
                             16.526778    -0.033742
                              9.155323    -0.064042
                              4.984876    -0.024095
                              2.636633    -0.002233
                              1.354062     0.000305
                              0.656031     0.000103
                              0.269853     0.000008
                              0.103443     0.000000
                              0.036685     0.000000
   45.1 A     1  3d2+    105911.200000     0.000020
                          24974.572000     0.000129
                           8108.852700     0.000677
                           3150.520500     0.003052
                           1380.647900     0.011950
                            658.188950     0.039706
                            332.909040     0.108875
                            176.023220     0.231727
                             95.780704     0.354949
                             53.337287     0.336096
                             29.864821     0.140603
                             16.526778    -0.033742
                              9.155323    -0.064042
                              4.984876    -0.024095
                              2.636633    -0.002233
                              1.354062     0.000305
                              0.656031     0.000103
                              0.269853     0.000008
                              0.103443     0.000000
                              0.036685     0.000000
   46.1 A     1  3d1-    105911.200000     0.000020
                          24974.572000     0.000129
                           8108.852700     0.000677
                           3150.520500     0.003052
                           1380.647900     0.011950
                            658.188950     0.039706
                            332.909040     0.108875
                            176.023220     0.231727
                             95.780704     0.354949
                             53.337287     0.336096
                             29.864821     0.140603
                             16.526778    -0.033742
                              9.155323    -0.064042
                              4.984876    -0.024095
                              2.636633    -0.002233
                              1.354062     0.000305
                              0.656031     0.000103
                              0.269853     0.000008
                              0.103443     0.000000
                              0.036685     0.000000
   47.1 A     1  3d0     105911.200000    -0.000007
                          24974.572000    -0.000047
                           8108.852700    -0.000246
                           3150.520500    -0.001113
                           1380.647900    -0.004403
                            658.188950    -0.014782
                            332.909040    -0.041545
                            176.023220    -0.089264
                             95.780704    -0.132364
                             53.337287    -0.078125
                             29.864821     0.163137
                             16.526778     0.427766
                              9.155323     0.404323
                              4.984876     0.149842
                              2.636633     0.013528
                              1.354062    -0.001244
                              0.656031    -0.000625
                              0.269853    -0.000007
                              0.103443    -0.000015
                              0.036685     0.000003
   48.1 A     1  3d2-    105911.200000    -0.000007
                          24974.572000    -0.000047
                           8108.852700    -0.000246
                           3150.520500    -0.001113
                           1380.647900    -0.004403
                            658.188950    -0.014782
                            332.909040    -0.041545
                            176.023220    -0.089264
                             95.780704    -0.132364
                             53.337287    -0.078125
                             29.864821     0.163137
                             16.526778     0.427766
                              9.155323     0.404323
                              4.984876     0.149842
                              2.636633     0.013528
                              1.354062    -0.001244
                              0.656031    -0.000625
                              0.269853    -0.000007
                              0.103443    -0.000015
                              0.036685     0.000003
   49.1 A     1  3d1+    105911.200000    -0.000007
                          24974.572000    -0.000047
                           8108.852700    -0.000246
                           3150.520500    -0.001113
                           1380.647900    -0.004403
                            658.188950    -0.014782
                            332.909040    -0.041545
                            176.023220    -0.089264
                             95.780704    -0.132364
                             53.337287    -0.078125
                             29.864821     0.163137
                             16.526778     0.427766
                              9.155323     0.404323
                              4.984876     0.149842
                              2.636633     0.013528
                              1.354062    -0.001244
                              0.656031    -0.000625
                              0.269853    -0.000007
                              0.103443    -0.000015
                              0.036685     0.000003
   50.1 A     1  3d2+    105911.200000    -0.000007
                          24974.572000    -0.000047
                           8108.852700    -0.000246
                           3150.520500    -0.001113
                           1380.647900    -0.004403
                            658.188950    -0.014782
                            332.909040    -0.041545
                            176.023220    -0.089264
                             95.780704    -0.132364
                             53.337287    -0.078125
                             29.864821     0.163137
                             16.526778     0.427766
                              9.155323     0.404323
                              4.984876     0.149842
                              2.636633     0.013528
                              1.354062    -0.001244
                              0.656031    -0.000625
                              0.269853    -0.000007
                              0.103443    -0.000015
                              0.036685     0.000003
   51.1 A     1  3d1-    105911.200000    -0.000007
                          24974.572000    -0.000047
                           8108.852700    -0.000246
                           3150.520500    -0.001113
                           1380.647900    -0.004403
                            658.188950    -0.014782
                            332.909040    -0.041545
                            176.023220    -0.089264
                             95.780704    -0.132364
                             53.337287    -0.078125
                             29.864821     0.163137
                             16.526778     0.427766
                              9.155323     0.404323
                              4.984876     0.149842
                              2.636633     0.013528
                              1.354062    -0.001244
                              0.656031    -0.000625
                              0.269853    -0.000007
                              0.103443    -0.000015
                              0.036685     0.000003
   52.1 A     1  3d0     105911.200000     0.000004
                          24974.572000     0.000029
                           8108.852700     0.000151
                           3150.520500     0.000680
                           1380.647900     0.002694
                            658.188950     0.009015
                            332.909040     0.025311
                            176.023220     0.054175
                             95.780704     0.081018
                             53.337287     0.048855
                             29.864821    -0.090265
                             16.526778    -0.246113
                              9.155323    -0.206236
                              4.984876     0.172306
                              2.636633     0.505507
                              1.354062     0.395599
                              0.656031     0.111489
                              0.269853     0.006247
                              0.103443    -0.000029
                              0.036685    -0.000036
   53.1 A     1  3d2-    105911.200000     0.000004
                          24974.572000     0.000029
                           8108.852700     0.000151
                           3150.520500     0.000680
                           1380.647900     0.002694
                            658.188950     0.009015
                            332.909040     0.025311
                            176.023220     0.054175
                             95.780704     0.081018
                             53.337287     0.048855
                             29.864821    -0.090265
                             16.526778    -0.246113
                              9.155323    -0.206236
                              4.984876     0.172306
                              2.636633     0.505507
                              1.354062     0.395599
                              0.656031     0.111489
                              0.269853     0.006247
                              0.103443    -0.000029
                              0.036685    -0.000036
   54.1 A     1  3d1+    105911.200000     0.000004
                          24974.572000     0.000029
                           8108.852700     0.000151
                           3150.520500     0.000680
                           1380.647900     0.002694
                            658.188950     0.009015
                            332.909040     0.025311
                            176.023220     0.054175
                             95.780704     0.081018
                             53.337287     0.048855
                             29.864821    -0.090265
                             16.526778    -0.246113
                              9.155323    -0.206236
                              4.984876     0.172306
                              2.636633     0.505507
                              1.354062     0.395599
                              0.656031     0.111489
                              0.269853     0.006247
                              0.103443    -0.000029
                              0.036685    -0.000036
   55.1 A     1  3d2+    105911.200000     0.000004
                          24974.572000     0.000029
                           8108.852700     0.000151
                           3150.520500     0.000680
                           1380.647900     0.002694
                            658.188950     0.009015
                            332.909040     0.025311
                            176.023220     0.054175
                             95.780704     0.081018
                             53.337287     0.048855
                             29.864821    -0.090265
                             16.526778    -0.246113
                              9.155323    -0.206236
                              4.984876     0.172306
                              2.636633     0.505507
                              1.354062     0.395599
                              0.656031     0.111489
                              0.269853     0.006247
                              0.103443    -0.000029
                              0.036685    -0.000036
   56.1 A     1  3d1-    105911.200000     0.000004
                          24974.572000     0.000029
                           8108.852700     0.000151
                           3150.520500     0.000680
                           1380.647900     0.002694
                            658.188950     0.009015
                            332.909040     0.025311
                            176.023220     0.054175
                             95.780704     0.081018
                             53.337287     0.048855
                             29.864821    -0.090265
                             16.526778    -0.246113
                              9.155323    -0.206236
                              4.984876     0.172306
                              2.636633     0.505507
                              1.354062     0.395599
                              0.656031     0.111489
                              0.269853     0.006247
                              0.103443    -0.000029
                              0.036685    -0.000036
   57.1 A     1  3d0     105911.200000    -0.000001
                          24974.572000    -0.000008
                           8108.852700    -0.000042
                           3150.520500    -0.000189
                           1380.647900    -0.000746
                            658.188950    -0.002504
                            332.909040    -0.007016
                            176.023220    -0.015063
                             95.780704    -0.022420
                             53.337287    -0.013378
                             29.864821     0.026555
                             16.526778     0.070496
                              9.155323     0.058301
                              4.984876    -0.065834
                              2.636633    -0.177473
                              1.354062    -0.127085
                              0.656031     0.181760
                              0.269853     0.495490
                              0.103443     0.447072
                              0.036685     0.116353
   58.1 A     1  3d2-    105911.200000    -0.000001
                          24974.572000    -0.000008
                           8108.852700    -0.000042
                           3150.520500    -0.000189
                           1380.647900    -0.000746
                            658.188950    -0.002504
                            332.909040    -0.007016
                            176.023220    -0.015063
                             95.780704    -0.022420
                             53.337287    -0.013378
                             29.864821     0.026555
                             16.526778     0.070496
                              9.155323     0.058301
                              4.984876    -0.065834
                              2.636633    -0.177473
                              1.354062    -0.127085
                              0.656031     0.181760
                              0.269853     0.495490
                              0.103443     0.447072
                              0.036685     0.116353
   59.1 A     1  3d1+    105911.200000    -0.000001
                          24974.572000    -0.000008
                           8108.852700    -0.000042
                           3150.520500    -0.000189
                           1380.647900    -0.000746
                            658.188950    -0.002504
                            332.909040    -0.007016
                            176.023220    -0.015063
                             95.780704    -0.022420
                             53.337287    -0.013378
                             29.864821     0.026555
                             16.526778     0.070496
                              9.155323     0.058301
                              4.984876    -0.065834
                              2.636633    -0.177473
                              1.354062    -0.127085
                              0.656031     0.181760
                              0.269853     0.495490
[...]
                                    2 2px  -0.30405     2 2py   0.64094     2 2pz   0.54564     3 2px   0.35298     4 1s    0.76873
                                    4 2py  -0.35377     4 2pz   0.26732     5 1s    0.64328     6 1s    1.08508     6 2px  -0.28990
                                    6 2pz  -0.44151     7 1s    0.79508     8 1s    0.82376     9 1s    0.60667    10 1s    1.78866
                                   10 2px   0.82995    10 2pz  -0.42932    11 2py   0.29448    12 1s   -1.52483
   81.1     0.00000     0.03138     1 2pz  -0.32095     1 2px  -1.07319     1 2py   1.26157     1 2pz  -1.74956     1 2px  -2.62316
                                    1 2py   3.02810     1 2pz  -4.33351     1 2px   1.65441     1 2py  -2.01748     1 2pz   2.85759
                                    4 1s   -3.21727     4 2py   0.49095     4 2pz  -0.58590     5 1s   -0.42140     6 1s    3.20635
                                    6 2px  -0.37369     6 2py   0.34540     6 2pz  -0.61064     9 1s    0.41168     9 1s   -0.25529
                                   10 1s   -0.29985
   82.1     0.00000     0.03265     1 1s    0.28417     1 2px  -0.26956     1 2pz   0.27422     1 2px  -1.47299     1 2py   0.74738
                                    1 2pz   1.49532     1 2px  -3.60203     1 2py   1.80242     1 2pz   3.53778     1 2px   1.94365
                                    1 2py  -0.91123     1 2pz  -2.07317     1 3d2+  0.33066     2 1s    2.34875     2 2py   0.84701
                                    2 2pz   0.62622     3 1s   -0.99185     3 2py   0.49385     6 1s   -0.28095     7 1s    1.06553
                                    8 1s   -1.04812    10 1s   -2.59772    10 2px  -0.99216    10 2pz   0.38351    11 1s    0.88203
                                   11 2px  -0.42895    11 2py  -0.43750
   83.1     0.00000     0.03988     1 1s   -0.49799     1 1s   -1.81463     1 1s   -2.44038     1 1s   -0.41810     1 2px  -1.00752
                                    1 2py  -1.32119     1 2pz  -0.38886     1 2px  -2.82091     1 2py  -3.79289     1 2pz  -1.14283
                                    1 2px   2.13469     1 2py   2.69818     1 2pz   0.73697     1 3d1+ -0.44392     1 3d1-  0.44173
                                    1 3d1+  0.25464     1 3d0  -0.33479     1 3d2-  0.34122     1 3d1-  0.32268     2 1s   -1.87303
                                    2 2px   0.43249     2 2pz  -0.39228     3 1s    1.04933     3 2py  -0.27370     4 1s    1.53783
                                    4 2py  -0.55554     4 2pz   0.64237     5 1s    1.62376     6 1s    1.36734     6 2px  -0.39943
                                    6 2py   0.35936     6 2pz  -0.67929     7 1s    0.38832     8 1s    0.37708     9 1s    1.57333
                                   10 1s   -1.72019    10 2px  -0.32001    10 2py   0.32335    10 2pz   0.45408    11 1s    1.17061
                                   11 2px  -0.31918    12 1s   -0.47894    12 1s   -1.36006    12 2px  -0.29839    12 2py  -0.26721
                                   13 1s    0.81225
   84.1     0.00000     0.05086     1 1s    0.28447     1 1s    1.07704     1 1s    1.53648     1 1s   -0.86811     1 2px   0.30145
                                    1 2py   0.49368     1 2px   1.77192     1 2py   2.35653     1 2pz   0.80520     1 2px  -0.49282
                                    1 2py  -0.52365     1 2px  -2.42692     1 2py  -2.63858     1 2pz  -0.64507     1 3d0  -0.25818
                                    1 3d2-  0.35319     1 3d1-  0.38057     1 3d1+ -0.60980     1 3d1-  0.43614     2 1s    0.43005
                                    2 2px  -0.30647     2 2py  -0.68601     2 2pz  -0.27181     3 1s   -1.25781     4 1s    0.59793
                                    4 2px   0.33243     4 2pz   0.40515     5 1s    0.28150     5 1s    1.58770     6 1s    0.61092
                                    6 2py   0.44570     6 2pz  -0.39963     7 1s   -0.61003     7 1s   -1.87929     8 1s   -0.75948
                                    8 1s   -2.44364     9 1s    0.28312     9 1s    1.55423    10 1s    0.41299    10 2px  -0.25222
                                   10 2px  -0.76684    10 2py  -0.49154    11 1s   -1.68876    11 2px   0.42208    12 1s    0.70278
                                   12 1s    2.58560    12 2px   0.43458    12 2py   0.37839    13 1s   -1.39560
   85.1     0.00000     0.05637     1 1s   -0.41311     1 1s   -0.59451     1 2px   0.30738     1 2py  -0.45635     1 2px   2.14855
                                    1 2py  -2.28828     1 2pz  -1.94859     1 2px  -0.72741     1 2py   0.57138     1 2pz   0.67718
                                    1 2px  -2.89864     1 2py   2.67706     1 2pz   2.80091     1 3d2+  0.25173     1 3d2-  0.30381
                                    1 3d2+  0.79952     1 3d1- -0.61424     2 1s   -1.07052     2 2py   0.27591     2 2px  -0.29788
                                    2 2py   0.76152     2 2pz   0.35589     3 1s    1.56391     3 2px  -0.42007     3 2py  -0.82136
                                    3 2pz  -0.43657     7 1s    1.07285     7 1s    3.73724     8 1s   -0.83452     8 1s   -2.91205
                                   10 1s    0.77178    10 2px  -0.64654    10 2pz   0.25365    11 1s   -1.02866    11 2px   0.61784
                                   11 2py   0.66219    12 2px  -0.46652    12 2pz   0.29621
   86.1     0.00000     0.07309     1 1s   -0.25667     1 1s   -0.36331     1 1s    0.97152     1 2pz   0.27765     1 2px   1.28290
                                    1 2py  -1.10738     1 2pz   2.91369     1 2px  -0.58572     1 2py   0.66482     1 2pz  -1.17608
                                    1 2pz   0.29582     1 2px  -2.59761     1 2py   3.35540     1 2pz  -5.66164     1 4f1- -0.25432
                                    2 1s    0.40867     4 1s    0.33998     4 1s    2.58510     4 2pz  -0.33107     4 2px  -0.54760
                                    4 2py   0.55963     4 2pz  -1.17915     5 1s    1.65871     5 1s    5.24278     6 1s   -0.30834
                                    6 1s   -2.50877     6 2pz  -0.30026     6 2px  -0.33145     6 2py   0.62181     6 2pz  -1.10414
                                    8 1s   -0.26684     9 1s   -1.75164     9 1s   -5.64343     9 2pz  -0.27032    12 1s   -0.55613
   87.1     0.00000     0.07622     1 1s   -0.75846     1 1s   -2.92232     1 1s   -4.38715     1 1s    0.52289     1 1s    0.27986
                                    1 1s   14.75973     1 2px   0.73564     1 2py   0.84733     1 2px   4.05631     1 2py   5.07533
                                    1 2pz   1.44415     1 2px  -1.14700     1 2py  -1.56992     1 2pz  -0.46089     1 2px   0.31939
                                    1 2py   0.43133     1 2px  -2.61621     1 2py  -3.37868     1 2pz  -0.29766     1 3d0  -0.34622
                                    1 3d2-  0.72831     1 3d1-  0.42766     2 1s    2.33441     2 2py  -0.37602     3 1s    2.66899
                                    3 2px   1.20520     3 2pz  -0.63021     4 1s    0.78975     4 2px  -0.39722     4 2py  -0.25746
                                    4 2pz  -0.34444     5 1s   -0.61495     5 1s   -2.95047     6 1s    0.99621     6 2py  -0.60617
                                    7 1s   -1.17215     7 1s   -3.76819     7 2py  -0.29754     8 1s   -1.28917     8 1s   -4.07690
                                    8 2px  -0.37575     9 1s   -0.45337     9 1s   -2.10826    10 1s    2.53925    10 2px  -0.37263
                                   11 1s    2.33673    11 2px  -0.56864    11 2py   0.83772    11 2pz   0.86431    12 1s   -0.38175
                                   12 1s   -8.73889    12 2px   0.28243    12 2py   0.31882    12 2px   1.04627    12 2py   1.21853
                                   12 2pz   0.35838    13 1s    0.30587
   88.1     0.00000     0.08645     1 1s    0.41068     1 2px  -0.26989     1 2py   0.48123     1 2pz  -0.82205     1 2px  -1.07441
                                    1 2py   2.07871     1 2pz  -3.38547     1 2py  -0.40040     1 2pz   0.60068     1 2px   0.93728
                                    1 2py  -1.62644     1 2pz   2.39818     1 3d1+ -0.28282     1 3d2+ -0.32881     1 3d0  -0.60264
                                    1 3d1+ -0.83235     1 3d2+ -1.04916     1 3d1- -0.77540     4 1s   -2.47569     4 2px  -0.42192
                                    4 2py  -0.68710     5 1s   -0.91941     5 1s   -1.33632     6 1s    2.44097     6 2px   0.46787
                                    6 2py   0.54641     6 2pz   0.38161     9 1s    0.91835     9 1s    1.20754    11 2pz   0.26509
                                   12 1s   -0.26356    12 2py  -0.35185    12 2pz   0.49575    12 2pz   0.25211    13 2pz  -0.27752
                                   13 2pz  -0.32760
   89.1     0.00000     0.09467     1 1s   -0.46930     1 1s   -1.48533     1 1s   -5.34479     1 1s   -7.24027     1 1s    6.98235
                                    1 2py   0.28444     1 2px   1.06266     1 2py   1.63943     1 2pz   0.55298     1 2px   3.85356
                                    1 2py   6.10297     1 2pz   2.17532     1 2px  -0.58539     1 2py  -0.93875     1 2pz  -0.36295
                                    1 2py   0.30081     1 2px  -1.17871     1 2py  -2.31518     1 2pz  -0.82303     1 3d2-  0.34893
                                    1 3d1+  0.41658     1 3d0  -0.57287     1 3d2-  1.35246     1 3d1+  0.88841     1 3d2+ -0.48384
                                    1 3d1-  0.27360     1 4f3+ -0.36021     2 1s    3.93695     2 2px   0.29260     2 2py   0.71351
                                    2 2pz   0.39025     3 1s    2.27256     3 2px   0.75860     3 2pz  -0.42780     4 1s    0.99799
                                    4 2py  -0.47858     5 1s   -0.71455     6 1s    1.19085     6 2px  -0.37957     6 2py  -0.27906
                                    6 2pz  -0.32216     7 1s   -0.88581     7 1s   -0.58134     7 2py  -0.33833     8 1s   -0.74500
                                    8 1s   -0.25130     8 2px  -0.29699     9 1s   -0.58070    10 1s    3.41245    10 2px   0.63400
                                   10 2py   0.36655    11 1s    2.36714    11 2px  -0.63433    11 2py   0.28791    11 2pz   0.47366
                                   12 1s   -8.04216    12 2px   0.46209    12 2py   0.61849    12 2px   1.56967    12 2py   1.81131
                                   12 2pz   0.57899    13 1s   -0.26477    13 1s   -0.41171


 HOMO     79.1    -0.483361 =     -13.1529eV
 LUMO     80.1     0.021342 =       0.5808eV
 LUMO-HOMO         0.504703 =      13.7337eV


 **********************************************************************************************************************************
 DATASETS  * FILE   NREC   LENGTH (MB)   RECORD NAMES
              1      22       62.40       500      610      700      900      950      970     1000      129      960     1700   
                                          VAR    BASINP    GEOM    SYMINP    ZMAT    AOBASIS   BASIS     P2S    ABASIS    OPER   
                                         1101     1401     1411     1412     1650     1100     1400     1410     1200     1210   
                                          SR      EKINR    POTR     PVPR    MOLCAS      S      EKIN      POT      H0       H01  
                                         1080     1600   
                                         AOSYM     SMH  

              2       6       22.86       500      610      700     1000      520     2100   
                                          VAR    BASINP    GEOM     BASIS   MCVARS     RHF  

 PROGRAMS   *        TOTAL    HF-SCF       INT      FILE
 CPU TIMES  *      2741.82    672.76   2068.84      0.00
 REAL TIME  *      3978.88 SEC
 DISK USED  *       113.24 MB (local),      230.54 GB (total)
 SF USED    *         1.55 MB
 GA USED    *         0.01 MB       (max)       0.00 MB       (current)
 **********************************************************************************************************************************


 PROGRAM * CCSD (Closed-shell coupled cluster)     Authors: C. Hampel, H.-J. Werner, 1991, M. Deegan, P.J. Knowles, 1992


 Convergence thresholds:  THRVAR = 1.00D-08  THRDEN = 1.00D-06

 CCSD(T)     terms to be evaluated (factor= 1.000)


 Number of core orbitals:          47 (  47 )
 Number of closed-shell orbitals:  32 (  32 )
 Number of external orbitals:     542 ( 542 )

 Molecular orbitals read from record     2100.2  Type=RHF/CANONICAL (state 1.1)

 Number of N-1 electron functions:              32
 Number of N-2 electron functions:             528
 Number of singly external CSFs:             17344
 Number of doubly external CSFs:         150415840
 Total number of CSFs:                   150433185

 Length of J-op  integral file:               0.00 MB
 Length of K-op  integral file:              26.48 MB
 Length of 3-ext integral record:             0.00 MB

 For full I/O caching in triples, increase memory by 3335.53 Mwords to 5835.58 Mwords.

 Multipassing necessary in transformation. To avoid, increase memory by 1786.39 Mwords.

 Integral transformation finished. Total CPU:4029.35 sec, npass=  2  Memory used:2402.42 MW

 Reference energy:                 -27802.66581154

 MP2 singlet pair energy:              -1.41435589
 MP2 triplet pair energy:              -0.96842137
 MP2 correlation energy:               -2.38277726
 MP2 total energy:                 -27805.04858880

 SCS-MP2 correlation energy:           -2.29980036   (PS=  1.200000  PT=  0.333333)
 SCS-MP2 total energy:             -27804.96561191

 ITER.      SQ.NORM     CORR.ENERGY   TOTAL ENERGY   ENERGY CHANGE        DEN1      VAR(S)    VAR(P)  DIIS     TIME  TIME/IT
   1      1.58006098    -2.36378492-27805.02959647     0.01899233     0.11165136  0.37D-01  0.18D-01  1  1  6375.35  2390.41
   2      1.62563864    -2.35145684-27805.01726838     0.01232809    -0.06433472  0.66D-03  0.25D-02  2  2  8776.54  2586.54
   3      1.65362482    -2.35422667-27805.02003821    -0.00276983    -0.00848220  0.15D-02  0.19D-03  3  3 11235.52  2670.66
   4      1.66834879    -2.35253000-27805.01834155     0.00169667    -0.00501659  0.19D-03  0.49D-04  4  4 13730.94  2723.12
   5      1.67918111    -2.35203240-27805.01784395     0.00049760    -0.00223585  0.48D-04  0.70D-05  5  5 16216.57  2752.74
   6      1.68267793    -2.35181586-27805.01762741     0.00021654    -0.00039255  0.77D-05  0.20D-05  6  6 18249.48  2696.35
   7      1.68412476    -2.35169731-27805.01750886     0.00011855    -0.00003236  0.17D-05  0.41D-06  6  1 20395.23  2671.19
   8      1.68462167    -2.35168519-27805.01749674     0.00001212    -0.00007923  0.34D-06  0.99D-07  6  2 22676.89  2673.38
   9      1.68464390    -2.35169542-27805.01750696    -0.00001022     0.00003461  0.70D-07  0.25D-07  6  3 24815.33  2658.40
  10      1.68474538    -2.35168014-27805.01749169     0.00001527    -0.00002368  0.18D-07  0.54D-08  6  4 26983.76  2647.58
  11      1.68472130    -2.35168941-27805.01750095    -0.00000926     0.00000618  0.48D-08  0.16D-08  6  5 29183.20  2642.08
  12      1.68474050    -2.35168600-27805.01749754     0.00000341    -0.00000465  0.15D-08  0.29D-09  6  6 31331.35  2632.54
  13      1.68473892    -2.35168671-27805.01749825    -0.00000071     0.00000089  0.33D-09  0.11D-09  6  1 33489.00  2626.41
  14      1.68474163    -2.35168651-27805.01749805     0.00000020    -0.00000038  0.90D-10  0.29D-10  6  2 35707.65  2624.92

 Norm of t1 vector:      0.26545951      S-energy:    -0.00000160      T1 diagnostic:  0.02346353
                                                                       D1 diagnostic:  0.07267016

   CPU time for triples:   2258.83 sec for i =  1 -  9 / 32 (~   2.6 % done)
   CPU time for triples:   4343.97 sec for i = 10 - 10 / 32 (~   3.5 % done)
   CPU time for triples:   3824.62 sec for i = 11 - 11 / 32 (~   4.6 % done)
   CPU time for triples:   4748.55 sec for i = 12 - 18 / 32 (~  18.9 % done)
   CPU time for triples:   4122.94 sec for i = 19 - 21 / 32 (~  29.4 % done)
   CPU time for triples:   4091.95 sec for i = 22 - 23 / 32 (~  38.3 % done)
   CPU time for triples:   4072.76 sec for i = 24 - 25 / 32 (~  48.7 % done)
   CPU time for triples:   3156.77 sec for i = 26 - 26 / 32 (~  54.6 % done)
   CPU time for triples:   4895.63 sec for i = 27 - 28 / 32 (~  67.7 % done)
   CPU time for triples:   4058.68 sec for i = 29 - 29 / 32 (~  75.0 % done)
   CPU time for triples:   4117.39 sec for i = 30 - 30 / 32 (~  82.8 % done)
   CPU time for triples:   3014.62 sec for i = 31 - 31 / 32 (~  91.1 % done)
   CPU time for triples:   4806.75 sec for i = 32 - 32 / 32 (  100.0 % done)

 Total CPU time for triples:  51566.89 sec


 RESULTS
 =======

  Reference energy                   -27802.6658115447    
  CCSD singlet pair energy             -1.505053649320
  CCSD triplet pair energy             -0.846631258103
  CCSD correlation energy              -2.351686506090

  Triples (T) contribution             -0.120219602292
  Total correlation energy             -2.471906108383

  CCSD total energy                  -27805.0174980508    
  CCSD[T] energy                     -27805.1511846028    
  CCSD-T energy                      -27805.1331051073    
 !CCSD(T) total energy               -27805.1377176531    

 Timing summary (sec):

 STEP                 CPU(USER)    SYS     CPU(TOT)    WALL
 Transformation       4037.36    177.66   4215.02   4433.77
 CCSD iterations     31671.34    749.63  32420.97  36747.02
 Triples             51566.89    755.49  52322.38  61679.14

 Program statistics:

 Available memory in ccsd:              2499995825
 Min. memory needed in ccsd:             336481566
 Max. memory used in ccsd:               479265790
 Max. memory used in cckext:             411905472 (14 integral passes)



 **********************************************************************************************************************************
 DATASETS  * FILE   NREC   LENGTH (MB)   RECORD NAMES
              1      23    22931.09       500      610      700      900      950      970     1000      129      960     1700   
                                          VAR    BASINP    GEOM    SYMINP    ZMAT    AOBASIS   BASIS     P2S    ABASIS    OPER   
                                         1101     1401     1411     1412     1650     1100     1400     1410     1200     1210   
                                          SR      EKINR    POTR     PVPR    MOLCAS      S      EKIN      POT      H0       H01  
                                         1080     1600     1380   
                                         AOSYM     SMH     JKOP   

              2       6       22.86       500      610      700     1000      520     2100   
                                          VAR    BASINP    GEOM     BASIS   MCVARS     RHF  

 PROGRAMS   *        TOTAL   CCSD(T)    HF-SCF       INT      FILE
 CPU TIMES  *     90017.77  87275.84    672.76   2068.84      0.00
 REAL TIME  *    106846.82 SEC
 DISK USED  *        37.85 GB (local),      428.16 GB (total)
 SF USED    *        38.94 GB
 GA USED    *         0.01 MB       (max)       0.00 MB       (current)
 **********************************************************************************************************************************
 SETTING ENERGY_HF(1)   =    -27802.66581154  AU                              
 SETTING CORR_MP2(1)    =        -2.38277726  AU                              
 SETTING CORR_CCSDT(1)  =        -2.47190611  AU                              

 CCSD(T)/PA=CC-PVTZ-X2C,O=AUG-CC-PVTZ-X2C,H=AUG-CC-PVTZ-X2C,N=AUG-CC-PVTZ-X2C energy= -27805.137717653070

         CCSD(T)          HF-SCF
 -27805.13771765 -27802.66581154
 **********************************************************************************************************************************
 Molpro calculation terminated
