

 Parallel Execution: Process Information
 ==============================================================================
 Rank   Node Name                              NodeID   MyNodeRank  NodeMaster
    0   u-0-10.local                              0          0          0
    1   u-0-10.local                              0          1         -1
    2   u-0-10.local                              0          2         -1
    3   u-0-10.local                              0          3         -1
    4   u-0-10.local                              1          0          1
    5   u-0-10.local                              1          1         -1
    6   u-0-10.local                              1          2         -1
    7   u-0-10.local                              1          3         -1
 ==============================================================================


May use up to 62450MB of RAM as shared memory on node 0
May use up to 124950MB of RAM as shared memory on node 1

 *******************************************************************************
 *                                                                             *
 *  --------------------------------                                           *
 *   Amsterdam Modeling Suite (AMS)              2023.101                      *
 *  --------------------------------                                           *
 *                                               r111868 2023-03-31            *
 *                                                                             *
 *                                                                             *
 *                              =================                              *
 *                              |               |                              *
 *                              |     A M S     |                              *
 *                              |               |                              *
 *                              =================                              *
 *                                                                             *
 *                                                                             *
 *   Online information and documentation:  https://www.scm.com/support/       *
 *   E-mail:  support@scm.com   info@scm.com                                   *
 *                                                                             *
 *   Scientific publications using AMS results must be properly referenced     *
 *   See the User Manuals (or the web site) for recommended citations          *
 *   The terms and conditions of the End User License Agreement apply to       *
 *   the use of AMS, https://www.scm.com/license-terms/                        *
 *                                                                             *
 **********************  x86_64_linux_intel / intelmpi  ************************
 
 Licensed to: Dr. Val?rie Vallet / Laboratoire PhLAM UMR 8523 / Villeneuve d'Ascq Cedex / FRANCE 2023-03-27 15:45:49
 SCM User ID: u10325
  
 AMS 2023.101  RunTime: Nov19-2023 21:17:11  ShM Nodes: 2  Procs: 8

 AMS jobname: pa_oh4_N.SO.b3lyp.tz2p.sp-B22-gp
 AMS jobid  : 538630877

 Start   directory: /home/shaaban/ams/PhD/thiocyanate/bnN/pa_oh4_N/solvation/B22/SP-SR-SO-GP/
 Results directory: /home/shaaban/ams/PhD/thiocyanate/bnN/pa_oh4_N/solvation/B22/SP-SR-SO-GP/pa_oh4_N.SO.b3lyp.tz2p.sp-B22-gp.results/
 Scratch directory: /state/partition2/shaaban/985808.phlam-s-sakura/amstmp_pa_oh4_N.SO.b3lyp.tz2p.sp-B22-gp_kid0.538630877/


 Communication costs MPI_COMM_WORLD:      0.940 usec per message,   0.0126 usec per 8-byte item
 Communication costs for intra-node:      0.487 usec per message,   0.0055 usec per 8-byte item

 RNG seed: -646461901 522963148 -630229366 -412596301 1408753651 1546942254 1450452052 -1799276087



                      ************************************************************************
                      *  ADF 2023.101  RunTime: Nov19-2023 21:17:12  ShM Nodes: 2  Procs: 8  *
                      ************************************************************************
  

       ****************************
       * SINGLE POINT CALCULATION *
       ****************************
 
--------
Geometry
--------
Formula: CH4NO4PaS
Atoms
  Index Symbol   x (angstrom)   y (angstrom)   z (angstrom)
      1     Pa    -0.11844337     0.06456774    -0.38416333
      2      N     0.85849149     1.67532006    -1.86448353
      3      H    -1.41082295     1.86178673     1.47439379
      4      O    -1.11131546     1.64838397     0.58114908
      5      H     2.34776216    -0.25869047     1.09777275
      6      O     0.77704983    -1.42925733    -1.54037133
      7      H     1.13602707    -2.32521539    -1.51797980
      8      O    -1.06845140    -1.36762988     0.81548811
      9      H    -1.02111414    -2.16725427     1.35116117
     10      O     1.54519699     0.22436633     0.87025667
     11      C     1.53796067     2.44713249    -2.44501635
     12      S     2.45871663     3.49990907    -3.24052634
 
Total System Charge             0.00000
Bonding info available!
 
 
----------------
ADF Engine Input
----------------
 
 Basis
 Type TZ2P
 Core None
 End
 XC
 Hybrid B3LYP
 End
 Relativity
 Level Spin-Orbit
 End
 NumericalQuality Good
 

 Title: *** (NO TITLE) ***

 *** adf ***



 ===========================
 A T T A C H E D   F I L E S
 ===========================
  



 ===============================
 M O D E L   P A R A M E T E R S
 ===============================
  
 DENSITY FUNCTIONAL POTENTIAL (scf)
    Hybrid:                            B3LYP                                   == Not Default ==

 SPIN  (restricted / unrestr.)
    Molecule:                          Restricted                               
    Fragments:                         Restricted                               

 OTHER ASPECTS
    Relativistic Corrections:          Spin-Orbit (ZORA,MAPA)                  == Not Default ==

    Nuclear Charge Density Model:      Point Charge Nuclei                      
    Core Treatment:                    Frozen Orbital(s)                        

    Hyperfine or Zeeman Interaction:   ---                                      


 Fragment File(s)
 ----------------
 Pa:
         file : /home/shaaban/ams/PhD/thiocyanate/bnN/pa_oh4_N/solvation/B22/SP-SR-SO-GP/pa_oh4_N.SO.b3lyp.tz2p.sp-B22-gp.results/t21.376DF1AB.Pa
         jobid: 0
         title: Protactinium (TZ2P, all electron)
 N:
         file : /home/shaaban/ams/PhD/thiocyanate/bnN/pa_oh4_N/solvation/B22/SP-SR-SO-GP/pa_oh4_N.SO.b3lyp.tz2p.sp-B22-gp.results/t21.1EC1AF8B.N
         jobid: 0
         title: Nitrogen (TZ2P)
 H:
         file : /home/shaaban/ams/PhD/thiocyanate/bnN/pa_oh4_N/solvation/B22/SP-SR-SO-GP/pa_oh4_N.SO.b3lyp.tz2p.sp-B22-gp.results/t21.1FC863BF.H
         jobid: 0
         title: Hydrogen (TZ2P)
 O:
         file : /home/shaaban/ams/PhD/thiocyanate/bnN/pa_oh4_N/solvation/B22/SP-SR-SO-GP/pa_oh4_N.SO.b3lyp.tz2p.sp-B22-gp.results/t21.6BA271D4.O
         jobid: 0
         title: Oxygen (TZ2P)
 C:
         file : /home/shaaban/ams/PhD/thiocyanate/bnN/pa_oh4_N/solvation/B22/SP-SR-SO-GP/pa_oh4_N.SO.b3lyp.tz2p.sp-B22-gp.results/t21.24C4801F.C
         jobid: 0
         title: Carbon (TZ2P)
 S:
         file : /home/shaaban/ams/PhD/thiocyanate/bnN/pa_oh4_N/solvation/B22/SP-SR-SO-GP/pa_oh4_N.SO.b3lyp.tz2p.sp-B22-gp.results/t21.1D38E0E5.S
         jobid: 0
         title: Sulphur (TZ2P)



 ===============
 G E O M E T R Y  ***  3D  Molecule  ***
 ===============
  

 ATOMS
 =====                            X Y Z                    CHARGE
                                (Angstrom)             Nucl     +Core       At.Mass
                       --------------------------    ----------------       -------
    1  Pa             -0.1184    0.0646   -0.3842     91.00     91.00      231.0359
    2  N               0.8585    1.6753   -1.8645      7.00      7.00       14.0031
    3  H              -1.4108    1.8618    1.4744      1.00      1.00        1.0078
    4  O              -1.1113    1.6484    0.5811      8.00      8.00       15.9949
    5  H               2.3478   -0.2587    1.0978      1.00      1.00        1.0078
    6  O               0.7770   -1.4293   -1.5404      8.00      8.00       15.9949
    7  H               1.1360   -2.3252   -1.5180      1.00      1.00        1.0078
    8  O              -1.0685   -1.3676    0.8155      8.00      8.00       15.9949
    9  H              -1.0211   -2.1673    1.3512      1.00      1.00        1.0078
   10  O               1.5452    0.2244    0.8703      8.00      8.00       15.9949
   11  C               1.5380    2.4471   -2.4450      6.00      6.00       12.0000
   12  S               2.4587    3.4999   -3.2405     16.00     16.00       31.9721


 FRAGMENTS
 =========                                     Atoms in this Fragment     Cart. coord.s (Angstrom)
                                               -------------------------------------------------------
    1  Pa                                                1  Pa          -0.1184    0.0646   -0.3842
    2  N                                                 2  N            0.8585    1.6753   -1.8645
    3  H                                                 3  H           -1.4108    1.8618    1.4744
    4  H                                                 5  H            2.3478   -0.2587    1.0978
    5  H                                                 7  H            1.1360   -2.3252   -1.5180
    6  H                                                 9  H           -1.0211   -2.1673    1.3512
    7  O                                                 4  O           -1.1113    1.6484    0.5811
    8  O                                                 6  O            0.7770   -1.4293   -1.5404
    9  O                                                 8  O           -1.0685   -1.3676    0.8155
   10  O                                                10  O            1.5452    0.2244    0.8703
   11  C                                                11  C            1.5380    2.4471   -2.4450
   12  S                                                12  S            2.4587    3.4999   -3.2405


 Interatomic Distance Matrix (Angstrom)
 --------------------------------------

   1)     0.000
   2)     2.396   0.000
   3)     2.890   4.041   0.000
   4)     2.104   3.140   0.966   0.000
   5)     2.895   3.838   4.332   3.984   0.000
   6)     2.091   3.123   4.971   4.188   3.286   0.000
   7)     2.928   4.025   5.742   5.025   3.547   0.965   0.000
   8)     2.096   4.489   3.314   3.025   3.603   2.993   3.350   0.000
   9)     2.968   5.352   4.050   3.894   3.880   3.484   3.593   0.964   0.000
  10)     2.090   3.171   3.433   3.028   0.964   3.023   3.517   3.061   3.541   0.000
  11)     3.559   1.181   4.940   4.101   4.531   4.053   4.878   5.655   6.500   3.991
          0.000
  12)     5.158   2.790   6.316   5.548   5.741   5.479   6.217   7.252   8.081   5.335
          1.609   0.000

 Min. Distance =    0.9636
 Max. Distance =    8.0814



 =====================================
 S Y M M E T R Y ,   E L E C T R O N S
 =====================================
  
 Symmetry: NOSYM

 Double Group Irreducible Representations (spinor symmetry)
 -----------------------------------------------------------
 A1/2

 Symmetry is NOT used when fitting density


 Configuration of Valence Electrons
 ==================================
 ( determined in the SCF procedure )

 Total:   156

 Net Charge: 0 (Nuclei minus Electrons)

 Aufbau principle for MO occupations will be applied through SCF cycle no.     150
 Thereafter, the program will assign electrons to MOs that are spatially
 similar to the occupied MOs in a "reference" cycle ("KeepOrbitals").
 The reference cycle is always the PREVIOUS cycle: it will evolve with
 the SCF procedure.
1
 ***************************************************************************************************



                                      ****************************************
                                      *  B U I L D : (Fragments, Functions)  *
                                      ****************************************
  



 =======
 S F O s  ***  (Symmetrized Fragment Orbitals)  ***
 =======
  
 SFOs are linear combinations of (valence) Fragment Orbitals (FOs), such that the SFOs transform as the
 irreducible representations of the (molecular) symmetry group. Each SFO is therefore characterized by
 an irrep of the molecule and by a few (or only one) generating FOs.
 The SFOs constitute a symmetry-adapted basis for the Fock matrix. The MO eigenvector coefficients in
 this basis provide a direct interpretation of the MOs in terms of Frontier Orbital Theory.

 The SFOs are combined with auxiliary Core Functions (CFs) to ensure orthogonalization on the (frozen)
 Core Orbitals (COs). The Core-orthogonalized SFOs (CSFOs) constitute the true Fock basis.

 The FOs, and hence also the (C)SFOs are combinations of the elementary basis functions (BAS). The basis
 functions that participate in the description of the SFOs depend on the irrep. The indices of the
 involved functions are printed below for each irrep.
 (The complete list of primitive basis functions is printed in another section)

 Total nr. of (C)SFOs (summation over all irreps) :   369

 NOTE: a (C)SFO that is defined as a combination of more than one FO is usually NOT normalized.

 NOTE: the (C)SFOs are single group symmetry adapted orbitals.



                                       === A ===
 Nr. of SFOs :  369
 Cartesian basis functions that participate in this irrep (total number =   425) :
      1     2     3     4     5     6     7     8     9    10
     11    12    13    14    15    16    17    20    23    26
     29    32    35    38    41    44    47    50   157    18
     21    24    27    30    33    36    39    42    45    48
     51   158    19    22    25    28    31    34    37    40
     43    46    49    52   159    53    59    65    71    77
     83    89    95   101    54    60    66    72    78    84
     90    96   102    55    61    67    73    79    85    91
     97   103    56    62    68    74    80    86    92    98
    104    57    63    69    75    81    87    93    99   105
     58    64    70    76    82    88    94   100   106   107
    117   127   137   147   108   118   128   138   148   109
    119   129   139   149   110   120   130   140   150   111
    121   131   141   151   112   122   132   142   152   113
    123   133   143   153   114   124   134   144   154   115
    125   135   145   155   116   126   136   146   156   160
    161   162   163   164   165   168   171   166   169   172
    167   170   173   174   175   176   177   178   179   180
    181   182   183   184   185   186   187   188   189   190
    191   192   193   194   195   196   197   198   199   200
    201   202   203   204   205   206   207   208   209   210
    211   212   213   214   215   216   217   218   219   220
    221   222   223   224   225   226   227   228   229   230
    231   232   233   234   235   236   237   238   239   240
    241   242   243   246   249   244   247   250   245   248
    251   252   253   254   255   256   257   258   259   260
    261   262   263   264   265   266   267   268   269   270
    271   272   273   276   279   274   277   280   275   278
    281   282   283   284   285   286   287   288   289   290
    291   292   293   294   295   296   297   298   299   300
    301   302   303   306   309   304   307   310   305   308
    311   312   313   314   315   316   317   318   319   320
    321   322   323   324   325   326   327   328   329   330
    331   332   333   336   339   334   337   340   335   338
    341   342   343   344   345   346   347   348   349   350
    351   352   353   354   355   356   357   358   359   360
    361   362   363   366   369   364   367   370   365   368
    371   372   373   374   375   376   377   378   379   380
    381   382   383   384   385   386   387   388   389   390
    391   398   399   400   392   395   401   404   407   393
    396   402   405   408   394   397   403   406   409   410
    411   412   413   414   415   416   417   418   419   420
    421   422   423   424   425

    SFO  (index         Fragment          Generating    Expansion in Fragment Orbitals
  indx  incl.CFs)   Occup   Orb.Energy   FragmentType  Coeff.   Orbital     on Fragment
 --------------------------------------------------------------------------------------
     1       1      2.000   -4140.144 au  Pa            1.00      1 S               1
                        ( -112659.040 eV)
     2       2      2.000    -772.390 au  Pa            1.00      2 S               1
                        (  -21017.794 eV)
     3       3      2.000    -195.003 au  Pa            1.00      3 S               1
                        (   -5306.298 eV)
     4       4      2.000     -49.664 au  Pa            1.00      4 S               1
                        (   -1351.436 eV)
     5       5      2.000     -11.057 au  Pa            1.00      5 S               1
                        (    -300.888 eV)
     6       6      2.000      -1.766 au  Pa            1.00      6 S               1
                        (     -48.049 eV)
     7       7      2.000      -0.167 au  Pa            1.00      7 S               1
                        (      -4.550 eV)
     8       8       --         0.031 au  Pa            1.00      8 S               1
                        (       0.841 eV)
     9       9       --         0.336 au  Pa            1.00      9 S               1
                        (       9.133 eV)
    10      10       --         1.674 au  Pa            1.00     10 S               1
                        (      45.549 eV)
    11      11       --         8.680 au  Pa            1.00     11 S               1
                        (     236.196 eV)
    12      12       --        46.308 au  Pa            1.00     12 S               1
                        (    1260.118 eV)
    13      13       --      1052.293 au  Pa            1.00     13 S               1
                        (   28634.347 eV)
    14      14       --      5423.866 au  Pa            1.00     14 S               1
                        (  147590.909 eV)
    15      15       --     16326.809 au  Pa            1.00     15 S               1
                        (  444275.077 eV)
    16      16       --     46434.730 au  Pa            1.00     16 S               1
                        ( 1263553.301 eV)
    17      17      2.000    -644.804 au  Pa            1.00      1 P:x             1
                        (  -17546.004 eV)
    18      18      2.000    -159.382 au  Pa            1.00      2 P:x             1
                        (   -4336.995 eV)
    19      19      2.000     -38.001 au  Pa            1.00      3 P:x             1
                        (   -1034.059 eV)
    20      20      2.000      -7.452 au  Pa            1.00      4 P:x             1
                        (    -202.774 eV)
    21      21      2.000      -0.880 au  Pa            1.00      5 P:x             1
                        (     -23.949 eV)
    22      22       --        -0.008 au  Pa            1.00      6 P:x             1
                        (      -0.215 eV)
    23      23       --         0.404 au  Pa            1.00      7 P:x             1
                        (      10.994 eV)
    24      24       --         1.850 au  Pa            1.00      8 P:x             1
                        (      50.342 eV)
    25      25       --         7.570 au  Pa            1.00      9 P:x             1
                        (     205.994 eV)
    26      26       --        35.931 au  Pa            1.00     10 P:x             1
                        (     977.731 eV)
    27      27       --       178.469 au  Pa            1.00     11 P:x             1
                        (    4856.387 eV)
    28      28       --      1509.400 au  Pa            1.00     12 P:x             1
                        (   41072.871 eV)
    29      29       --     10783.504 au  Pa            1.00     13 P:x             1
                        (  293434.081 eV)
    30      30      2.000    -644.804 au  Pa            1.00      1 P:y             1
                        (  -17546.004 eV)
    31      31      2.000    -159.382 au  Pa            1.00      2 P:y             1
                        (   -4336.995 eV)
    32      32      2.000     -38.001 au  Pa            1.00      3 P:y             1
                        (   -1034.059 eV)
    33      33      2.000      -7.452 au  Pa            1.00      4 P:y             1
                        (    -202.774 eV)
    34      34      2.000      -0.880 au  Pa            1.00      5 P:y             1
                        (     -23.949 eV)
    35      35       --        -0.008 au  Pa            1.00      6 P:y             1
                        (      -0.215 eV)
    36      36       --         0.404 au  Pa            1.00      7 P:y             1
                        (      10.994 eV)
    37      37       --         1.850 au  Pa            1.00      8 P:y             1
                        (      50.342 eV)
    38      38       --         7.570 au  Pa            1.00      9 P:y             1
                        (     205.994 eV)
    39      39       --        35.931 au  Pa            1.00     10 P:y             1
                        (     977.731 eV)
    40      40       --       178.469 au  Pa            1.00     11 P:y             1
                        (    4856.387 eV)
    41      41       --      1509.400 au  Pa            1.00     12 P:y             1
                        (   41072.871 eV)
    42      42       --     10783.504 au  Pa            1.00     13 P:y             1
                        (  293434.081 eV)
    43      43      2.000    -644.804 au  Pa            1.00      1 P:z             1
                        (  -17546.004 eV)
    44      44      2.000    -159.382 au  Pa            1.00      2 P:z             1
                        (   -4336.995 eV)
    45      45      2.000     -38.001 au  Pa            1.00      3 P:z             1
                        (   -1034.059 eV)
    46      46      2.000      -7.452 au  Pa            1.00      4 P:z             1
                        (    -202.774 eV)
    47      47      2.000      -0.880 au  Pa            1.00      5 P:z             1
                        (     -23.949 eV)
    48      48       --        -0.008 au  Pa            1.00      6 P:z             1
                        (      -0.215 eV)
    49      49       --         0.404 au  Pa            1.00      7 P:z             1
                        (      10.994 eV)
    50      50       --         1.850 au  Pa            1.00      8 P:z             1
                        (      50.342 eV)
    51      51       --         7.570 au  Pa            1.00      9 P:z             1
                        (     205.994 eV)
    52      52       --        35.931 au  Pa            1.00     10 P:z             1
                        (     977.731 eV)
    53      53       --       178.469 au  Pa            1.00     11 P:z             1
                        (    4856.387 eV)
    54      54       --      1509.400 au  Pa            1.00     12 P:z             1
                        (   41072.871 eV)
    55      55       --     10783.504 au  Pa            1.00     13 P:z             1
                        (  293434.081 eV)
    56      56      2.000    -127.750 au  Pa            1.00      1 D:z2            1
                        (   -3476.261 eV)
    57      57      2.000     -25.974 au  Pa            1.00      2 D:z2            1
                        (    -706.779 eV)
    58      58      2.000      -3.548 au  Pa            1.00      3 D:z2            1
                        (     -96.540 eV)
    59      59      0.200      -0.066 au  Pa            1.00      4 D:z2            1
                        (      -1.808 eV)
    60      60       --         0.084 au  Pa            1.00      5 D:z2            1
                        (       2.281 eV)
    61      61       --         0.569 au  Pa            1.00      6 D:z2            1
                        (      15.477 eV)
    62      62       --         3.594 au  Pa            1.00      7 D:z2            1
                        (      97.805 eV)
    63      63       --        24.986 au  Pa            1.00      8 D:z2            1
                        (     679.903 eV)
    64      64       --       204.782 au  Pa            1.00      9 D:z2            1
                        (    5572.393 eV)
    65      65      2.000    -127.750 au  Pa            1.00      1 D:x2-y2         1
                        (   -3476.261 eV)
    66      66      2.000     -25.974 au  Pa            1.00      2 D:x2-y2         1
                        (    -706.779 eV)
    67      67      2.000      -3.548 au  Pa            1.00      3 D:x2-y2         1
                        (     -96.540 eV)
    68      68      0.200      -0.066 au  Pa            1.00      4 D:x2-y2         1
                        (      -1.808 eV)
    69      69       --         0.084 au  Pa            1.00      5 D:x2-y2         1
                        (       2.281 eV)
    70      70       --         0.569 au  Pa            1.00      6 D:x2-y2         1
                        (      15.477 eV)
    71      71       --         3.594 au  Pa            1.00      7 D:x2-y2         1
                        (      97.805 eV)
    72      72       --        24.986 au  Pa            1.00      8 D:x2-y2         1
                        (     679.903 eV)
    73      73       --       204.782 au  Pa            1.00      9 D:x2-y2         1
                        (    5572.393 eV)
    74      74      2.000    -127.750 au  Pa            1.00      1 D:xy            1
                        (   -3476.261 eV)
    75      75      2.000     -25.974 au  Pa            1.00      2 D:xy            1
                        (    -706.779 eV)
    76      76      2.000      -3.548 au  Pa            1.00      3 D:xy            1
                        (     -96.540 eV)
    77      77      0.200      -0.066 au  Pa            1.00      4 D:xy            1
                        (      -1.808 eV)
    78      78       --         0.084 au  Pa            1.00      5 D:xy            1
                        (       2.281 eV)
    79      79       --         0.569 au  Pa            1.00      6 D:xy            1
                        (      15.477 eV)
    80      80       --         3.594 au  Pa            1.00      7 D:xy            1
                        (      97.805 eV)
    81      81       --        24.986 au  Pa            1.00      8 D:xy            1
                        (     679.903 eV)
    82      82       --       204.782 au  Pa            1.00      9 D:xy            1
                        (    5572.393 eV)
    83      83      2.000    -127.750 au  Pa            1.00      1 D:xz            1
                        (   -3476.261 eV)
    84      84      2.000     -25.974 au  Pa            1.00      2 D:xz            1
                        (    -706.779 eV)
    85      85      2.000      -3.548 au  Pa            1.00      3 D:xz            1
                        (     -96.540 eV)
    86      86      0.200      -0.066 au  Pa            1.00      4 D:xz            1
                        (      -1.808 eV)
    87      87       --         0.084 au  Pa            1.00      5 D:xz            1
                        (       2.281 eV)
    88      88       --         0.569 au  Pa            1.00      6 D:xz            1
                        (      15.477 eV)
    89      89       --         3.594 au  Pa            1.00      7 D:xz            1
                        (      97.805 eV)
    90      90       --        24.986 au  Pa            1.00      8 D:xz            1
                        (     679.903 eV)
    91      91       --       204.782 au  Pa            1.00      9 D:xz            1
                        (    5572.393 eV)
    92      92      2.000    -127.750 au  Pa            1.00      1 D:yz            1
                        (   -3476.261 eV)
    93      93      2.000     -25.974 au  Pa            1.00      2 D:yz            1
                        (    -706.779 eV)
    94      94      2.000      -3.548 au  Pa            1.00      3 D:yz            1
                        (     -96.540 eV)
    95      95      0.200      -0.066 au  Pa            1.00      4 D:yz            1
                        (      -1.808 eV)
    96      96       --         0.084 au  Pa            1.00      5 D:yz            1
                        (       2.281 eV)
    97      97       --         0.569 au  Pa            1.00      6 D:yz            1
                        (      15.477 eV)
    98      98       --         3.594 au  Pa            1.00      7 D:yz            1
                        (      97.805 eV)
    99      99       --        24.986 au  Pa            1.00      8 D:yz            1
                        (     679.903 eV)
   100     100       --       204.782 au  Pa            1.00      9 D:yz            1
                        (    5572.393 eV)
   101     101      2.000     -13.085 au  Pa            1.00      1 F:z3            1
                        (    -356.050 eV)
   102     102      0.286      -0.042 au  Pa            1.00      2 F:z3            1
                        (      -1.139 eV)
   103     103       --         0.419 au  Pa            1.00      3 F:z3            1
                        (      11.400 eV)
   104     104       --         2.553 au  Pa            1.00      4 F:z3            1
                        (      69.470 eV)
   105     105       --        21.603 au  Pa            1.00      5 F:z3            1
                        (     587.835 eV)
   106     106      2.000     -13.085 au  Pa            1.00      1 F:z             1
                        (    -356.050 eV)
   107     107      0.286      -0.042 au  Pa            1.00      2 F:z             1
                        (      -1.139 eV)
   108     108       --         0.419 au  Pa            1.00      3 F:z             1
                        (      11.400 eV)
   109     109       --         2.553 au  Pa            1.00      4 F:z             1
                        (      69.470 eV)
   110     110       --        21.603 au  Pa            1.00      5 F:z             1
                        (     587.835 eV)
   111     111      2.000     -13.085 au  Pa            1.00      1 F:xyz           1
                        (    -356.050 eV)
   112     112      0.286      -0.042 au  Pa            1.00      2 F:xyz           1
                        (      -1.139 eV)
   113     113       --         0.419 au  Pa            1.00      3 F:xyz           1
                        (      11.400 eV)
   114     114       --         2.553 au  Pa            1.00      4 F:xyz           1
                        (      69.470 eV)
   115     115       --        21.603 au  Pa            1.00      5 F:xyz           1
                        (     587.835 eV)
   116     116      2.000     -13.085 au  Pa            1.00      1 F:z2x           1
                        (    -356.050 eV)
   117     117      0.286      -0.042 au  Pa            1.00      2 F:z2x           1
                        (      -1.139 eV)
   118     118       --         0.419 au  Pa            1.00      3 F:z2x           1
                        (      11.400 eV)
   119     119       --         2.553 au  Pa            1.00      4 F:z2x           1
                        (      69.470 eV)
   120     120       --        21.603 au  Pa            1.00      5 F:z2x           1
                        (     587.835 eV)
   121     121      2.000     -13.085 au  Pa            1.00      1 F:z2y           1
                        (    -356.050 eV)
   122     122      0.286      -0.042 au  Pa            1.00      2 F:z2y           1
                        (      -1.139 eV)
   123     123       --         0.419 au  Pa            1.00      3 F:z2y           1
                        (      11.400 eV)
   124     124       --         2.553 au  Pa            1.00      4 F:z2y           1
                        (      69.470 eV)
   125     125       --        21.603 au  Pa            1.00      5 F:z2y           1
                        (     587.835 eV)
   126     126      2.000     -13.085 au  Pa            1.00      1 F:x             1
                        (    -356.050 eV)
   127     127      0.286      -0.042 au  Pa            1.00      2 F:x             1
                        (      -1.139 eV)
   128     128       --         0.419 au  Pa            1.00      3 F:x             1
                        (      11.400 eV)
   129     129       --         2.553 au  Pa            1.00      4 F:x             1
                        (      69.470 eV)
   130     130       --        21.603 au  Pa            1.00      5 F:x             1
                        (     587.835 eV)
   131     131      2.000     -13.085 au  Pa            1.00      1 F:y             1
                        (    -356.050 eV)
   132     132      0.286      -0.042 au  Pa            1.00      2 F:y             1
                        (      -1.139 eV)
   133     133       --         0.419 au  Pa            1.00      3 F:y             1
                        (      11.400 eV)
   134     134       --         2.553 au  Pa            1.00      4 F:y             1
                        (      69.470 eV)
   135     135       --        21.603 au  Pa            1.00      5 F:y             1
                        (     587.835 eV)
   136     136      2.000     -14.492 au  N             1.00      1 S               2
                        (    -394.357 eV)
   137     137      2.000      -0.758 au  N             1.00      2 S               2
                        (     -20.628 eV)
   138     138       --         0.552 au  N             1.00      3 S               2
                        (      15.032 eV)
   139     139       --         6.986 au  N             1.00      4 S               2
                        (     190.090 eV)
   140     140       --        63.878 au  N             1.00      5 S               2
                        (    1738.204 eV)
   141     141      1.000      -0.269 au  N             1.00      1 P:x             2
                        (      -7.330 eV)
   142     142       --         0.311 au  N             1.00      2 P:x             2
                        (       8.459 eV)
   143     143       --         3.372 au  N             1.00      3 P:x             2
                        (      91.752 eV)
   144     144      1.000      -0.269 au  N             1.00      1 P:y             2
                        (      -7.330 eV)
   145     145       --         0.311 au  N             1.00      2 P:y             2
                        (       8.459 eV)
   146     146       --         3.372 au  N             1.00      3 P:y             2
                        (      91.752 eV)
   147     147      1.000      -0.269 au  N             1.00      1 P:z             2
                        (      -7.330 eV)
   148     148       --         0.311 au  N             1.00      2 P:z             2
                        (       8.459 eV)
   149     149       --         3.372 au  N             1.00      3 P:z             2
                        (      91.752 eV)
   150     150       --         1.300 au  N             1.00      1 D:z2            2
                        (      35.363 eV)
   151     151       --         1.300 au  N             1.00      1 D:x2-y2         2
                        (      35.363 eV)
   152     152       --         1.300 au  N             1.00      1 D:xy            2
                        (      35.363 eV)
   153     153       --         1.300 au  N             1.00      1 D:xz            2
                        (      35.363 eV)
   154     154       --         1.300 au  N             1.00      1 D:yz            2
                        (      35.363 eV)
   155     155       --         4.087 au  N             1.00      1 F:z3            2
                        (     111.225 eV)
   156     156       --         4.087 au  N             1.00      1 F:z             2
                        (     111.225 eV)
   157     157       --         4.087 au  N             1.00      1 F:xyz           2
                        (     111.225 eV)
   158     158       --         4.087 au  N             1.00      1 F:z2x           2
                        (     111.225 eV)
   159     159       --         4.087 au  N             1.00      1 F:z2y           2
                        (     111.225 eV)
   160     160       --         4.087 au  N             1.00      1 F:x             2
                        (     111.225 eV)
   161     161       --         4.087 au  N             1.00      1 F:y             2
                        (     111.225 eV)
   162     162      1.000      -0.244 au  H             1.00      1 S               3
                        (      -6.641 eV)
   163     163       --         0.104 au  H             1.00      2 S               3
                        (       2.836 eV)
   164     164       --         1.564 au  H             1.00      3 S               3
                        (      42.560 eV)
   165     165       --         0.436 au  H             1.00      1 P:x             3
                        (      11.864 eV)
   166     166       --         0.436 au  H             1.00      1 P:y             3
                        (      11.864 eV)
   167     167       --         0.436 au  H             1.00      1 P:z             3
                        (      11.864 eV)
   168     168       --         2.617 au  H             1.00      1 D:z2            3
                        (      71.221 eV)
   169     169       --         2.617 au  H             1.00      1 D:x2-y2         3
                        (      71.221 eV)
   170     170       --         2.617 au  H             1.00      1 D:xy            3
                        (      71.221 eV)
   171     171       --         2.617 au  H             1.00      1 D:xz            3
                        (      71.221 eV)
   172     172       --         2.617 au  H             1.00      1 D:yz            3
                        (      71.221 eV)
   173     173      1.000      -0.244 au  H             1.00      1 S               4
                        (      -6.641 eV)
   174     174       --         0.104 au  H             1.00      2 S               4
                        (       2.836 eV)
   175     175       --         1.564 au  H             1.00      3 S               4
                        (      42.560 eV)
   176     176       --         0.436 au  H             1.00      1 P:x             4
                        (      11.864 eV)
   177     177       --         0.436 au  H             1.00      1 P:y             4
                        (      11.864 eV)
   178     178       --         0.436 au  H             1.00      1 P:z             4
                        (      11.864 eV)
   179     179       --         2.617 au  H             1.00      1 D:z2            4
                        (      71.221 eV)
   180     180       --         2.617 au  H             1.00      1 D:x2-y2         4
                        (      71.221 eV)
   181     181       --         2.617 au  H             1.00      1 D:xy            4
                        (      71.221 eV)
   182     182       --         2.617 au  H             1.00      1 D:xz            4
                        (      71.221 eV)
   183     183       --         2.617 au  H             1.00      1 D:yz            4
                        (      71.221 eV)
   184     184      1.000      -0.244 au  H             1.00      1 S               5
                        (      -6.641 eV)
   185     185       --         0.104 au  H             1.00      2 S               5
                        (       2.836 eV)
   186     186       --         1.564 au  H             1.00      3 S               5
                        (      42.560 eV)
   187     187       --         0.436 au  H             1.00      1 P:x             5
                        (      11.864 eV)
   188     188       --         0.436 au  H             1.00      1 P:y             5
                        (      11.864 eV)
   189     189       --         0.436 au  H             1.00      1 P:z             5
                        (      11.864 eV)
   190     190       --         2.617 au  H             1.00      1 D:z2            5
                        (      71.221 eV)
   191     191       --         2.617 au  H             1.00      1 D:x2-y2         5
                        (      71.221 eV)
   192     192       --         2.617 au  H             1.00      1 D:xy            5
                        (      71.221 eV)
   193     193       --         2.617 au  H             1.00      1 D:xz            5
                        (      71.221 eV)
   194     194       --         2.617 au  H             1.00      1 D:yz            5
                        (      71.221 eV)
   195     195      1.000      -0.244 au  H             1.00      1 S               6
                        (      -6.641 eV)
   196     196       --         0.104 au  H             1.00      2 S               6
                        (       2.836 eV)
   197     197       --         1.564 au  H             1.00      3 S               6
                        (      42.560 eV)
   198     198       --         0.436 au  H             1.00      1 P:x             6
                        (      11.864 eV)
   199     199       --         0.436 au  H             1.00      1 P:y             6
                        (      11.864 eV)
   200     200       --         0.436 au  H             1.00      1 P:z             6
                        (      11.864 eV)
   201     201       --         2.617 au  H             1.00      1 D:z2            6
                        (      71.221 eV)
   202     202       --         2.617 au  H             1.00      1 D:x2-y2         6
                        (      71.221 eV)
   203     203       --         2.617 au  H             1.00      1 D:xy            6
                        (      71.221 eV)
   204     204       --         2.617 au  H             1.00      1 D:xz            6
                        (      71.221 eV)
   205     205       --         2.617 au  H             1.00      1 D:yz            6
                        (      71.221 eV)
   206     206      2.000     -19.315 au  O             1.00      1 S               7
                        (    -525.599 eV)
   207     207      2.000      -0.972 au  O             1.00      2 S               7
                        (     -26.457 eV)
   208     208       --         0.838 au  O             1.00      3 S               7
                        (      22.795 eV)
   209     209       --        13.598 au  O             1.00      4 S               7
                        (     370.019 eV)
   210     210       --       122.184 au  O             1.00      5 S               7
                        (    3324.790 eV)
   211     211      1.333      -0.361 au  O             1.00      1 P:x             7
                        (      -9.818 eV)
   212     212       --         0.380 au  O             1.00      2 P:x             7
                        (      10.337 eV)
   213     213       --         3.931 au  O             1.00      3 P:x             7
                        (     106.958 eV)
   214     214      1.333      -0.361 au  O             1.00      1 P:y             7
                        (      -9.818 eV)
   215     215       --         0.380 au  O             1.00      2 P:y             7
                        (      10.337 eV)
   216     216       --         3.931 au  O             1.00      3 P:y             7
                        (     106.958 eV)
   217     217      1.333      -0.361 au  O             1.00      1 P:z             7
                        (      -9.818 eV)
   218     218       --         0.380 au  O             1.00      2 P:z             7
                        (      10.337 eV)
   219     219       --         3.931 au  O             1.00      3 P:z             7
                        (     106.958 eV)
   220     220       --         1.117 au  O             1.00      1 D:z2            7
                        (      30.399 eV)
   221     221       --         1.117 au  O             1.00      1 D:x2-y2         7
                        (      30.399 eV)
   222     222       --         1.117 au  O             1.00      1 D:xy            7
                        (      30.399 eV)
   223     223       --         1.117 au  O             1.00      1 D:xz            7
                        (      30.399 eV)
   224     224       --         1.117 au  O             1.00      1 D:yz            7
                        (      30.399 eV)
   225     225       --         3.432 au  O             1.00      1 F:z3            7
                        (      93.382 eV)
   226     226       --         3.432 au  O             1.00      1 F:z             7
                        (      93.382 eV)
   227     227       --         3.432 au  O             1.00      1 F:xyz           7
                        (      93.382 eV)
   228     228       --         3.432 au  O             1.00      1 F:z2x           7
                        (      93.382 eV)
   229     229       --         3.432 au  O             1.00      1 F:z2y           7
                        (      93.382 eV)
   230     230       --         3.432 au  O             1.00      1 F:x             7
                        (      93.382 eV)
   231     231       --         3.432 au  O             1.00      1 F:y             7
                        (      93.382 eV)
   232     232      2.000     -19.315 au  O             1.00      1 S               8
                        (    -525.599 eV)
   233     233      2.000      -0.972 au  O             1.00      2 S               8
                        (     -26.457 eV)
   234     234       --         0.838 au  O             1.00      3 S               8
                        (      22.795 eV)
   235     235       --        13.598 au  O             1.00      4 S               8
                        (     370.019 eV)
   236     236       --       122.184 au  O             1.00      5 S               8
                        (    3324.790 eV)
   237     237      1.333      -0.361 au  O             1.00      1 P:x             8
                        (      -9.818 eV)
   238     238       --         0.380 au  O             1.00      2 P:x             8
                        (      10.337 eV)
   239     239       --         3.931 au  O             1.00      3 P:x             8
                        (     106.958 eV)
   240     240      1.333      -0.361 au  O             1.00      1 P:y             8
                        (      -9.818 eV)
   241     241       --         0.380 au  O             1.00      2 P:y             8
                        (      10.337 eV)
   242     242       --         3.931 au  O             1.00      3 P:y             8
                        (     106.958 eV)
   243     243      1.333      -0.361 au  O             1.00      1 P:z             8
                        (      -9.818 eV)
   244     244       --         0.380 au  O             1.00      2 P:z             8
                        (      10.337 eV)
   245     245       --         3.931 au  O             1.00      3 P:z             8
                        (     106.958 eV)
   246     246       --         1.117 au  O             1.00      1 D:z2            8
                        (      30.399 eV)
   247     247       --         1.117 au  O             1.00      1 D:x2-y2         8
                        (      30.399 eV)
   248     248       --         1.117 au  O             1.00      1 D:xy            8
                        (      30.399 eV)
   249     249       --         1.117 au  O             1.00      1 D:xz            8
                        (      30.399 eV)
   250     250       --         1.117 au  O             1.00      1 D:yz            8
                        (      30.399 eV)
   251     251       --         3.432 au  O             1.00      1 F:z3            8
                        (      93.382 eV)
   252     252       --         3.432 au  O             1.00      1 F:z             8
                        (      93.382 eV)
   253     253       --         3.432 au  O             1.00      1 F:xyz           8
                        (      93.382 eV)
   254     254       --         3.432 au  O             1.00      1 F:z2x           8
                        (      93.382 eV)
   255     255       --         3.432 au  O             1.00      1 F:z2y           8
                        (      93.382 eV)
   256     256       --         3.432 au  O             1.00      1 F:x             8
                        (      93.382 eV)
   257     257       --         3.432 au  O             1.00      1 F:y             8
                        (      93.382 eV)
   258     258      2.000     -19.315 au  O             1.00      1 S               9
                        (    -525.599 eV)
   259     259      2.000      -0.972 au  O             1.00      2 S               9
                        (     -26.457 eV)
   260     260       --         0.838 au  O             1.00      3 S               9
                        (      22.795 eV)
   261     261       --        13.598 au  O             1.00      4 S               9
                        (     370.019 eV)
   262     262       --       122.184 au  O             1.00      5 S               9
                        (    3324.790 eV)
   263     263      1.333      -0.361 au  O             1.00      1 P:x             9
                        (      -9.818 eV)
   264     264       --         0.380 au  O             1.00      2 P:x             9
                        (      10.337 eV)
   265     265       --         3.931 au  O             1.00      3 P:x             9
                        (     106.958 eV)
   266     266      1.333      -0.361 au  O             1.00      1 P:y             9
                        (      -9.818 eV)
   267     267       --         0.380 au  O             1.00      2 P:y             9
                        (      10.337 eV)
   268     268       --         3.931 au  O             1.00      3 P:y             9
                        (     106.958 eV)
   269     269      1.333      -0.361 au  O             1.00      1 P:z             9
                        (      -9.818 eV)
   270     270       --         0.380 au  O             1.00      2 P:z             9
                        (      10.337 eV)
   271     271       --         3.931 au  O             1.00      3 P:z             9
                        (     106.958 eV)
   272     272       --         1.117 au  O             1.00      1 D:z2            9
                        (      30.399 eV)
   273     273       --         1.117 au  O             1.00      1 D:x2-y2         9
                        (      30.399 eV)
   274     274       --         1.117 au  O             1.00      1 D:xy            9
                        (      30.399 eV)
   275     275       --         1.117 au  O             1.00      1 D:xz            9
                        (      30.399 eV)
   276     276       --         1.117 au  O             1.00      1 D:yz            9
                        (      30.399 eV)
   277     277       --         3.432 au  O             1.00      1 F:z3            9
                        (      93.382 eV)
   278     278       --         3.432 au  O             1.00      1 F:z             9
                        (      93.382 eV)
   279     279       --         3.432 au  O             1.00      1 F:xyz           9
                        (      93.382 eV)
   280     280       --         3.432 au  O             1.00      1 F:z2x           9
                        (      93.382 eV)
   281     281       --         3.432 au  O             1.00      1 F:z2y           9
                        (      93.382 eV)
   282     282       --         3.432 au  O             1.00      1 F:x             9
                        (      93.382 eV)
   283     283       --         3.432 au  O             1.00      1 F:y             9
                        (      93.382 eV)
   284     284      2.000     -19.315 au  O             1.00      1 S              10
                        (    -525.599 eV)
   285     285      2.000      -0.972 au  O             1.00      2 S              10
                        (     -26.457 eV)
   286     286       --         0.838 au  O             1.00      3 S              10
                        (      22.795 eV)
   287     287       --        13.598 au  O             1.00      4 S              10
                        (     370.019 eV)
   288     288       --       122.184 au  O             1.00      5 S              10
                        (    3324.790 eV)
   289     289      1.333      -0.361 au  O             1.00      1 P:x            10
                        (      -9.818 eV)
   290     290       --         0.380 au  O             1.00      2 P:x            10
                        (      10.337 eV)
   291     291       --         3.931 au  O             1.00      3 P:x            10
                        (     106.958 eV)
   292     292      1.333      -0.361 au  O             1.00      1 P:y            10
                        (      -9.818 eV)
   293     293       --         0.380 au  O             1.00      2 P:y            10
                        (      10.337 eV)
   294     294       --         3.931 au  O             1.00      3 P:y            10
                        (     106.958 eV)
   295     295      1.333      -0.361 au  O             1.00      1 P:z            10
                        (      -9.818 eV)
   296     296       --         0.380 au  O             1.00      2 P:z            10
                        (      10.337 eV)
   297     297       --         3.931 au  O             1.00      3 P:z            10
                        (     106.958 eV)
   298     298       --         1.117 au  O             1.00      1 D:z2           10
                        (      30.399 eV)
   299     299       --         1.117 au  O             1.00      1 D:x2-y2        10
                        (      30.399 eV)
   300     300       --         1.117 au  O             1.00      1 D:xy           10
                        (      30.399 eV)
   301     301       --         1.117 au  O             1.00      1 D:xz           10
                        (      30.399 eV)
   302     302       --         1.117 au  O             1.00      1 D:yz           10
                        (      30.399 eV)
   303     303       --         3.432 au  O             1.00      1 F:z3           10
                        (      93.382 eV)
   304     304       --         3.432 au  O             1.00      1 F:z            10
                        (      93.382 eV)
   305     305       --         3.432 au  O             1.00      1 F:xyz          10
                        (      93.382 eV)
   306     306       --         3.432 au  O             1.00      1 F:z2x          10
                        (      93.382 eV)
   307     307       --         3.432 au  O             1.00      1 F:z2y          10
                        (      93.382 eV)
   308     308       --         3.432 au  O             1.00      1 F:x            10
                        (      93.382 eV)
   309     309       --         3.432 au  O             1.00      1 F:y            10
                        (      93.382 eV)
   310     310      2.000     -10.350 au  C             1.00      1 S              11
                        (    -281.645 eV)
   311     311      2.000      -0.564 au  C             1.00      2 S              11
                        (     -15.357 eV)
   312     312       --         0.402 au  C             1.00      3 S              11
                        (      10.927 eV)
   313     313       --         5.502 au  C             1.00      4 S              11
                        (     149.716 eV)
   314     314       --        50.237 au  C             1.00      5 S              11
                        (    1367.023 eV)
   315     315      0.667      -0.188 au  C             1.00      1 P:x            11
                        (      -5.107 eV)
   316     316       --         0.191 au  C             1.00      2 P:x            11
                        (       5.205 eV)
   317     317       --         2.088 au  C             1.00      3 P:x            11
                        (      56.818 eV)
   318     318      0.667      -0.188 au  C             1.00      1 P:y            11
                        (      -5.107 eV)
   319     319       --         0.191 au  C             1.00      2 P:y            11
                        (       5.205 eV)
   320     320       --         2.088 au  C             1.00      3 P:y            11
                        (      56.818 eV)
   321     321      0.667      -0.188 au  C             1.00      1 P:z            11
                        (      -5.107 eV)
   322     322       --         0.191 au  C             1.00      2 P:z            11
                        (       5.205 eV)
   323     323       --         2.088 au  C             1.00      3 P:z            11
                        (      56.818 eV)
   324     324       --         1.292 au  C             1.00      1 D:z2           11
                        (      35.151 eV)
   325     325       --         1.292 au  C             1.00      1 D:x2-y2        11
                        (      35.151 eV)
   326     326       --         1.292 au  C             1.00      1 D:xy           11
                        (      35.151 eV)
   327     327       --         1.292 au  C             1.00      1 D:xz           11
                        (      35.151 eV)
   328     328       --         1.292 au  C             1.00      1 D:yz           11
                        (      35.151 eV)
   329     329       --         4.084 au  C             1.00      1 F:z3           11
                        (     111.127 eV)
   330     330       --         4.084 au  C             1.00      1 F:z            11
                        (     111.127 eV)
   331     331       --         4.084 au  C             1.00      1 F:xyz          11
                        (     111.127 eV)
   332     332       --         4.084 au  C             1.00      1 F:z2x          11
                        (     111.127 eV)
   333     333       --         4.084 au  C             1.00      1 F:z2y          11
                        (     111.127 eV)
   334     334       --         4.084 au  C             1.00      1 F:x            11
                        (     111.127 eV)
   335     335       --         4.084 au  C             1.00      1 F:y            11
                        (     111.127 eV)
   336     336      2.000     -89.200 au  S             1.00      1 S              12
                        (   -2427.259 eV)
   337     337      2.000      -8.042 au  S             1.00      2 S              12
                        (    -218.844 eV)
   338     338      2.000      -0.695 au  S             1.00      3 S              12
                        (     -18.914 eV)
   339     339       --         0.217 au  S             1.00      4 S              12
                        (       5.908 eV)
   340     340       --         2.090 au  S             1.00      5 S              12
                        (      56.875 eV)
   341     341       --        12.721 au  S             1.00      6 S              12
                        (     346.165 eV)
   342     342       --       192.681 au  S             1.00      7 S              12
                        (    5243.115 eV)
   343     343      2.000      -5.951 au  S             1.00      1 P:x            12
                        (    -161.937 eV)
   344     344      1.333      -0.271 au  S             1.00      2 P:x            12
                        (      -7.386 eV)
   345     345       --         0.147 au  S             1.00      3 P:x            12
                        (       3.991 eV)
   346     346       --         1.258 au  S             1.00      4 P:x            12
                        (      34.241 eV)
   347     347       --        13.143 au  S             1.00      5 P:x            12
                        (     357.653 eV)
   348     348      2.000      -5.951 au  S             1.00      1 P:y            12
                        (    -161.937 eV)
   349     349      1.333      -0.271 au  S             1.00      2 P:y            12
                        (      -7.386 eV)
   350     350       --         0.147 au  S             1.00      3 P:y            12
                        (       3.991 eV)
   351     351       --         1.258 au  S             1.00      4 P:y            12
                        (      34.241 eV)
   352     352       --        13.143 au  S             1.00      5 P:y            12
                        (     357.653 eV)
   353     353      2.000      -5.951 au  S             1.00      1 P:z            12
                        (    -161.937 eV)
   354     354      1.333      -0.271 au  S             1.00      2 P:z            12
                        (      -7.386 eV)
   355     355       --         0.147 au  S             1.00      3 P:z            12
                        (       3.991 eV)
   356     356       --         1.258 au  S             1.00      4 P:z            12
                        (      34.241 eV)
   357     357       --        13.143 au  S             1.00      5 P:z            12
                        (     357.653 eV)
   358     358       --         0.481 au  S             1.00      1 D:z2           12
                        (      13.094 eV)
   359     359       --         0.481 au  S             1.00      1 D:x2-y2        12
                        (      13.094 eV)
   360     360       --         0.481 au  S             1.00      1 D:xy           12
                        (      13.094 eV)
   361     361       --         0.481 au  S             1.00      1 D:xz           12
                        (      13.094 eV)
   362     362       --         0.481 au  S             1.00      1 D:yz           12
                        (      13.094 eV)
   363     363       --         1.329 au  S             1.00      1 F:z3           12
                        (      36.153 eV)
   364     364       --         1.329 au  S             1.00      1 F:z            12
                        (      36.153 eV)
   365     365       --         1.329 au  S             1.00      1 F:xyz          12
                        (      36.153 eV)
   366     366       --         1.329 au  S             1.00      1 F:z2x          12
                        (      36.153 eV)
   367     367       --         1.329 au  S             1.00      1 F:z2y          12
                        (      36.153 eV)
   368     368       --         1.329 au  S             1.00      1 F:x            12
                        (      36.153 eV)
   369     369       --         1.329 au  S             1.00      1 F:y            12
                        (      36.153 eV)



 ================================
 (Slater-type)  F U N C T I O N S  ***  (Basis and Fit)  ***
 ================================
  

 Atom Type    1  (Pa)
 ==============

 Valence Basis Sets:  43
 -----------------------
   1 S 1028.000000
   1 S  240.000000
   1 S  107.000000
   2 S  131.500000
   2 S   46.500000
   3 S   59.100000
   3 S   25.450000
   4 S   15.550000
   4 S   11.050000
   5 S   10.200000
   5 S    7.100000
   6 S    4.950000
   6 S    3.250000
   7 S    2.350000
   7 S    1.550000
   7 S    1.020000
   2 P  240.000000
   2 P   84.000000
   2 P   43.600000
   3 P   24.750000
   3 P   17.850000
   4 P   17.650000
   4 P   12.100000
   5 P    8.500000
   5 P    5.900000
   6 P    4.400000
   6 P    3.000000
   6 P    2.100000
   3 D   33.750000
   3 D   21.750000
   4 D   15.300000
   4 D   10.450000
   5 D    7.150000
   5 D    4.600000
   6 D    3.000000
   6 D    1.700000
   6 D    0.980000
   4 F   17.100000
   4 F    9.350000
   5 F    5.850000
   5 F    3.150000
   5 F    1.550000
   7 P    1.550000

 Charge Fitting Sets (for the computation of the Coulomb Potential):  87
 -----------------------------------------------------------------------
   1 S 2056.000000
   1 S 1549.519000
   1 S 1167.806000
   1 S  880.126000
   1 S  663.313000
   1 S  499.911000
   1 S  376.761000
   1 S  283.949000
   1 S  214.000000
   1 S  127.280000
   2 S  140.220000
   2 S   93.850000
   3 S   92.230000
   3 S   65.710000
   4 S   61.900000
   4 S   45.910000
   5 S   42.420000
   5 S   32.370000
   6 S   29.610000
   6 S   23.090000
   7 S   21.000000
   7 S   16.670000
   8 S   15.120000
   8 S   12.170000
   9 S   11.020000
   9 S    8.970000
  10 S    8.120000
  10 S    6.680000
  11 S    6.050000
  11 S    5.020000
  12 S    4.550000
  12 S    3.800000
  12 S    3.180000
  13 S    2.880000
  13 S    2.420000
  13 S    2.040000
   2 P  150.600000
   3 P  125.870000
   4 P  103.260000
   5 P   84.350000
   6 P   68.960000
   7 P   56.560000
   7 P   40.600000
   8 P   33.430000
   8 P   24.490000
   9 P   20.250000
   9 P   15.090000
  10 P   12.530000
  10 P    9.470000
  11 P    7.900000
  11 P    6.040000
  12 P    5.060000
  12 P    3.910000
  13 P    3.290000
  13 P    2.570000
   3 D  128.750000
   4 D   91.090000
   5 D   65.210000
   6 D   47.270000
   7 D   34.690000
   8 D   25.740000
   9 D   19.290000
   9 D   13.060000
  10 D    9.880000
  10 D    6.820000
  11 D    5.210000
  11 D    3.650000
  12 D    2.810000
  12 D    2.000000
   4 F  116.350000
   5 F   72.360000
   6 F   46.140000
   7 F   30.070000
   8 F   19.970000
   9 F   13.480000
  10 F    9.240000
  10 F    5.790000
  11 F    4.020000
  11 F    2.570000
   5 G   52.950000
   6 G   31.380000
   7 G   19.110000
   8 G   11.920000
   9 G    7.580000
  10 G    4.910000
  11 G    3.230000
  11 G    1.960000

 Atom Type    2  (N)
 ==============

 Valence Basis Sets:  10
 -----------------------
   1 S    8.740000
   1 S    5.900000
   2 S    5.150000
   2 S    2.500000
   2 S    1.500000
   2 P    3.680000
   2 P    1.880000
   2 P    1.000000
   3 D    2.200000
   4 F    3.300000

 Charge Fitting Sets (for the computation of the Coulomb Potential):  22
 -----------------------------------------------------------------------
   1 S   17.480000
   2 S   20.150000
   2 S   13.990000
   2 S    9.710000
   2 S    6.740000
   3 S    6.860000
   3 S    5.040000
   3 S    3.700000
   3 S    2.720000
   3 S    2.000000
   2 P   11.320000
   2 P    6.730000
   3 P    5.920000
   3 P    3.820000
   3 P    2.460000
   3 D    8.100000
   3 D    5.080000
   3 D    3.190000
   3 D    2.000000
   4 F    5.800000
   4 F    3.600000
   5 G    4.500000

 Atom Type    3  (H)
 ==============

 Valence Basis Sets:   5
 -----------------------
   1 S    0.690000
   1 S    0.920000
   1 S    1.580000
   2 P    1.250000
   3 D    2.500000

 Charge Fitting Sets (for the computation of the Coulomb Potential):  11
 -----------------------------------------------------------------------
   1 S    3.160000
   1 S    2.090000
   1 S    1.380000
   2 S    1.500000
   2 P    4.000000
   2 P    2.650000
   2 P    1.750000
   3 D    4.000000
   3 D    2.500000
   4 F    3.000000
   5 G    4.000000

 Atom Type    4  (O)
 ==============

 Valence Basis Sets:  10
 -----------------------
   1 S    9.800000
   1 S    6.800000
   2 S    7.580000
   2 S    2.880000
   2 S    1.720000
   2 P    4.080000
   2 P    2.080000
   2 P    1.120000
   3 D    2.000000
   4 F    3.000000

 Charge Fitting Sets (for the computation of the Coulomb Potential):  22
 -----------------------------------------------------------------------
   1 S   19.600000
   2 S   22.600000
   2 S   15.680000
   2 S   10.890000
   2 S    7.560000
   3 S    7.690000
   3 S    5.650000
   3 S    4.150000
   3 S    3.050000
   3 S    2.240000
   2 P   12.860000
   2 P    7.680000
   3 P    6.780000
   3 P    4.390000
   3 P    2.840000
   3 D    8.800000
   3 D    5.580000
   3 D    3.530000
   3 D    2.240000
   4 F    6.200000
   4 F    3.700000
   5 G    4.500000

 Atom Type    5  (C)
 ==============

 Valence Basis Sets:  10
 -----------------------
   1 S    7.680000
   1 S    5.000000
   2 S    1.280000
   2 S    2.100000
   2 S    4.600000
   2 P    0.820000
   2 P    1.480000
   2 P    2.940000
   3 D    2.200000
   4 F    3.300000

 Charge Fitting Sets (for the computation of the Coulomb Potential):  22
 -----------------------------------------------------------------------
   1 S   15.360000
   2 S   17.530000
   2 S   12.070000
   2 S    8.310000
   2 S    5.730000
   3 S    5.780000
   3 S    4.220000
   3 S    3.080000
   3 S    2.250000
   3 S    1.640000
   2 P    9.880000
   2 P    5.800000
   3 P    5.050000
   3 P    3.230000
   3 P    2.060000
   3 D    7.200000
   3 D    4.400000
   3 D    2.690000
   3 D    1.640000
   4 F    5.400000
   4 F    3.550000
   5 G    4.500000

 Atom Type    6  (S)
 ==============

 Valence Basis Sets:  14
 -----------------------
   1 S   19.400000
   1 S   14.350000
   2 S    5.900000
   2 S    4.250000
   2 P    8.050000
   2 P    4.550000
   3 S    3.450000
   3 S    2.250000
   3 S    1.500000
   3 P    2.650000
   3 P    1.600000
   3 P    1.000000
   3 D    2.100000
   4 F    2.100000

 Charge Fitting Sets (for the computation of the Coulomb Potential):  30
 -----------------------------------------------------------------------
   1 S   38.800000
   1 S   23.350000
   2 S   26.020000
   2 S   17.570000
   3 S   17.420000
   3 S   12.500000
   3 S    8.980000
   4 S    8.520000
   4 S    6.360000
   4 S    4.750000
   5 S    4.420000
   5 S    3.390000
   5 S    2.600000
   5 S    2.000000
   2 P   27.450000
   3 P   20.250000
   4 P   14.920000
   4 P    8.780000
   5 P    6.520000
   5 P    4.040000
   5 P    2.500000
   3 D   20.900000
   4 D   14.560000
   4 D    8.130000
   5 D    5.740000
   5 D    3.390000
   5 D    2.000000
   4 F    5.000000
   4 F    3.000000
   5 G    3.620000


 BAS: List of all Elementary Cartesian Basis Functions
 =====================================================

 The numbering in the list below (to the right of the function characteristics) is referred
 to in print-outs of MO eigenvectors and Mulliken populations in the BAS representation
 (as contrasted to the SFO representation).

 Notes:
 1. The functions are characterized by a polynomial prefactor (powers of x,y,z and r) and
    an exponential decay factor alpha.
 2. Since the basis sets are specific for an atom TYPE, the individual functions occur on
    all atoms of that type.
 3. The word 'Core' in the left margin signals that it is a Core Function (CF) : not a
    degree of freedom in the valence set, but only used to ensure orthogonalization of
    the other valence basis functions on the frozen Core Orbitals.


 (power of) X  Y  Z  R     Alpha  on Atom
            ==========     =====     ==========

 Pa                                   1
                                  ---------------------------------------------------------------------------
            0  0  0  0  1028.000      1
            0  0  0  0   240.000      2
            0  0  0  0   107.000      3
            0  0  0  1   131.500      4
            0  0  0  1    46.500      5
            0  0  0  2    59.100      6
            0  0  0  2    25.450      7
            0  0  0  3    15.550      8
            0  0  0  3    11.050      9
            0  0  0  4    10.200     10
            0  0  0  4     7.100     11
            0  0  0  5     4.950     12
            0  0  0  5     3.250     13
            0  0  0  6     2.350     14
            0  0  0  6     1.550     15
            0  0  0  6     1.020     16
            1  0  0  0   240.000     17
            0  1  0  0   240.000     18
            0  0  1  0   240.000     19
            1  0  0  0    84.000     20
            0  1  0  0    84.000     21
            0  0  1  0    84.000     22
            1  0  0  0    43.600     23
            0  1  0  0    43.600     24
            0  0  1  0    43.600     25
            1  0  0  1    24.750     26
            0  1  0  1    24.750     27
            0  0  1  1    24.750     28
            1  0  0  1    17.850     29
            0  1  0  1    17.850     30
            0  0  1  1    17.850     31
            1  0  0  2    17.650     32
            0  1  0  2    17.650     33
            0  0  1  2    17.650     34
            1  0  0  2    12.100     35
            0  1  0  2    12.100     36
            0  0  1  2    12.100     37
            1  0  0  3     8.500     38
            0  1  0  3     8.500     39
            0  0  1  3     8.500     40
            1  0  0  3     5.900     41
            0  1  0  3     5.900     42
            0  0  1  3     5.900     43
            1  0  0  4     4.400     44
            0  1  0  4     4.400     45
            0  0  1  4     4.400     46
            1  0  0  4     3.000     47
            0  1  0  4     3.000     48
            0  0  1  4     3.000     49
            1  0  0  4     2.100     50
            0  1  0  4     2.100     51
            0  0  1  4     2.100     52
            2  0  0  0    33.750     53
            1  1  0  0    33.750     54
            1  0  1  0    33.750     55
            0  2  0  0    33.750     56
            0  1  1  0    33.750     57
            0  0  2  0    33.750     58
            2  0  0  0    21.750     59
            1  1  0  0    21.750     60
            1  0  1  0    21.750     61
            0  2  0  0    21.750     62
            0  1  1  0    21.750     63
            0  0  2  0    21.750     64
            2  0  0  1    15.300     65
            1  1  0  1    15.300     66
            1  0  1  1    15.300     67
            0  2  0  1    15.300     68
            0  1  1  1    15.300     69
            0  0  2  1    15.300     70
            2  0  0  1    10.450     71
            1  1  0  1    10.450     72
            1  0  1  1    10.450     73
            0  2  0  1    10.450     74
            0  1  1  1    10.450     75
            0  0  2  1    10.450     76
            2  0  0  2     7.150     77
            1  1  0  2     7.150     78
            1  0  1  2     7.150     79
            0  2  0  2     7.150     80
            0  1  1  2     7.150     81
            0  0  2  2     7.150     82
            2  0  0  2     4.600     83
            1  1  0  2     4.600     84
            1  0  1  2     4.600     85
            0  2  0  2     4.600     86
            0  1  1  2     4.600     87
            0  0  2  2     4.600     88
            2  0  0  3     3.000     89
            1  1  0  3     3.000     90
            1  0  1  3     3.000     91
            0  2  0  3     3.000     92
            0  1  1  3     3.000     93
            0  0  2  3     3.000     94
            2  0  0  3     1.700     95
            1  1  0  3     1.700     96
            1  0  1  3     1.700     97
            0  2  0  3     1.700     98
            0  1  1  3     1.700     99
            0  0  2  3     1.700    100
            2  0  0  3     0.980    101
            1  1  0  3     0.980    102
            1  0  1  3     0.980    103
            0  2  0  3     0.980    104
            0  1  1  3     0.980    105
            0  0  2  3     0.980    106
            3  0  0  0    17.100    107
            2  1  0  0    17.100    108
            2  0  1  0    17.100    109
            1  2  0  0    17.100    110
            1  1  1  0    17.100    111
            1  0  2  0    17.100    112
            0  3  0  0    17.100    113
            0  2  1  0    17.100    114
            0  1  2  0    17.100    115
            0  0  3  0    17.100    116
            3  0  0  0     9.350    117
            2  1  0  0     9.350    118
            2  0  1  0     9.350    119
            1  2  0  0     9.350    120
            1  1  1  0     9.350    121
            1  0  2  0     9.350    122
            0  3  0  0     9.350    123
            0  2  1  0     9.350    124
            0  1  2  0     9.350    125
            0  0  3  0     9.350    126
            3  0  0  1     5.850    127
            2  1  0  1     5.850    128
            2  0  1  1     5.850    129
            1  2  0  1     5.850    130
            1  1  1  1     5.850    131
            1  0  2  1     5.850    132
            0  3  0  1     5.850    133
            0  2  1  1     5.850    134
            0  1  2  1     5.850    135
            0  0  3  1     5.850    136
            3  0  0  1     3.150    137
            2  1  0  1     3.150    138
            2  0  1  1     3.150    139
            1  2  0  1     3.150    140
            1  1  1  1     3.150    141
            1  0  2  1     3.150    142
            0  3  0  1     3.150    143
            0  2  1  1     3.150    144
            0  1  2  1     3.150    145
            0  0  3  1     3.150    146
            3  0  0  1     1.550    147
            2  1  0  1     1.550    148
            2  0  1  1     1.550    149
            1  2  0  1     1.550    150
            1  1  1  1     1.550    151
            1  0  2  1     1.550    152
            0  3  0  1     1.550    153
            0  2  1  1     1.550    154
            0  1  2  1     1.550    155
            0  0  3  1     1.550    156
            1  0  0  5     1.550    157
            0  1  0  5     1.550    158
            0  0  1  5     1.550    159

 N                                    2
                                  ---------------------------------------------------------------------------
            0  0  0  0     8.740    160
            0  0  0  0     5.900    161
            0  0  0  1     5.150    162
            0  0  0  1     2.500    163
            0  0  0  1     1.500    164
            1  0  0  0     3.680    165
            0  1  0  0     3.680    166
            0  0  1  0     3.680    167
            1  0  0  0     1.880    168
            0  1  0  0     1.880    169
            0  0  1  0     1.880    170
            1  0  0  0     1.000    171
            0  1  0  0     1.000    172
            0  0  1  0     1.000    173
            2  0  0  0     2.200    174
            1  1  0  0     2.200    175
            1  0  1  0     2.200    176
            0  2  0  0     2.200    177
            0  1  1  0     2.200    178
            0  0  2  0     2.200    179
            3  0  0  0     3.300    180
            2  1  0  0     3.300    181
            2  0  1  0     3.300    182
            1  2  0  0     3.300    183
            1  1  1  0     3.300    184
            1  0  2  0     3.300    185
            0  3  0  0     3.300    186
            0  2  1  0     3.300    187
            0  1  2  0     3.300    188
            0  0  3  0     3.300    189

 H                                    3    4    5    6
                                  ---------------------------------------------------------------------------
            0  0  0  0     0.690    190  202  214  226
            0  0  0  0     0.920    191  203  215  227
            0  0  0  0     1.580    192  204  216  228
[...]
     451       75.3243         0.000       
     450       75.0918         0.000       
     449       75.0918         0.000       
     448       74.6488         0.000       
     447       74.6488         0.000       
     446       73.9790         0.000       
     445       73.9790         0.000       
     444       73.7134         0.000       
     443       73.7134         0.000       
     442       73.1728         0.000       
     441       73.1728         0.000       
     440       72.9286         0.000       
     439       72.9286         0.000       
     438       72.5612         0.000       
     437       72.5612         0.000       
     436       72.0140         0.000       
     435       72.0140         0.000       
     434       71.5537         0.000       
     433       71.5537         0.000       
     432       71.3838         0.000       
     431       71.3838         0.000       
     430       70.4228         0.000       
     429       70.4228         0.000       
     428       69.4111         0.000       
     427       69.4111         0.000       
     426       68.8540         0.000       
     425       68.8540         0.000       
     424       67.3065         0.000       
     423       67.3065         0.000       
     422       66.2773         0.000       
     421       66.2773         0.000       
     420       65.1648         0.000       
     419       65.1648         0.000       
     418       63.3327         0.000       
     417       63.3327         0.000       
     416       62.0817         0.000       
     415       62.0817         0.000       
     414       58.9983         0.000       
     413       58.9983         0.000       
     412       57.8660         0.000       
     411       57.8660         0.000       
     410       57.1772         0.000       
     409       57.1772         0.000       
     408       56.7896         0.000       
     407       56.7896         0.000       
     406       55.7650         0.000       
     405       55.7650         0.000       
     404       55.1391         0.000       
     403       55.1391         0.000       
     402       53.8836         0.000       
     401       53.8836         0.000       
     400       52.2519         0.000       
     399       52.2519         0.000       
     398       51.6967         0.000       
     397       51.6967         0.000       
     396       51.1045         0.000       
     395       51.1045         0.000       
     394       50.2723         0.000       
     393       50.2723         0.000       
     392       50.0788         0.000       
     391       50.0788         0.000       
     390       49.2647         0.000       
     389       49.2647         0.000       
     388       48.5835         0.000       
     387       48.5835         0.000       
     386       48.3097         0.000       
     385       48.3097         0.000       
     384       46.6869         0.000       
     383       46.6869         0.000       
     382       46.1970         0.000       
     381       46.1970         0.000       
     380       45.7888         0.000       
     379       45.7888         0.000       
     378       44.5688         0.000       
     377       44.5688         0.000       
     376       43.9343         0.000       
     375       43.9343         0.000       
     374       43.3370         0.000       
     373       43.3370         0.000       
     372       42.5484         0.000       
     371       42.5484         0.000       
     370       41.2883         0.000       
     369       41.2883         0.000       
     368       40.8396         0.000       
     367       40.8396         0.000       
     366       40.1914         0.000       
     365       40.1914         0.000       
     364       39.1398         0.000       
     363       39.1398         0.000       
     362       38.6625         0.000       
     361       38.6625         0.000       
     360       38.3808         0.000       
     359       38.3808         0.000       
     358       38.1779         0.000       
     357       38.1779         0.000       
     356       38.1755         0.000       
     355       38.1755         0.000       
     354       37.2894         0.000       
     353       37.2894         0.000       
     352       37.1858         0.000       
     351       37.1858         0.000       
     350       37.0556         0.000       
     349       37.0556         0.000       
     348       36.9348         0.000       
     347       36.9348         0.000       
     346       36.8496         0.000       
     345       36.8496         0.000       
     344       36.1124         0.000       
     343       36.1124         0.000       
     342       35.5300         0.000       
     341       35.5300         0.000       
     340       35.3088         0.000       
     339       35.3088         0.000       
     338       34.8493         0.000       
     337       34.8493         0.000       
     336       34.6530         0.000       
     335       34.6530         0.000       
     334       34.3141         0.000       
     333       34.3141         0.000       
     332       33.9168         0.000       
     331       33.9168         0.000       
     330       33.4202         0.000       
     329       33.4202         0.000       
     328       32.4451         0.000       
     327       32.4451         0.000       
     326       32.0761         0.000       
     325       32.0761         0.000       
     324       31.3965         0.000       
     323       31.3965         0.000       
     322       30.2315         0.000       
     321       30.2315         0.000       
     320       29.6622         0.000       
     319       29.6622         0.000       
     318       28.4081         0.000       
     317       28.4081         0.000       
     316       27.6524         0.000       
     315       27.6524         0.000       
     314       26.9803         0.000       
     313       26.9803         0.000       
     312       26.6524         0.000       
     311       26.6524         0.000       
     310       26.4997         0.000       
     309       26.4997         0.000       
     308       25.7603         0.000       
     307       25.7603         0.000       
     306       25.3896         0.000       
     305       25.3896         0.000       
     304       24.6766         0.000       
     303       24.6766         0.000       
     302       24.2244         0.000       
     301       24.2244         0.000       
     300       24.1900         0.000       
     299       24.1900         0.000       
     298       23.5636         0.000       
     297       23.5636         0.000       
     296       22.7324         0.000       
     295       22.7324         0.000       
     294       22.0395         0.000       
     293       22.0395         0.000       
     292       21.3224         0.000       
     291       21.3224         0.000       
     290       19.7440         0.000       
     289       19.7440         0.000       
     288       19.3504         0.000       
     287       19.3504         0.000       
     286       18.0322         0.000       
     285       18.0322         0.000       
     284       17.3351         0.000       
     283       17.3351         0.000       
     282       16.9407         0.000       
     281       16.9407         0.000       
     280       16.8682         0.000       
     279       16.8682         0.000       
     278       16.5822         0.000       
     277       16.5822         0.000       
     276       16.3442         0.000       
     275       16.3442         0.000       
     274       15.8392         0.000       
     273       15.8392         0.000       
     272       15.6014         0.000       
     271       15.6014         0.000       
     270       15.4908         0.000       
     269       15.4908         0.000       
     268       15.3823         0.000       
     267       15.3823         0.000       
     266       15.3164         0.000       
     265       15.3164         0.000       
     264       15.1250         0.000       
     263       15.1250         0.000       
     262       15.0475         0.000       
     261       15.0475         0.000       
     260       14.7983         0.000       
     259       14.7983         0.000       
     258       14.7184         0.000       
     257       14.7184         0.000       
     256       14.4911         0.000       
     255       14.4911         0.000       
     254       13.9586         0.000       
     253       13.9586         0.000       
     252       13.8325         0.000       
     251       13.8325         0.000       
     250       13.4770         0.000       
     249       13.4770         0.000       
     248       13.2816         0.000       
     247       13.2816         0.000       
     246       13.1234         0.000       
     245       13.1234         0.000       
     244       12.8304         0.000       
     243       12.8304         0.000       
     242       12.0467         0.000       
     241       12.0467         0.000       
     240       11.8934         0.000       
     239       11.8934         0.000       
     238       11.3421         0.000       
     237       11.3421         0.000       
     236       10.2978         0.000       
     235       10.2978         0.000       
     234        9.8850         0.000       
     233        9.8850         0.000       
     232        9.6367         0.000       
     231        9.6367         0.000       
     230        9.0893         0.000       
     229        9.0893         0.000       
     228        8.7715         0.000       
     227        8.7715         0.000       
     226        7.8283         0.000       
     225        7.8283         0.000       
     224        7.7507         0.000       
     223        7.7507         0.000       
     222        7.4376         0.000       
     221        7.4376         0.000       
     220        6.5715         0.000       
     219        6.5715         0.000       
     218        5.8868         0.000       
     217        5.8868         0.000       
     216        5.5855         0.000       
     215        5.5855         0.000       
     214        5.4064         0.000       
     213        5.4064         0.000       
     212        4.9755         0.000       
     211        4.9755         0.000       
     210        4.4334         0.000       
     209        4.4334         0.000       
     208        4.3297         0.000       
     207        4.3297         0.000       
     206        4.0552         0.000       
     205        4.0552         0.000       
     204        3.6695         0.000       
     203        3.6695         0.000       
     202        2.8911         0.000       
     201        2.8911         0.000       
     200        2.4056         0.000       
     199        2.4056         0.000       
     198        2.2821         0.000       
     197        2.2821         0.000       
     196        2.1657         0.000       
     195        2.1657         0.000       
     194        2.0555         0.000       
     193        2.0555         0.000       
     192        1.8857         0.000       
     191        1.8857         0.000       
     190        1.8144         0.000       
     189        1.8144         0.000       
     188        1.5016         0.000       
     187        1.5016         0.000       
     186        0.8972         0.000       
     185        0.8972         0.000       
     184        0.6431         0.000       
     183        0.6431         0.000       
     182        0.5313         0.000       
     181        0.5313         0.000       
     180        0.2922         0.000       
     179        0.2922         0.000       
     178        0.1922         0.000       
     177        0.1922         0.000       
     176       -0.1974         0.000       
     175       -0.1974         0.000       
     174       -0.5031         0.000       
     173       -0.5031         0.000       
     172       -1.0200         0.000       
     171       -1.0200         0.000       
     170       -1.5972         0.000       
     169       -1.5972         0.000       
     168       -1.9230         0.000       
     167       -1.9230         0.000       
     166       -2.3660         0.000       
     165       -2.3660         0.000       
     164       -2.5060         0.000       
     163       -2.5060         0.000       
     162       -2.6198         0.000       
     161       -2.6198         0.000       
     160       -3.1161         0.000       
     159       -3.1161         0.000       
     158       -3.1594         0.000       
     157       -3.1594         0.000 < LUMO
     156       -6.1160         1.000 < HOMO
     155       -6.1160         1.000       
     154       -6.2064         1.000       
     153       -6.2064         1.000       
     152       -8.9610         1.000       
     151       -8.9610         1.000       
     150       -9.2185         1.000       
     149       -9.2185         1.000       
     148       -9.3202         1.000       
     147       -9.3202         1.000       
     146       -9.4728         1.000       
     145       -9.4728         1.000       
     144       -9.6521         1.000       
     143       -9.6521         1.000       
     142       -9.8288         1.000       
     141       -9.8288         1.000       
     140       -9.9795         1.000       
     139       -9.9795         1.000       
     138      -10.1027         1.000       
     137      -10.1027         1.000       
     136      -10.2312         1.000       
     135      -10.2312         1.000       
     134      -10.4618         1.000       
     133      -10.4618         1.000       
     132      -10.8227         1.000       
     131      -10.8227         1.000       
     130      -12.0749         1.000       
     129      -12.0749         1.000       
     128      -12.7466         1.000       
     127      -12.7466         1.000       
     126      -13.5003         1.000       
     125      -13.5003         1.000       
     124      -14.0400         1.000       
     123      -14.0400         1.000       
     122      -14.4635         1.000       
     121      -14.4635         1.000       
     120      -19.9918         1.000       
     119      -19.9918         1.000       
     118      -22.6701         1.000       
     117      -22.6701         1.000       
     116      -22.9477         1.000       
     115      -22.9477         1.000       
     114      -24.6650         1.000       
     113      -24.6650         1.000       
     112      -26.3427         1.000       
     111      -26.3427         1.000       
     110      -27.0727         1.000       
     109      -27.0727         1.000       
     108      -27.8439         1.000       
     107      -27.8439         1.000       
     106      -28.2522         1.000       
     105      -28.2522         1.000       
     104      -32.5675         1.000       
     103      -32.5675         1.000       
     102      -50.2681         1.000       
     101      -50.2681         1.000       
     100      -96.9779         1.000       
      99      -96.9779         1.000       
      98      -97.0088         1.000       
      97      -97.0088         1.000       
      96      -97.0175         1.000       
      95      -97.0175         1.000       
      94     -104.4011         1.000       
      93     -104.4011         1.000       
      92     -104.4284         1.000       
      91     -104.4284         1.000       
      90     -158.6951         1.000       
      89     -158.6951         1.000       
      88     -158.8030         1.000       
      87     -158.8030         1.000       
      86     -159.9938         1.000       
      85     -159.9938         1.000       
      84     -193.9484         1.000       
      83     -193.9484         1.000       
      82     -193.9921         1.000       
      81     -193.9921         1.000       
      80     -216.0823         1.000       
      79     -216.0823         1.000       
      78     -242.2808         1.000       
      77     -242.2808         1.000       
      76     -278.6838         1.000       
      75     -278.6838         1.000       
      74     -304.4044         1.000       
      73     -304.4044         1.000       
      72     -354.8820         1.000       
      71     -354.8820         1.000       
      70     -354.9506         1.000       
      69     -354.9506         1.000       
      68     -354.9959         1.000       
      67     -354.9959         1.000       
      66     -355.0215         1.000       
      65     -355.0215         1.000       
      64     -364.6491         1.000       
      63     -364.6491         1.000       
      62     -364.7308         1.000       
      61     -364.7308         1.000       
      60     -364.7712         1.000       
      59     -364.7712         1.000       
      58     -389.2877         1.000       
      57     -389.2877         1.000       
      56     -521.1094         1.000       
      55     -521.1094         1.000       
      54     -521.1981         1.000       
      53     -521.1981         1.000       
      52     -521.3688         1.000       
      51     -521.3688         1.000       
      50     -521.4186         1.000       
      49     -521.4186         1.000       
      48     -694.1635         1.000       
      47     -694.1635         1.000       
      46     -694.2533         1.000       
      45     -694.2533         1.000       
      44     -694.2904         1.000       
      43     -694.2904         1.000       
      42     -733.4977         1.000       
      41     -733.4977         1.000       
      40     -733.5935         1.000       
      39     -733.5935         1.000       
      38     -983.4539         1.000       
      37     -983.4539         1.000       
      36     -983.5503         1.000       
      35     -983.5503         1.000       
      34    -1190.2745         1.000       
      33    -1190.2745         1.000       
      32    -1353.4311         1.000       
      31    -1353.4311         1.000       
      30    -2424.3403         1.000       
      29    -2424.3403         1.000       
      28    -3410.3977         1.000       
      27    -3410.3977         1.000       
      26    -3410.4376         1.000       
      25    -3410.4376         1.000       
      24    -3410.4557         1.000       
      23    -3410.4557         1.000       
      22    -3577.1999         1.000       
      21    -3577.1999         1.000       
      20    -3577.2401         1.000       
      19    -3577.2401         1.000       
      18    -4131.0961         1.000       
      17    -4131.0961         1.000       
      16    -4131.1508         1.000       
      15    -4131.1508         1.000       
      14    -4926.9074         1.000       
      13    -4926.9074         1.000       
      12    -5303.7049         1.000       
      11    -5303.7049         1.000       
      10   -16649.3484         1.000       
       9   -16649.3484         1.000       
       8   -16649.3555         1.000       
       7   -16649.3555         1.000       
       6   -20127.0140         1.000       
       5   -20127.0140         1.000       
       4   -21000.6072         1.000       
       3   -21000.6072         1.000       
       2  -112595.7863         1.000       
       1  -112595.7863         1.000       

AMS application finished. Exiting.
NORMAL TERMINATION
     Total cpu time:     528.00
  Total system time:      34.48
 Total elapsed time:     565.21
