 Entering Gaussian System, Link 0=/home/pcmt/gaussian/g16.C.01/g16/g16
 AtFile(1): /home/shaaban/basis.gaussian/Pa-def-TZVP
 AtFile(1): /home/shaaban/basis.gaussian/Pa-ECP60MWB
 Initial command:
 /home/pcmt/gaussian/g16.C.01/g16/l1.exe "/state/partition2/shaaban/972882.phlam-s-sakura/Gau-150192.inp" -scrdir="/state/partition2/shaaban/972882.phlam-s-sakura/"
 Entering Link 1 = /home/pcmt/gaussian/g16.C.01/g16/l1.exe PID=    150195.
  
 Copyright (c) 1988-2019, Gaussian, Inc.  All Rights Reserved.
  
 This is part of the Gaussian(R) 16 program.  It is based on
 the Gaussian(R) 09 system (copyright 2009, Gaussian, Inc.),
 the Gaussian(R) 03 system (copyright 2003, Gaussian, Inc.),
 the Gaussian(R) 98 system (copyright 1998, Gaussian, Inc.),
 the Gaussian(R) 94 system (copyright 1995, Gaussian, Inc.),
 the Gaussian 92(TM) system (copyright 1992, Gaussian, Inc.),
 the Gaussian 90(TM) system (copyright 1990, Gaussian, Inc.),
 the Gaussian 88(TM) system (copyright 1988, Gaussian, Inc.),
 the Gaussian 86(TM) system (copyright 1986, Carnegie Mellon
 University), and the Gaussian 82(TM) system (copyright 1983,
 Carnegie Mellon University). Gaussian is a federally registered
 trademark of Gaussian, Inc.
  
 This software contains proprietary and confidential information,
 including trade secrets, belonging to Gaussian, Inc.
  
 This software is provided under written license and may be
 used, copied, transmitted, or stored only in accord with that
 written license.
  
 The following legend is applicable only to US Government
 contracts under FAR:
  
                    RESTRICTED RIGHTS LEGEND
  
 Use, reproduction and disclosure by the US Government is
 subject to restrictions as set forth in subparagraphs (a)
 and (c) of the Commercial Computer Software - Restricted
 Rights clause in FAR 52.227-19.
  
 Gaussian, Inc.
 340 Quinnipiac St., Bldg. 40, Wallingford CT 06492
  
  
 ---------------------------------------------------------------
 Warning -- This program may not be used in any manner that
 competes with the business of Gaussian, Inc. or will provide
 assistance to any competitor of Gaussian, Inc.  The licensee
 of this program is prohibited from giving any competitor of
 Gaussian, Inc. access to this program.  By using this program,
 the user acknowledges that Gaussian, Inc. is engaged in the
 business of creating and licensing software in the field of
 computational chemistry and represents and warrants to the
 licensee that it is not a competitor of Gaussian, Inc. and that
 it will not use this program in any manner prohibited above.
 ---------------------------------------------------------------
  

 Cite this work as:
 Gaussian 16, Revision C.01,
 M. J. Frisch, G. W. Trucks, H. B. Schlegel, G. E. Scuseria, 
 M. A. Robb, J. R. Cheeseman, G. Scalmani, V. Barone, 
 G. A. Petersson, H. Nakatsuji, X. Li, M. Caricato, A. V. Marenich, 
 J. Bloino, B. G. Janesko, R. Gomperts, B. Mennucci, H. P. Hratchian, 
 J. V. Ortiz, A. F. Izmaylov, J. L. Sonnenberg, D. Williams-Young, 
 F. Ding, F. Lipparini, F. Egidi, J. Goings, B. Peng, A. Petrone, 
 T. Henderson, D. Ranasinghe, V. G. Zakrzewski, J. Gao, N. Rega, 
 G. Zheng, W. Liang, M. Hada, M. Ehara, K. Toyota, R. Fukuda, 
 J. Hasegawa, M. Ishida, T. Nakajima, Y. Honda, O. Kitao, H. Nakai, 
 T. Vreven, K. Throssell, J. A. Montgomery, Jr., J. E. Peralta, 
 F. Ogliaro, M. J. Bearpark, J. J. Heyd, E. N. Brothers, K. N. Kudin, 
 V. N. Staroverov, T. A. Keith, R. Kobayashi, J. Normand, 
 K. Raghavachari, A. P. Rendell, J. C. Burant, S. S. Iyengar, 
 J. Tomasi, M. Cossi, J. M. Millam, M. Klene, C. Adamo, R. Cammi, 
 J. W. Ochterski, R. L. Martin, K. Morokuma, O. Farkas, 
 J. B. Foresman, and D. J. Fox, Gaussian, Inc., Wallingford CT, 2019.
 
 ******************************************
 Gaussian 16:  ES64L-G16RevC.01  3-Jul-2019
                 4-Jul-2023 
 ******************************************
 %mem=16Gb
 %NProc=8
 Will use up to    8 processors via shared memory.
 %chk=pao_oh2_br_h2o-bp86-cosmors-deftzvp-gp.chk
 ----------------------------------------------------------------------
 #p BP86/GEN Pseudo=Read GFInput GFPrint IOP(6/7=3) Symm=(Loose) Int=(U
 ltraFine) Guess=(Harris) Scf=(NoVarAcc,MaxCycle=100,conver=8)
 ----------------------------------------------------------------------
 1/38=1,172=1/1;
 2/12=2,17=4,18=3,40=1/2;
 3/5=7,11=2,16=1,17=8,24=110,25=1,30=1,74=404,75=-5/1,2,3;
 4/11=8/1;
 5/5=2,6=8,7=100,38=1/2;
 6/7=3,8=2,9=2,10=2,28=1/1;
 99/5=1,9=1/99;
 Leave Link    1 at Tue Jul  4 11:12:22 2023, MaxMem=  2147483648 cpu:               0.7 elap:               0.1
 (Enter /home/pcmt/gaussian/g16.C.01/g16/l101.exe)
 -----------------------------------------------------------------
 pao_oh2_br_h2o-bp86-cosmors-deftzvp-gp.com SGP in PCM calculation
 -----------------------------------------------------------------
 Symbolic Z-matrix:
 Charge =  0 Multiplicity = 1
 Pa                   -0.16098   0.07362   0.80252 
 O                     1.10867   1.52552  -0.11014 
 O                    -1.74014   0.80804  -0.35975 
 Br                   -0.92895   1.64837   3.10836 
 H                    -1.8284    1.55175  -0.97179 
 O                     0.03139  -1.63455  -1.00304 
 H                    -0.47027  -1.65284  -1.82875 
 H                     0.7128   -2.31682  -1.06398 
 H                     2.06359   1.62057  -0.01164 
 O                     1.18719  -0.85412   1.67519 
 
 ITRead=  0  0  0  0  0  0  0  0  0  0
 MicOpt= -1 -1 -1 -1 -1 -1 -1 -1 -1 -1
 NAtoms=     10 NQM=       10 NQMF=       0 NMMI=      0 NMMIF=      0
                NMic=       0 NMicF=      0.
                    Isotopes and Nuclear Properties:
 (Nuclear quadrupole moments (NQMom) in fm**2, nuclear magnetic moments (NMagM)
  in nuclear magnetons)

  Atom         1           2           3           4           5           6           7           8           9          10
 IAtWgt=         231          16          16          79           1          16           1           1           1          16
 AtmWgt= 231.0359000  15.9949146  15.9949146  78.9183361   1.0078250  15.9949146   1.0078250   1.0078250   1.0078250  15.9949146
 NucSpn=           3           0           0           3           1           0           1           1           1           0
 AtZEff=  -0.0000000  -0.0000000  -0.0000000  -0.0000000  -0.0000000  -0.0000000  -0.0000000  -0.0000000  -0.0000000  -0.0000000
 NQMom= -172.0000000   0.0000000   0.0000000  31.3000000   0.0000000   0.0000000   0.0000000   0.0000000   0.0000000   0.0000000
 NMagM=    2.0100000   0.0000000   0.0000000   2.1063990   2.7928460   0.0000000   2.7928460   2.7928460   2.7928460   0.0000000
 AtZNuc=  91.0000000   8.0000000   8.0000000  35.0000000   1.0000000   8.0000000   1.0000000   1.0000000   1.0000000   8.0000000
 Leave Link  101 at Tue Jul  4 11:12:22 2023, MaxMem=  2147483648 cpu:               0.7 elap:               0.1
 (Enter /home/pcmt/gaussian/g16.C.01/g16/l202.exe)
                          Input orientation:                          
 ---------------------------------------------------------------------
 Center     Atomic      Atomic             Coordinates (Angstroms)
 Number     Number       Type             X           Y           Z
 ---------------------------------------------------------------------
      1         91           0       -0.160985    0.073619    0.802522
      2          8           0        1.108665    1.525522   -0.110136
      3          8           0       -1.740139    0.808042   -0.359747
      4         35           0       -0.928949    1.648369    3.108359
      5          1           0       -1.828400    1.551750   -0.971791
      6          8           0        0.031389   -1.634553   -1.003042
      7          1           0       -0.470267   -1.652842   -1.828746
      8          1           0        0.712804   -2.316817   -1.063984
      9          1           0        2.063589    1.620570   -0.011638
     10          8           0        1.187195   -0.854123    1.675191
 ---------------------------------------------------------------------
                    Distance matrix (angstroms):
                    1          2          3          4          5
     1  Pa   0.000000
     2  O    2.133771   0.000000
     3  O    2.093794   2.948351   0.000000
     4  Br   2.895943   3.811256   3.659499   0.000000
     5  H    2.848391   3.060963   0.967207   4.179231   0.000000
     6  O    2.492975   3.455992   3.085192   5.348218   3.689487
     7  H    3.162261   3.943177   3.134723   5.956793   3.584454
     8  H    3.156190   3.978706   4.034553   5.985523   4.629474
     9  H    2.829248   0.964684   3.905090   4.323244   4.009266
    10  O    1.854682   2.975949   3.933580   3.576940   4.678521
                    6          7          8          9         10
     6  O    0.000000
     7  H    0.966322   0.000000
     8  H    0.966190   1.557363   0.000000
     9  H    3.963400   4.520788   4.293607   0.000000
    10  O    3.019585   3.957613   3.141274   3.120507   0.000000
 Stoichiometry    BrH4O4Pa
 Framework group  C1[X(BrH4O4Pa)]
 Deg. of freedom    24
 Full point group                 C1      NOp   1
 Largest Abelian subgroup         C1      NOp   1
 Largest concise Abelian subgroup C1      NOp   1
                         Standard orientation:                         
 ---------------------------------------------------------------------
 Center     Atomic      Atomic             Coordinates (Angstroms)
 Number     Number       Type             X           Y           Z
 ---------------------------------------------------------------------
      1         91           0        0.439108   -0.052203   -0.067623
      2          8           0        0.682217    0.185114    2.038928
      3          8           0        0.592305    2.026952   -0.261576
      4         35           0       -2.455813    0.007070   -0.116702
      5          1           0        0.655939    2.753410    0.373798
      6          8           0        2.867607   -0.023784   -0.630213
      7          1           0        3.420091    0.761431   -0.739660
      8          1           0        3.452539   -0.792667   -0.644235
      9          1           0        0.779940   -0.506816    2.703983
     10          8           0        0.568639   -1.902321   -0.079088
 ---------------------------------------------------------------------
 Rotational constants (GHZ):           2.3142977           0.6483574           0.6097838
 Leave Link  202 at Tue Jul  4 11:12:22 2023, MaxMem=  2147483648 cpu:               0.1 elap:               0.0
 (Enter /home/pcmt/gaussian/g16.C.01/g16/l301.exe)
 General basis read from cards:  (5D, 7F)
 Centers:       1
 S 3 1.00
     Exponent=  1.2047376000D+04 Coefficients=  3.4500000000D-04
     Exponent=  1.8116841000D+03 Coefficients=  2.7420000000D-03
     Exponent=  3.4770104000D+02 Coefficients=  1.0053000000D-02
 S 1 1.00
     Exponent=  9.8678010000D+01 Coefficients=  1.0000000000D+00
 S 3 1.00
     Exponent=  5.7507376000D+01 Coefficients=  5.1528000000D-02
     Exponent=  3.3502601000D+01 Coefficients= -2.3692400000D-01
     Exponent=  1.9554451000D+01 Coefficients=  7.1904800000D-01
 S 1 1.00
     Exponent=  9.7164210000D+00 Coefficients=  1.0000000000D+00
 S 1 1.00
     Exponent=  2.6920960000D+00 Coefficients=  1.0000000000D+00
 S 1 1.00
     Exponent=  1.4538470000D+00 Coefficients=  1.0000000000D+00
 S 1 1.00
     Exponent=  5.7435200000D-01 Coefficients=  1.0000000000D+00
 S 1 1.00
     Exponent=  2.6346800000D-01 Coefficients=  1.0000000000D+00
 S 1 1.00
     Exponent=  5.6557000000D-02 Coefficients=  1.0000000000D+00
 S 1 1.00
     Exponent=  2.3169000000D-02 Coefficients=  1.0000000000D+00
 P 5 1.00
     Exponent=  2.9033676000D+03 Coefficients=  3.5000000000D-05
     Exponent=  6.4486356000D+02 Coefficients=  2.0500000000D-04
     Exponent=  2.2025896000D+02 Coefficients=  1.2510000000D-03
     Exponent=  8.0276401000D+01 Coefficients=  2.4570000000D-03
     Exponent=  2.4080211000D+01 Coefficients=  1.1190000000D-02
 P 1 1.00
     Exponent=  1.4077580000D+01 Coefficients=  1.0000000000D+00
 P 1 1.00
     Exponent=  8.2658460000D+00 Coefficients=  1.0000000000D+00
 P 1 1.00
     Exponent=  3.5948000000D+00 Coefficients=  1.0000000000D+00
 P 1 1.00
     Exponent=  1.7531110000D+00 Coefficients=  1.0000000000D+00
 P 1 1.00
     Exponent=  6.5776700000D-01 Coefficients=  1.0000000000D+00
 P 1 1.00
     Exponent=  2.8463900000D-01 Coefficients=  1.0000000000D+00
 P 1 1.00
     Exponent=  1.0054300000D-01 Coefficients=  1.0000000000D+00
 P 1 1.00
     Exponent=  3.0190000000D-02 Coefficients=  1.0000000000D+00
 D 6 1.00
     Exponent=  4.4814991000D+02 Coefficients=  2.6000000000D-05
     Exponent=  1.5446145000D+02 Coefficients=  2.2800000000D-04
     Exponent=  6.0925377000D+01 Coefficients=  9.0400000000D-04
     Exponent=  1.7032091000D+01 Coefficients=  2.5647000000D-02
     Exponent=  1.0018877000D+01 Coefficients= -1.0575100000D-01
     Exponent=  3.4091930000D+00 Coefficients=  4.4743200000D-01
 D 1 1.00
     Exponent=  1.6702130000D+00 Coefficients=  1.0000000000D+00
 D 1 1.00
     Exponent=  7.4109500000D-01 Coefficients=  1.0000000000D+00
 D 1 1.00
     Exponent=  2.6139300000D-01 Coefficients=  1.0000000000D+00
 D 1 1.00
     Exponent=  8.2811000000D-02 Coefficients=  1.0000000000D+00
 F 5 1.00
     Exponent=  8.7991327000D+01 Coefficients=  2.2600000000D-04
     Exponent=  2.8340195000D+01 Coefficients=  2.3230000000D-03
     Exponent=  1.2440994000D+01 Coefficients=  4.5850000000D-03
     Exponent=  3.9572960000D+00 Coefficients=  1.5696100000D-01
     Exponent=  1.8759440000D+00 Coefficients=  3.4497700000D-01
 F 1 1.00
     Exponent=  8.2758900000D-01 Coefficients=  1.0000000000D+00
 F 1 1.00
     Exponent=  3.3274800000D-01 Coefficients=  1.0000000000D+00
 F 1 1.00
     Exponent=  1.1468500000D-01 Coefficients=  1.0000000000D+00
 G 1 1.00
     Exponent=  3.5000000000D-01 Coefficients=  1.0000000000D+00
 ****
 Centers:       2      3      6     10
 Def2TZVP
 ****
 Centers:       5      7      8      9
 Def2TZVP
 ****
 Centers:       4
 Def2TZVP
 ****
 ======================================================================================================
                                       Pseudopotential Parameters
 ======================================================================================================
  Center     Atomic      Valence      Angular      Power
  Number     Number     Electrons     Momentum     of R      Exponent        Coefficient   SO-Coeffient
 ======================================================================================================
    1         91           31
                                      H and up 
                                                     2        1.0000000        0.00000000    0.00000000
                                      S - H
                                                     2       15.2691737      475.47573283    0.00000000
                                      P - H
                                                     2        9.9577370      207.66485962    0.00000000
                                      D - H
                                                     2        8.9431413      156.67411988    0.00000000
                                      F - H
                                                     2        7.0104666       67.98223685    0.00000000
                                      G - H
                                                     2       12.2010560      -57.63059989    0.00000000
    2          8
                                   No pseudopotential on this center.
    3          8
                                   No pseudopotential on this center.
    4         35
                                   No pseudopotential on this center.
    5          1
                                   No pseudopotential on this center.
    6          8
                                   No pseudopotential on this center.
    7          1
                                   No pseudopotential on this center.
    8          1
                                   No pseudopotential on this center.
    9          1
                                   No pseudopotential on this center.
   10          8
                                   No pseudopotential on this center.
 ======================================================================================================
 Ernie: Thresh=  0.10000D-02 Tol=  0.10000D-05 Strict=F.
 AO basis set in the form of general basis input (Overlap normalization):
      1 0
 S   3 1.00       0.000000000000
      0.1204737600D+05  0.2857094961D-01
      0.1811684100D+04  0.2270769386D+00
      0.3477010400D+03  0.8325326273D+00
 S   3 1.00       0.000000000000
      0.5750737600D+02  0.9569327984D-01
      0.3350260100D+02 -0.4399944619D+00
      0.1955445100D+02  0.1335352847D+01
 S   1 1.00       0.000000000000
      0.9867801000D+02  0.1000000000D+01
 S   1 1.00       0.000000000000
      0.9716421000D+01  0.1000000000D+01
 S   1 1.00       0.000000000000
      0.2692096000D+01  0.1000000000D+01
 S   1 1.00       0.000000000000
      0.1453847000D+01  0.1000000000D+01
 S   1 1.00       0.000000000000
      0.5743520000D+00  0.1000000000D+01
 S   1 1.00       0.000000000000
      0.2634680000D+00  0.1000000000D+01
 S   1 1.00       0.000000000000
      0.5655700000D-01  0.1000000000D+01
 S   1 1.00       0.000000000000
      0.2316900000D-01  0.1000000000D+01
 P   5 1.00       0.000000000000
      0.2903367600D+04  0.2594222647D-02
      0.6448635600D+03  0.1519473264D-01
      0.2202589600D+03  0.9272492945D-01
      0.8027640100D+02  0.1821144298D+00
      0.2408021100D+02  0.8294100404D+00
 P   1 1.00       0.000000000000
      0.1407758000D+02  0.1000000000D+01
 P   1 1.00       0.000000000000
      0.8265846000D+01  0.1000000000D+01
 P   1 1.00       0.000000000000
      0.3594800000D+01  0.1000000000D+01
 P   1 1.00       0.000000000000
      0.1753111000D+01  0.1000000000D+01
 P   1 1.00       0.000000000000
      0.6577670000D+00  0.1000000000D+01
 P   1 1.00       0.000000000000
      0.2846390000D+00  0.1000000000D+01
 P   1 1.00       0.000000000000
      0.1005430000D+00  0.1000000000D+01
 P   1 1.00       0.000000000000
      0.3019000000D-01  0.1000000000D+01
 D   6 1.00       0.000000000000
      0.4481499100D+03  0.6556927566D-04
      0.1544614500D+03  0.5749921096D-03
      0.6092537700D+02  0.2279793277D-02
      0.1703209100D+02  0.6467904664D-01
      0.1001887700D+02 -0.2666929411D+00
      0.3409193000D+01  0.1128376621D+01
 D   1 1.00       0.000000000000
      0.1670213000D+01  0.1000000000D+01
 D   1 1.00       0.000000000000
      0.7410950000D+00  0.1000000000D+01
 D   1 1.00       0.000000000000
      0.2613930000D+00  0.1000000000D+01
 D   1 1.00       0.000000000000
      0.8281100000D-01  0.1000000000D+01
 F   5 1.00       0.000000000000
      0.8799132700D+02  0.4766318191D-03
      0.2834019500D+02  0.4899184583D-02
      0.1244099400D+02  0.9669720755D-02
      0.3957296000D+01  0.3310292343D+00
      0.1875944000D+01  0.7275531640D+00
 F   1 1.00       0.000000000000
      0.8275890000D+00  0.1000000000D+01
 F   1 1.00       0.000000000000
      0.3327480000D+00  0.1000000000D+01
 F   1 1.00       0.000000000000
      0.1146850000D+00  0.1000000000D+01
 G   1 1.00       0.000000000000
      0.3500000000D+00  0.1000000000D+01
 ****
      2 0
 S   6 1.00       0.000000000000
      0.2703238263D+05  0.5722733521D-03
      0.4052387139D+04  0.4435323349D-02
      0.9223272271D+03  0.2302010771D-01
      0.2612407099D+03  0.9282249067D-01
      0.8535464135D+02  0.2937850001D+00
      0.3103503524D+02  0.6740160450D+00
 S   2 1.00       0.000000000000
      0.1226086073D+02  0.6383993703D+00
      0.4998707601D+01  0.3953458713D+00
 S   1 1.00       0.000000000000
      0.1170310816D+01  0.1000000000D+01
 S   1 1.00       0.000000000000
      0.4647474099D+00  0.1000000000D+01
 S   1 1.00       0.000000000000
      0.1850453636D+00  0.1000000000D+01
 P   4 1.00       0.000000000000
      0.6327495480D+02  0.1201833222D-01
      0.1462704938D+02  0.8300542179D-01
      0.4450122346D+01  0.3199174393D+00
      0.1527579965D+01  0.7071554292D+00
 P   1 1.00       0.000000000000
      0.5293511794D+00  0.1000000000D+01
 P   1 1.00       0.000000000000
      0.1747842127D+00  0.1000000000D+01
 D   1 1.00       0.000000000000
      0.2314000000D+01  0.1000000000D+01
 D   1 1.00       0.000000000000
      0.6450000000D+00  0.1000000000D+01
 F   1 1.00       0.000000000000
      0.1428000000D+01  0.1000000000D+01
 ****
      3 0
 S   6 1.00       0.000000000000
      0.2703238263D+05  0.5722733521D-03
      0.4052387139D+04  0.4435323349D-02
      0.9223272271D+03  0.2302010771D-01
      0.2612407099D+03  0.9282249067D-01
      0.8535464135D+02  0.2937850001D+00
      0.3103503524D+02  0.6740160450D+00
 S   2 1.00       0.000000000000
      0.1226086073D+02  0.6383993703D+00
      0.4998707601D+01  0.3953458713D+00
 S   1 1.00       0.000000000000
      0.1170310816D+01  0.1000000000D+01
 S   1 1.00       0.000000000000
      0.4647474099D+00  0.1000000000D+01
 S   1 1.00       0.000000000000
      0.1850453636D+00  0.1000000000D+01
 P   4 1.00       0.000000000000
      0.6327495480D+02  0.1201833222D-01
      0.1462704938D+02  0.8300542179D-01
      0.4450122346D+01  0.3199174393D+00
      0.1527579965D+01  0.7071554292D+00
 P   1 1.00       0.000000000000
      0.5293511794D+00  0.1000000000D+01
 P   1 1.00       0.000000000000
      0.1747842127D+00  0.1000000000D+01
 D   1 1.00       0.000000000000
      0.2314000000D+01  0.1000000000D+01
 D   1 1.00       0.000000000000
      0.6450000000D+00  0.1000000000D+01
 F   1 1.00       0.000000000000
      0.1428000000D+01  0.1000000000D+01
 ****
      4 0
 S   8 1.00       0.000000000000
      0.5650732526D+06  0.2313996799D-03
      0.8470172318D+05  0.1794480895D-02
      0.1927627190D+05  0.9336632833D-02
      0.5456428458D+04  0.3802214115D-01
      0.1776950350D+04  0.1243860819D+00
      0.6391939828D+03  0.2976826547D+00
      0.2487882396D+03  0.4351247869D+00
      0.9867830549D+02  0.2384543263D+00
 S   4 1.00       0.000000000000
      0.6060782457D+03 -0.2580299811D-01
      0.1884559848D+03 -0.1214377016D+00
      0.3149714451D+02  0.5492715414D+00
      0.1373600832D+02  0.5403867432D+00
 S   2 1.00       0.000000000000
      0.2120321277D+02 -0.4189765707D+00
      0.3761642018D+01  0.1196292202D+01
 S   1 1.00       0.000000000000
      0.1773593396D+01  0.1000000000D+01
 S   1 1.00       0.000000000000
      0.4519741366D+00  0.1000000000D+01
 S   1 1.00       0.000000000000
      0.1661337710D+00  0.1000000000D+01
 P   6 1.00       0.000000000000
      0.3019695572D+04  0.2697896720D-02
      0.7153548113D+03  0.2206117705D-01
      0.2299832875D+03  0.1046886297D+00
      0.8616784462D+02  0.3030971016D+00
      0.3466787080D+02  0.4819318191D+00
      0.1411387031D+02  0.2637288336D+00
 P   4 1.00       0.000000000000
      0.5708565308D+02 -0.1928818758D-01
      0.8819384584D+01  0.2886445949D+00
      0.3934030287D+01  0.5105806350D+00
      0.1799883038D+01  0.2962687446D+00
 P   1 1.00       0.000000000000
      0.6689941051D+00  0.1000000000D+01
 P   1 1.00       0.000000000000
      0.2713623823D+00  0.1000000000D+01
 P   1 1.00       0.000000000000
      0.1008379024D+00  0.1000000000D+01
 D   5 1.00       0.000000000000
      0.1688537026D+03  0.9842827717D-02
      0.4997794992D+02  0.6812837709D-01
      0.1827491334D+02  0.2357380148D+00
      0.7245569463D+01  0.4427795439D+00
      0.2856231503D+01  0.4633455553D+00
 D   1 1.00       0.000000000000
      0.1045962114D+01  0.1000000000D+01
 D   1 1.00       0.000000000000
      0.5686565500D+00  0.1000000000D+01
 D   1 1.00       0.000000000000
      0.2203149000D+00  0.1000000000D+01
 F   1 1.00       0.000000000000
      0.5708331200D+00  0.1000000000D+01
 ****
      5 0
 S   3 1.00       0.000000000000
      0.3406134100D+02  0.2543930721D-01
      0.5123574600D+01  0.1900859489D+00
      0.1164662600D+01  0.8524411301D+00
 S   1 1.00       0.000000000000
      0.3272304100D+00  0.1000000000D+01
 S   1 1.00       0.000000000000
      0.1030724100D+00  0.1000000000D+01
 P   1 1.00       0.000000000000
      0.8000000000D+00  0.1000000000D+01
 ****
      6 0
 S   6 1.00       0.000000000000
      0.2703238263D+05  0.5722733521D-03
      0.4052387139D+04  0.4435323349D-02
      0.9223272271D+03  0.2302010771D-01
      0.2612407099D+03  0.9282249067D-01
      0.8535464135D+02  0.2937850001D+00
      0.3103503524D+02  0.6740160450D+00
 S   2 1.00       0.000000000000
      0.1226086073D+02  0.6383993703D+00
      0.4998707601D+01  0.3953458713D+00
 S   1 1.00       0.000000000000
      0.1170310816D+01  0.1000000000D+01
 S   1 1.00       0.000000000000
      0.4647474099D+00  0.1000000000D+01
 S   1 1.00       0.000000000000
      0.1850453636D+00  0.1000000000D+01
 P   4 1.00       0.000000000000
      0.6327495480D+02  0.1201833222D-01
      0.1462704938D+02  0.8300542179D-01
      0.4450122346D+01  0.3199174393D+00
      0.1527579965D+01  0.7071554292D+00
 P   1 1.00       0.000000000000
      0.5293511794D+00  0.1000000000D+01
 P   1 1.00       0.000000000000
      0.1747842127D+00  0.1000000000D+01
 D   1 1.00       0.000000000000
      0.2314000000D+01  0.1000000000D+01
 D   1 1.00       0.000000000000
      0.6450000000D+00  0.1000000000D+01
 F   1 1.00       0.000000000000
      0.1428000000D+01  0.1000000000D+01
 ****
      7 0
 S   3 1.00       0.000000000000
      0.3406134100D+02  0.2543930721D-01
      0.5123574600D+01  0.1900859489D+00
      0.1164662600D+01  0.8524411301D+00
 S   1 1.00       0.000000000000
      0.3272304100D+00  0.1000000000D+01
 S   1 1.00       0.000000000000
      0.1030724100D+00  0.1000000000D+01
 P   1 1.00       0.000000000000
      0.8000000000D+00  0.1000000000D+01
 ****
      8 0
 S   3 1.00       0.000000000000
      0.3406134100D+02  0.2543930721D-01
      0.5123574600D+01  0.1900859489D+00
      0.1164662600D+01  0.8524411301D+00
 S   1 1.00       0.000000000000
      0.3272304100D+00  0.1000000000D+01
 S   1 1.00       0.000000000000
      0.1030724100D+00  0.1000000000D+01
 P   1 1.00       0.000000000000
      0.8000000000D+00  0.1000000000D+01
 ****
      9 0
 S   3 1.00       0.000000000000
      0.3406134100D+02  0.2543930721D-01
      0.5123574600D+01  0.1900859489D+00
      0.1164662600D+01  0.8524411301D+00
 S   1 1.00       0.000000000000
      0.3272304100D+00  0.1000000000D+01
 S   1 1.00       0.000000000000
      0.1030724100D+00  0.1000000000D+01
 P   1 1.00       0.000000000000
      0.8000000000D+00  0.1000000000D+01
 ****
     10 0
 S   6 1.00       0.000000000000
      0.2703238263D+05  0.5722733521D-03
      0.4052387139D+04  0.4435323349D-02
      0.9223272271D+03  0.2302010771D-01
      0.2612407099D+03  0.9282249067D-01
      0.8535464135D+02  0.2937850001D+00
      0.3103503524D+02  0.6740160450D+00
 S   2 1.00       0.000000000000
      0.1226086073D+02  0.6383993703D+00
      0.4998707601D+01  0.3953458713D+00
 S   1 1.00       0.000000000000
      0.1170310816D+01  0.1000000000D+01
 S   1 1.00       0.000000000000
      0.4647474099D+00  0.1000000000D+01
 S   1 1.00       0.000000000000
      0.1850453636D+00  0.1000000000D+01
 P   4 1.00       0.000000000000
      0.6327495480D+02  0.1201833222D-01
      0.1462704938D+02  0.8300542179D-01
      0.4450122346D+01  0.3199174393D+00
      0.1527579965D+01  0.7071554292D+00
 P   1 1.00       0.000000000000
      0.5293511794D+00  0.1000000000D+01
 P   1 1.00       0.000000000000
      0.1747842127D+00  0.1000000000D+01
 D   1 1.00       0.000000000000
      0.2314000000D+01  0.1000000000D+01
 D   1 1.00       0.000000000000
      0.6450000000D+00  0.1000000000D+01
 F   1 1.00       0.000000000000
      0.1428000000D+01  0.1000000000D+01
 ****

 AO basis set (Overlap normalization):
 Atom Pa1      Shell     1 S   3     bf    1 -     1          0.829793079613         -0.098649660216         -0.127789885245
      0.1204737600D+05  0.2857094961D-01
      0.1811684100D+04  0.2270769386D+00
      0.3477010400D+03  0.8325326273D+00
 Atom Pa1      Shell     2 S   3     bf    2 -     2          0.829793079613         -0.098649660216         -0.127789885245
      0.5750737600D+02  0.9569327984D-01
      0.3350260100D+02 -0.4399944619D+00
      0.1955445100D+02  0.1335352847D+01
 Atom Pa1      Shell     3 S   1     bf    3 -     3          0.829793079613         -0.098649660216         -0.127789885245
      0.9867801000D+02  0.1000000000D+01
 Atom Pa1      Shell     4 S   1     bf    4 -     4          0.829793079613         -0.098649660216         -0.127789885245
      0.9716421000D+01  0.1000000000D+01
 Atom Pa1      Shell     5 S   1     bf    5 -     5          0.829793079613         -0.098649660216         -0.127789885245
      0.2692096000D+01  0.1000000000D+01
 Atom Pa1      Shell     6 S   1     bf    6 -     6          0.829793079613         -0.098649660216         -0.127789885245
      0.1453847000D+01  0.1000000000D+01
 Atom Pa1      Shell     7 S   1     bf    7 -     7          0.829793079613         -0.098649660216         -0.127789885245
      0.5743520000D+00  0.1000000000D+01
 Atom Pa1      Shell     8 S   1     bf    8 -     8          0.829793079613         -0.098649660216         -0.127789885245
      0.2634680000D+00  0.1000000000D+01
 Atom Pa1      Shell     9 S   1     bf    9 -     9          0.829793079613         -0.098649660216         -0.127789885245
      0.5655700000D-01  0.1000000000D+01
 Atom Pa1      Shell    10 S   1     bf   10 -    10          0.829793079613         -0.098649660216         -0.127789885245
      0.2316900000D-01  0.1000000000D+01
 Atom Pa1      Shell    11 P   5     bf   11 -    13          0.829793079613         -0.098649660216         -0.127789885245
      0.2903367600D+04  0.2594222647D-02
      0.6448635600D+03  0.1519473264D-01
      0.2202589600D+03  0.9272492945D-01
      0.8027640100D+02  0.1821144298D+00
      0.2408021100D+02  0.8294100404D+00
 Atom Pa1      Shell    12 P   1     bf   14 -    16          0.829793079613         -0.098649660216         -0.127789885245
      0.1407758000D+02  0.1000000000D+01
 Atom Pa1      Shell    13 P   1     bf   17 -    19          0.829793079613         -0.098649660216         -0.127789885245
      0.8265846000D+01  0.1000000000D+01
 Atom Pa1      Shell    14 P   1     bf   20 -    22          0.829793079613         -0.098649660216         -0.127789885245
      0.3594800000D+01  0.1000000000D+01
 Atom Pa1      Shell    15 P   1     bf   23 -    25          0.829793079613         -0.098649660216         -0.127789885245
      0.1753111000D+01  0.1000000000D+01
 Atom Pa1      Shell    16 P   1     bf   26 -    28          0.829793079613         -0.098649660216         -0.127789885245
      0.6577670000D+00  0.1000000000D+01
 Atom Pa1      Shell    17 P   1     bf   29 -    31          0.829793079613         -0.098649660216         -0.127789885245
      0.2846390000D+00  0.1000000000D+01
 Atom Pa1      Shell    18 P   1     bf   32 -    34          0.829793079613         -0.098649660216         -0.127789885245
      0.1005430000D+00  0.1000000000D+01
 Atom Pa1      Shell    19 P   1     bf   35 -    37          0.829793079613         -0.098649660216         -0.127789885245
      0.3019000000D-01  0.1000000000D+01
 Atom Pa1      Shell    20 D   6     bf   38 -    42          0.829793079613         -0.098649660216         -0.127789885245
      0.4481499100D+03  0.6556927566D-04
      0.1544614500D+03  0.5749921096D-03
      0.6092537700D+02  0.2279793277D-02
      0.1703209100D+02  0.6467904664D-01
      0.1001887700D+02 -0.2666929411D+00
      0.3409193000D+01  0.1128376621D+01
 Atom Pa1      Shell    21 D   1     bf   43 -    47          0.829793079613         -0.098649660216         -0.127789885245
      0.1670213000D+01  0.1000000000D+01
 Atom Pa1      Shell    22 D   1     bf   48 -    52          0.829793079613         -0.098649660216         -0.127789885245
      0.7410950000D+00  0.1000000000D+01
 Atom Pa1      Shell    23 D   1     bf   53 -    57          0.829793079613         -0.098649660216         -0.127789885245
      0.2613930000D+00  0.1000000000D+01
 Atom Pa1      Shell    24 D   1     bf   58 -    62          0.829793079613         -0.098649660216         -0.127789885245
      0.8281100000D-01  0.1000000000D+01
 Atom Pa1      Shell    25 F   5     bf   63 -    69          0.829793079613         -0.098649660216         -0.127789885245
      0.8799132700D+02  0.4766318191D-03
      0.2834019500D+02  0.4899184583D-02
      0.1244099400D+02  0.9669720755D-02
      0.3957296000D+01  0.3310292343D+00
      0.1875944000D+01  0.7275531640D+00
 Atom Pa1      Shell    26 F   1     bf   70 -    76          0.829793079613         -0.098649660216         -0.127789885245
      0.8275890000D+00  0.1000000000D+01
 Atom Pa1      Shell    27 F   1     bf   77 -    83          0.829793079613         -0.098649660216         -0.127789885245
      0.3327480000D+00  0.1000000000D+01
 Atom Pa1      Shell    28 F   1     bf   84 -    90          0.829793079613         -0.098649660216         -0.127789885245
      0.1146850000D+00  0.1000000000D+01
 Atom Pa1      Shell    29 G   1     bf   91 -    99          0.829793079613         -0.098649660216         -0.127789885245
      0.3500000000D+00  0.1000000000D+01
 Atom O2       Shell    30 S   6     bf  100 -   100          1.289203482670          0.349814416310          3.853015456676
      0.2703238263D+05  0.5722733521D-03
      0.4052387139D+04  0.4435323349D-02
      0.9223272271D+03  0.2302010771D-01
      0.2612407099D+03  0.9282249067D-01
      0.8535464135D+02  0.2937850001D+00
      0.3103503524D+02  0.6740160450D+00
 Atom O2       Shell    31 S   2     bf  101 -   101          1.289203482670          0.349814416310          3.853015456676
      0.1226086073D+02  0.6383993703D+00
      0.4998707601D+01  0.3953458713D+00
 Atom O2       Shell    32 S   1     bf  102 -   102          1.289203482670          0.349814416310          3.853015456676
      0.1170310816D+01  0.1000000000D+01
 Atom O2       Shell    33 S   1     bf  103 -   103          1.289203482670          0.349814416310          3.853015456676
      0.4647474099D+00  0.1000000000D+01
 Atom O2       Shell    34 S   1     bf  104 -   104          1.289203482670          0.349814416310          3.853015456676
      0.1850453636D+00  0.1000000000D+01
 Atom O2       Shell    35 P   4     bf  105 -   107          1.289203482670          0.349814416310          3.853015456676
      0.6327495480D+02  0.1201833222D-01
      0.1462704938D+02  0.8300542179D-01
      0.4450122346D+01  0.3199174393D+00
      0.1527579965D+01  0.7071554292D+00
 Atom O2       Shell    36 P   1     bf  108 -   110          1.289203482670          0.349814416310          3.853015456676
      0.5293511794D+00  0.1000000000D+01
 Atom O2       Shell    37 P   1     bf  111 -   113          1.289203482670          0.349814416310          3.853015456676
      0.1747842127D+00  0.1000000000D+01
 Atom O2       Shell    38 D   1     bf  114 -   118          1.289203482670          0.349814416310          3.853015456676
      0.2314000000D+01  0.1000000000D+01
 Atom O2       Shell    39 D   1     bf  119 -   123          1.289203482670          0.349814416310          3.853015456676
      0.6450000000D+00  0.1000000000D+01
 Atom O2       Shell    40 F   1     bf  124 -   130          1.289203482670          0.349814416310          3.853015456676
      0.1428000000D+01  0.1000000000D+01
 Atom O3       Shell    41 S   6     bf  131 -   131          1.119293610397          3.830385031287         -0.494306297527
      0.2703238263D+05  0.5722733521D-03
      0.4052387139D+04  0.4435323349D-02
      0.9223272271D+03  0.2302010771D-01
      0.2612407099D+03  0.9282249067D-01
      0.8535464135D+02  0.2937850001D+00
      0.3103503524D+02  0.6740160450D+00
 Atom O3       Shell    42 S   2     bf  132 -   132          1.119293610397          3.830385031287         -0.494306297527
      0.1226086073D+02  0.6383993703D+00
      0.4998707601D+01  0.3953458713D+00
 Atom O3       Shell    43 S   1     bf  133 -   133          1.119293610397          3.830385031287         -0.494306297527
      0.1170310816D+01  0.1000000000D+01
 Atom O3       Shell    44 S   1     bf  134 -   134          1.119293610397          3.830385031287         -0.494306297527
      0.4647474099D+00  0.1000000000D+01
 Atom O3       Shell    45 S   1     bf  135 -   135          1.119293610397          3.830385031287         -0.494306297527
      0.1850453636D+00  0.1000000000D+01
 Atom O3       Shell    46 P   4     bf  136 -   138          1.119293610397          3.830385031287         -0.494306297527
      0.6327495480D+02  0.1201833222D-01
      0.1462704938D+02  0.8300542179D-01
      0.4450122346D+01  0.3199174393D+00
      0.1527579965D+01  0.7071554292D+00
 Atom O3       Shell    47 P   1     bf  139 -   141          1.119293610397          3.830385031287         -0.494306297527
      0.5293511794D+00  0.1000000000D+01
 Atom O3       Shell    48 P   1     bf  142 -   144          1.119293610397          3.830385031287         -0.494306297527
      0.1747842127D+00  0.1000000000D+01
 Atom O3       Shell    49 D   1     bf  145 -   149          1.119293610397          3.830385031287         -0.494306297527
      0.2314000000D+01  0.1000000000D+01
 Atom O3       Shell    50 D   1     bf  150 -   154          1.119293610397          3.830385031287         -0.494306297527
      0.6450000000D+00  0.1000000000D+01
 Atom O3       Shell    51 F   1     bf  155 -   161          1.119293610397          3.830385031287         -0.494306297527
      0.1428000000D+01  0.1000000000D+01
 Atom Br4      Shell    52 S   8     bf  162 -   162         -4.640813275329          0.013359522825         -0.220534188090
      0.5650732526D+06  0.2313996799D-03
      0.8470172318D+05  0.1794480895D-02
      0.1927627190D+05  0.9336632833D-02
      0.5456428458D+04  0.3802214115D-01
      0.1776950350D+04  0.1243860819D+00
      0.6391939828D+03  0.2976826547D+00
      0.2487882396D+03  0.4351247869D+00
      0.9867830549D+02  0.2384543263D+00
 Atom Br4      Shell    53 S   4     bf  163 -   163         -4.640813275329          0.013359522825         -0.220534188090
      0.6060782457D+03 -0.2580299811D-01
      0.1884559848D+03 -0.1214377016D+00
      0.3149714451D+02  0.5492715414D+00
      0.1373600832D+02  0.5403867432D+00
 Atom Br4      Shell    54 S   2     bf  164 -   164         -4.640813275329          0.013359522825         -0.220534188090
      0.2120321277D+02 -0.4189765707D+00
      0.3761642018D+01  0.1196292202D+01
 Atom Br4      Shell    55 S   1     bf  165 -   165         -4.640813275329          0.013359522825         -0.220534188090
      0.1773593396D+01  0.1000000000D+01
 Atom Br4      Shell    56 S   1     bf  166 -   166         -4.640813275329          0.013359522825         -0.220534188090
      0.4519741366D+00  0.1000000000D+01
 Atom Br4      Shell    57 S   1     bf  167 -   167         -4.640813275329          0.013359522825         -0.220534188090
      0.1661337710D+00  0.1000000000D+01
 Atom Br4      Shell    58 P   6     bf  168 -   170         -4.640813275329          0.013359522825         -0.220534188090
      0.3019695572D+04  0.2697896720D-02
      0.7153548113D+03  0.2206117705D-01
      0.2299832875D+03  0.1046886297D+00
      0.8616784462D+02  0.3030971016D+00
      0.3466787080D+02  0.4819318191D+00
      0.1411387031D+02  0.2637288336D+00
 Atom Br4      Shell    59 P   4     bf  171 -   173         -4.640813275329          0.013359522825         -0.220534188090
      0.5708565308D+02 -0.1928818758D-01
      0.8819384584D+01  0.2886445949D+00
      0.3934030287D+01  0.5105806350D+00
      0.1799883038D+01  0.2962687446D+00
 Atom Br4      Shell    60 P   1     bf  174 -   176         -4.640813275329          0.013359522825         -0.220534188090
      0.6689941051D+00  0.1000000000D+01
 Atom Br4      Shell    61 P   1     bf  177 -   179         -4.640813275329          0.013359522825         -0.220534188090
      0.2713623823D+00  0.1000000000D+01
 Atom Br4      Shell    62 P   1     bf  180 -   182         -4.640813275329          0.013359522825         -0.220534188090
      0.1008379024D+00  0.1000000000D+01
 Atom Br4      Shell    63 D   5     bf  183 -   187         -4.640813275329          0.013359522825         -0.220534188090
      0.1688537026D+03  0.9842827717D-02
      0.4997794992D+02  0.6812837709D-01
      0.1827491334D+02  0.2357380148D+00
      0.7245569463D+01  0.4427795439D+00
      0.2856231503D+01  0.4633455553D+00
 Atom Br4      Shell    64 D   1     bf  188 -   192         -4.640813275329          0.013359522825         -0.220534188090
      0.1045962114D+01  0.1000000000D+01
 Atom Br4      Shell    65 D   1     bf  193 -   197         -4.640813275329          0.013359522825         -0.220534188090
      0.5686565500D+00  0.1000000000D+01
 Atom Br4      Shell    66 D   1     bf  198 -   202         -4.640813275329          0.013359522825         -0.220534188090
      0.2203149000D+00  0.1000000000D+01
 Atom Br4      Shell    67 F   1     bf  203 -   209         -4.640813275329          0.013359522825         -0.220534188090
      0.5708331200D+00  0.1000000000D+01
 Atom H5       Shell    68 S   3     bf  210 -   210          1.239544158067          5.203190503721          0.706375604924
      0.3406134100D+02  0.2543930721D-01
      0.5123574600D+01  0.1900859489D+00
      0.1164662600D+01  0.8524411301D+00
 Atom H5       Shell    69 S   1     bf  211 -   211          1.239544158067          5.203190503721          0.706375604924
      0.3272304100D+00  0.1000000000D+01
 Atom H5       Shell    70 S   1     bf  212 -   212          1.239544158067          5.203190503721          0.706375604924
      0.1030724100D+00  0.1000000000D+01
 Atom H5       Shell    71 P   1     bf  213 -   215          1.239544158067          5.203190503721          0.706375604924
      0.8000000000D+00  0.1000000000D+01
 Atom O6       Shell    72 S   6     bf  216 -   216          5.418991327444         -0.044944471276         -1.190930529340
      0.2703238263D+05  0.5722733521D-03
      0.4052387139D+04  0.4435323349D-02
      0.9223272271D+03  0.2302010771D-01
      0.2612407099D+03  0.9282249067D-01
      0.8535464135D+02  0.2937850001D+00
      0.3103503524D+02  0.6740160450D+00
 Atom O6       Shell    73 S   2     bf  217 -   217          5.418991327444         -0.044944471276         -1.190930529340
      0.1226086073D+02  0.6383993703D+00
      0.4998707601D+01  0.3953458713D+00
 Atom O6       Shell    74 S   1     bf  218 -   218          5.418991327444         -0.044944471276         -1.190930529340
      0.1170310816D+01  0.1000000000D+01
 Atom O6       Shell    75 S   1     bf  219 -   219          5.418991327444         -0.044944471276         -1.190930529340
      0.4647474099D+00  0.1000000000D+01
 Atom O6       Shell    76 S   1     bf  220 -   220          5.418991327444         -0.044944471276         -1.190930529340
      0.1850453636D+00  0.1000000000D+01
 Atom O6       Shell    77 P   4     bf  221 -   223          5.418991327444         -0.044944471276         -1.190930529340
      0.6327495480D+02  0.1201833222D-01
      0.1462704938D+02  0.8300542179D-01
      0.4450122346D+01  0.3199174393D+00
      0.1527579965D+01  0.7071554292D+00
 Atom O6       Shell    78 P   1     bf  224 -   226          5.418991327444         -0.044944471276         -1.190930529340
      0.5293511794D+00  0.1000000000D+01
 Atom O6       Shell    79 P   1     bf  227 -   229          5.418991327444         -0.044944471276         -1.190930529340
      0.1747842127D+00  0.1000000000D+01
 Atom O6       Shell    80 D   1     bf  230 -   234          5.418991327444         -0.044944471276         -1.190930529340
      0.2314000000D+01  0.1000000000D+01
 Atom O6       Shell    81 D   1     bf  235 -   239          5.418991327444         -0.044944471276         -1.190930529340
      0.6450000000D+00  0.1000000000D+01
 Atom O6       Shell    82 F   1     bf  240 -   246          5.418991327444         -0.044944471276         -1.190930529340
      0.1428000000D+01  0.1000000000D+01
 Atom H7       Shell    83 S   3     bf  247 -   247          6.463035153218          1.438895535075         -1.397755404572
      0.3406134100D+02  0.2543930721D-01
      0.5123574600D+01  0.1900859489D+00
      0.1164662600D+01  0.8524411301D+00
 Atom H7       Shell    84 S   1     bf  248 -   248          6.463035153218          1.438895535075         -1.397755404572
      0.3272304100D+00  0.1000000000D+01
 Atom H7       Shell    85 S   1     bf  249 -   249          6.463035153218          1.438895535075         -1.397755404572
      0.1030724100D+00  0.1000000000D+01
 Atom H7       Shell    86 P   1     bf  250 -   252          6.463035153218          1.438895535075         -1.397755404572
      0.8000000000D+00  0.1000000000D+01
 Atom H8       Shell    87 S   3     bf  253 -   253          6.524352918364         -1.497923502809         -1.217427734779
      0.3406134100D+02  0.2543930721D-01
      0.5123574600D+01  0.1900859489D+00
      0.1164662600D+01  0.8524411301D+00
 Atom H8       Shell    88 S   1     bf  254 -   254          6.524352918364         -1.497923502809         -1.217427734779
      0.3272304100D+00  0.1000000000D+01
 Atom H8       Shell    89 S   1     bf  255 -   255          6.524352918364         -1.497923502809         -1.217427734779
      0.1030724100D+00  0.1000000000D+01
 Atom H8       Shell    90 P   1     bf  256 -   258          6.524352918364         -1.497923502809         -1.217427734779
      0.8000000000D+00  0.1000000000D+01
 Atom H9       Shell    91 S   3     bf  259 -   259          1.473872738624         -0.957743285872          5.109787826821
      0.3406134100D+02  0.2543930721D-01
      0.5123574600D+01  0.1900859489D+00
      0.1164662600D+01  0.8524411301D+00
 Atom H9       Shell    92 S   1     bf  260 -   260          1.473872738624         -0.957743285872          5.109787826821
      0.3272304100D+00  0.1000000000D+01
 Atom H9       Shell    93 S   1     bf  261 -   261          1.473872738624         -0.957743285872          5.109787826821
      0.1030724100D+00  0.1000000000D+01
 Atom H9       Shell    94 P   1     bf  262 -   264          1.473872738624         -0.957743285872          5.109787826821
      0.8000000000D+00  0.1000000000D+01
 Atom O10      Shell    95 S   6     bf  265 -   265          1.074572757426         -3.594865409993         -0.149454148804
      0.2703238263D+05  0.5722733521D-03
      0.4052387139D+04  0.4435323349D-02
      0.9223272271D+03  0.2302010771D-01
      0.2612407099D+03  0.9282249067D-01
      0.8535464135D+02  0.2937850001D+00
      0.3103503524D+02  0.6740160450D+00
 Atom O10      Shell    96 S   2     bf  266 -   266          1.074572757426         -3.594865409993         -0.149454148804
      0.1226086073D+02  0.6383993703D+00
      0.4998707601D+01  0.3953458713D+00
 Atom O10      Shell    97 S   1     bf  267 -   267          1.074572757426         -3.594865409993         -0.149454148804
      0.1170310816D+01  0.1000000000D+01
 Atom O10      Shell    98 S   1     bf  268 -   268          1.074572757426         -3.594865409993         -0.149454148804
      0.4647474099D+00  0.1000000000D+01
 Atom O10      Shell    99 S   1     bf  269 -   269          1.074572757426         -3.594865409993         -0.149454148804
      0.1850453636D+00  0.1000000000D+01
 Atom O10      Shell   100 P   4     bf  270 -   272          1.074572757426         -3.594865409993         -0.149454148804
      0.6327495480D+02  0.1201833222D-01
      0.1462704938D+02  0.8300542179D-01
      0.4450122346D+01  0.3199174393D+00
      0.1527579965D+01  0.7071554292D+00
 Atom O10      Shell   101 P   1     bf  273 -   275          1.074572757426         -3.594865409993         -0.149454148804
      0.5293511794D+00  0.1000000000D+01
 Atom O10      Shell   102 P   1     bf  276 -   278          1.074572757426         -3.594865409993         -0.149454148804
      0.1747842127D+00  0.1000000000D+01
 Atom O10      Shell   103 D   1     bf  279 -   283          1.074572757426         -3.594865409993         -0.149454148804
      0.2314000000D+01  0.1000000000D+01
 Atom O10      Shell   104 D   1     bf  284 -   288          1.074572757426         -3.594865409993         -0.149454148804
      0.6450000000D+00  0.1000000000D+01
 Atom O10      Shell   105 F   1     bf  289 -   295          1.074572757426         -3.594865409993         -0.149454148804
      0.1428000000D+01  0.1000000000D+01
 Effective core potential in the form of general ECP input:
      1 0
 Pa1-ECP   5 60
 H component
  1
  2        1.0000000        0.00000000    0.00000000
 S-H projection
  1
  2       15.2691737      475.47573283    0.00000000
 P-H projection
  1
  2        9.9577370      207.66485962    0.00000000
 D-H projection
  1
  2        8.9431413      156.67411988    0.00000000
 F-H projection
  1
  2        7.0104666       67.98223685    0.00000000
 G-H projection
  1
  2       12.2010560      -57.63059989    0.00000000
 
 There are   345 symmetry adapted cartesian basis functions of A   symmetry.
 There are   295 symmetry adapted basis functions of A   symmetry.
   295 basis functions,   558 primitive gaussians,   345 cartesian basis functions
    51 alpha electrons       51 beta electrons
       nuclear repulsion energy       727.0736071604 Hartrees.
 IExCor=  404 DFT=T Ex=B Corr=P86 ExCW=0 ScaHFX=  0.000000
 ScaDFX=  1.000000  1.000000  1.000000  1.000000 ScalE2=  1.000000  1.000000
 IRadAn=      5 IRanWt=     -1 IRanGd=            0 ICorTp=0 IEmpDi=  4
 NAtoms=   10 NActive=   10 NUniq=   10 SFac= 1.00D+00 NAtFMM=   60 NAOKFM=F Big=F
 Integral buffers will be    131072 words long.
 Raffenetti 2 integral format.
 Two-electron integral symmetry is turned on.
 Leave Link  301 at Tue Jul  4 11:12:22 2023, MaxMem=  2147483648 cpu:               0.7 elap:               0.1
 (Enter /home/pcmt/gaussian/g16.C.01/g16/l302.exe)
 NPDir=0 NMtPBC=     1 NCelOv=     1 NCel=       1 NClECP=     1 NCelD=      1
         NCelK=      1 NCelE2=     1 NClLst=     1 CellRange=     0.0.
 One-electron integrals computed using PRISM.
 One-electron integral symmetry used in STVInt
   1 Symmetry operations used in ECPInt.
 ECPInt:  NShTT=    5565 NPrTT=   18162 LenC2=    5263 LenP2D=   12707.
 LDataN:  DoStor=T MaxTD1= 9 Len=  602
 NBasis=   295 RedAO= T EigKep=  6.22D-04  NBF=   295
 NBsUse=   295 1.00D-06 EigRej= -1.00D+00 NBFU=   295
 Precomputing XC quadrature grid using
 IXCGrd= 4 IRadAn=           5 IRanWt=          -1 IRanGd=           0 AccXCQ= 0.00D+00.
 Defaulting to unpruned grid for atomic number  91.
 Generated NRdTot=       0 NPtTot=           0 NUsed=           0 NTot=          32
 NSgBfM=   337   336   336   337   337 MxSgAt=    10 MxSgA2=    10.
 Leave Link  302 at Tue Jul  4 11:12:23 2023, MaxMem=  2147483648 cpu:               6.3 elap:               0.9
 (Enter /home/pcmt/gaussian/g16.C.01/g16/l303.exe)
 DipDrv:  MaxL=1.
 Leave Link  303 at Tue Jul  4 11:12:23 2023, MaxMem=  2147483648 cpu:               0.4 elap:               0.1
 (Enter /home/pcmt/gaussian/g16.C.01/g16/l401.exe)
 ExpMin= 2.32D-02 ExpMax= 5.65D+05 ExpMxC= 1.20D+04 IAcc=3 IRadAn=         5 AccDes= 0.00D+00
 Harris functional with IExCor=  404 and IRadAn=       5 diagonalized for initial guess.
 HarFok:  IExCor=  404 AccDes= 0.00D+00 IRadAn=         5 IDoV= 1 UseB2=F ITyADJ=14
 ICtDFT=  3500011 ScaDFX=  1.000000  1.000000  1.000000  1.000000
 Defaulting to unpruned grid for atomic number  91.
 FoFCou: FMM=F IPFlag=           0 FMFlag=      100000 FMFlg1=           0
         NFxFlg=           0 DoJE=T BraDBF=F KetDBF=T FulRan=T
         wScrn=  0.000000 ICntrl=       500 IOpCl=  0 I1Cent=   200000004 NGrid=           0
         NMat0=    1 NMatS0=      1 NMatT0=    0 NMatD0=    1 NMtDS0=    0 NMtDT0=    0
 Petite list used in FoFCou.
 Harris En= -3321.28289084146    
 JPrj=0 DoOrth=F DoCkMO=F.
 Leave Link  401 at Tue Jul  4 11:12:25 2023, MaxMem=  2147483648 cpu:              16.4 elap:               2.1
 (Enter /home/pcmt/gaussian/g16.C.01/g16/l502.exe)
 Keep J ints in memory in canonical form, NReq=973832043.
 FoFCou: FMM=F IPFlag=           0 FMFlag=           0 FMFlg1=           0
         NFxFlg=           0 DoJE=F BraDBF=F KetDBF=F FulRan=T
         wScrn=  0.000000 ICntrl=       600 IOpCl=  0 I1Cent=           0 NGrid=           0
         NMat0=    1 NMatS0=  43660 NMatT0=    0 NMatD0=    1 NMtDS0=    0 NMtDT0=    0
 Symmetry not used in FoFCou.
 Two-electron integral symmetry not used.
 Closed shell SCF:
 Using DIIS extrapolation, IDIIS=  1040.
 NGot=  2147483648 LenX=  1194120032 LenY=  1194000566
 Requested convergence on RMS density matrix=1.00D-08 within 100 cycles.
 Requested convergence on MAX density matrix=1.00D-06.
 Requested convergence on             energy=1.00D-06.
 No special actions if energy rises.

 Cycle   1  Pass 1  IDiag  1:
 Defaulting to unpruned grid for atomic number  91.
 Defaulting to unpruned grid for atomic number  91.
 Defaulting to unpruned grid for atomic number  91.
 Defaulting to unpruned grid for atomic number  91.
 Defaulting to unpruned grid for atomic number  91.
 Defaulting to unpruned grid for atomic number  91.
 Defaulting to unpruned grid for atomic number  91.
 Defaulting to unpruned grid for atomic number  91.
 E= -3318.71163949489    
 DIIS: error= 4.89D-02 at cycle   1 NSaved=   1.
 NSaved= 1 IEnMin= 1 EnMin= -3318.71163949489     IErMin= 1 ErrMin= 4.89D-02
 ErrMax= 4.89D-02  0.00D+00 EMaxC= 1.00D-01 BMatC= 1.61D+00 BMatP= 1.61D+00
 IDIUse=3 WtCom= 5.11D-01 WtEn= 4.89D-01
 Coeff-Com:  0.100D+01
 Coeff-En:   0.100D+01
 Coeff:      0.100D+01
 Gap=     0.040 Goal=   None    Shift=    0.000
 GapD=    0.040 DampG=0.250 DampE=0.250 DampFc=0.1250 IDamp=-1.
 Damping current iteration by 1.25D-01
 RMSDP=1.32D-02 MaxDP=1.17D+00              OVMax= 9.95D-01

 Cycle   2  Pass 1  IDiag  1:
 E= -3318.77610560041     Delta-E=       -0.064466105516 Rises=F Damp=T
 DIIS: error= 3.44D-02 at cycle   2 NSaved=   2.
 NSaved= 2 IEnMin= 2 EnMin= -3318.77610560041     IErMin= 2 ErrMin= 3.44D-02
 ErrMax= 3.44D-02  0.00D+00 EMaxC= 1.00D-01 BMatC= 3.13D-01 BMatP= 1.61D+00
 IDIUse=3 WtCom= 6.56D-01 WtEn= 3.44D-01
 Coeff-Com: -0.429D-01 0.104D+01
 Coeff-En:   0.472D+00 0.528D+00
 Coeff:      0.134D+00 0.866D+00
 Gap=    -0.007 Goal=   None    Shift=    0.000
 RMSDP=1.19D-02 MaxDP=1.12D+00 DE=-6.45D-02 OVMax= 9.72D-01

 Cycle   3  Pass 1  IDiag  1:
 E= -3317.45684353478     Delta-E=        1.319262065625 Rises=F Damp=F
 DIIS: error= 6.00D-02 at cycle   3 NSaved=   3.
 NSaved= 3 IEnMin= 2 EnMin= -3318.77610560041     IErMin= 2 ErrMin= 3.44D-02
 ErrMax= 6.00D-02  0.00D+00 EMaxC= 1.00D-01 BMatC= 1.97D+00 BMatP= 3.13D-01
 IDIUse=2 WtCom= 0.00D+00 WtEn= 1.00D+00
 EnCoef did     3 forward-backward iterations
 Coeff-En:   0.358D+00 0.443D+00 0.199D+00
 Coeff:      0.358D+00 0.443D+00 0.199D+00
 Gap=    -0.154 Goal=   None    Shift=    0.000
 RMSDP=1.33D-02 MaxDP=1.12D+00 DE= 1.32D+00 OVMax= 9.17D-01

 Cycle   4  Pass 1  IDiag  1:
 E= -3296.21915907666     Delta-E=       21.237684458128 Rises=F Damp=F
 DIIS: error= 4.09D-01 at cycle   4 NSaved=   4.
 NSaved= 4 IEnMin= 2 EnMin= -3318.77610560041     IErMin= 2 ErrMin= 3.44D-02
 ErrMax= 4.09D-01  0.00D+00 EMaxC= 1.00D-01 BMatC= 4.50D+01 BMatP= 3.13D-01
 IDIUse=2 WtCom= 0.00D+00 WtEn= 1.00D+00
 EnCoef did   100 forward-backward iterations
 Coeff-En:   0.670D+00 0.201D-01 0.205D+00 0.106D+00
 Coeff:      0.670D+00 0.201D-01 0.205D+00 0.106D+00
 Gap=     0.019 Goal=   None    Shift=    0.000
 RMSDP=5.01D-03 MaxDP=2.85D-01 DE= 2.12D+01 OVMax= 8.84D-01

 Cycle   5  Pass 1  IDiag  1:
 E= -3318.86134377442     Delta-E=      -22.642184697761 Rises=F Damp=F
 DIIS: error= 7.65D-02 at cycle   5 NSaved=   5.
 NSaved= 5 IEnMin= 5 EnMin= -3318.86134377442     IErMin= 2 ErrMin= 3.44D-02
 ErrMax= 7.65D-02  0.00D+00 EMaxC= 1.00D-01 BMatC= 1.58D+00 BMatP= 3.13D-01
 IDIUse=2 WtCom= 0.00D+00 WtEn= 1.00D+00
 EnCoef did   100 forward-backward iterations
 Coeff-En:   0.474D+00 0.614D-02 0.166D-03 0.000D+00 0.520D+00
 Coeff:      0.474D+00 0.614D-02 0.166D-03 0.000D+00 0.520D+00
 Gap=     0.137 Goal=   None    Shift=    0.000
 RMSDP=2.39D-03 MaxDP=1.32D-01 DE=-2.26D+01 OVMax= 2.87D-01

 Cycle   6  Pass 1  IDiag  1:
 E= -3319.67313073533     Delta-E=       -0.811786960910 Rises=F Damp=F
 DIIS: error= 1.70D-02 at cycle   6 NSaved=   6.
 NSaved= 6 IEnMin= 6 EnMin= -3319.67313073533     IErMin= 6 ErrMin= 1.70D-02
 ErrMax= 1.70D-02  0.00D+00 EMaxC= 1.00D-01 BMatC= 1.24D-01 BMatP= 3.13D-01
 IDIUse=3 WtCom= 8.30D-01 WtEn= 1.70D-01
 Coeff-Com:  0.112D-01 0.232D+00 0.117D-01-0.144D-01 0.211D+00 0.548D+00
 Coeff-En:   0.000D+00 0.000D+00 0.000D+00 0.000D+00 0.184D+00 0.816D+00
 Coeff:      0.928D-02 0.193D+00 0.971D-02-0.120D-01 0.207D+00 0.594D+00
 Gap=     0.153 Goal=   None    Shift=    0.000
 RMSDP=1.20D-03 MaxDP=4.33D-02 DE=-8.12D-01 OVMax= 9.00D-02

 Cycle   7  Pass 1  IDiag  1:
 E= -3319.74288066536     Delta-E=       -0.069749930030 Rises=F Damp=F
 DIIS: error= 1.17D-02 at cycle   7 NSaved=   7.
 NSaved= 7 IEnMin= 7 EnMin= -3319.74288066536     IErMin= 7 ErrMin= 1.17D-02
 ErrMax= 1.17D-02  0.00D+00 EMaxC= 1.00D-01 BMatC= 5.77D-02 BMatP= 1.24D-01
 IDIUse=3 WtCom= 8.83D-01 WtEn= 1.17D-01
 EnCoef did     6 forward-backward iterations
 Coeff-Com: -0.601D-01 0.147D+00-0.101D-01-0.428D-02 0.950D-01 0.428D+00
 Coeff-Com:  0.404D+00
 Coeff-En:   0.000D+00 0.000D+00 0.000D+00 0.000D+00 0.552D-01 0.268D+00
 Coeff-En:   0.677D+00
 Coeff:     -0.531D-01 0.130D+00-0.891D-02-0.378D-02 0.904D-01 0.410D+00
 Coeff:      0.436D+00
 Gap=     0.113 Goal=   None    Shift=    0.000
 RMSDP=5.24D-04 MaxDP=2.95D-02 DE=-6.97D-02 OVMax= 6.65D-02

 Cycle   8  Pass 1  IDiag  1:
 E= -3319.77836701145     Delta-E=       -0.035486346099 Rises=F Damp=F
 DIIS: error= 3.75D-03 at cycle   8 NSaved=   8.
 NSaved= 8 IEnMin= 8 EnMin= -3319.77836701145     IErMin= 8 ErrMin= 3.75D-03
 ErrMax= 3.75D-03  0.00D+00 EMaxC= 1.00D-01 BMatC= 8.45D-03 BMatP= 5.77D-02
 IDIUse=3 WtCom= 9.62D-01 WtEn= 3.75D-02
 Coeff-Com: -0.460D-01 0.790D-01-0.120D-01-0.350D-03 0.409D-01 0.181D+00
 Coeff-Com:  0.283D+00 0.474D+00
 Coeff-En:   0.000D+00 0.000D+00 0.000D+00 0.000D+00 0.000D+00 0.000D+00
 Coeff-En:   0.565D-01 0.943D+00
 Coeff:     -0.443D-01 0.761D-01-0.115D-01-0.337D-03 0.393D-01 0.174D+00
 Coeff:      0.275D+00 0.492D+00
 Gap=     0.100 Goal=   None    Shift=    0.000
 RMSDP=2.47D-04 MaxDP=1.01D-02 DE=-3.55D-02 OVMax= 2.41D-02

 Cycle   9  Pass 1  IDiag  1:
 E= -3319.78265397661     Delta-E=       -0.004286965160 Rises=F Damp=F
 DIIS: error= 2.76D-03 at cycle   9 NSaved=   9.
 NSaved= 9 IEnMin= 9 EnMin= -3319.78265397661     IErMin= 9 ErrMin= 2.76D-03
 ErrMax= 2.76D-03  0.00D+00 EMaxC= 1.00D-01 BMatC= 4.35D-03 BMatP= 8.45D-03
 IDIUse=3 WtCom= 9.72D-01 WtEn= 2.76D-02
 Coeff-Com: -0.211D-01 0.206D-01-0.974D-02 0.967D-03 0.164D-01-0.137D-01
 Coeff-Com:  0.473D-01 0.339D+00 0.620D+00
 Coeff-En:   0.000D+00 0.000D+00 0.000D+00 0.000D+00 0.000D+00 0.000D+00
 Coeff-En:   0.000D+00 0.114D+00 0.886D+00
 Coeff:     -0.205D-01 0.200D-01-0.947D-02 0.940D-03 0.160D-01-0.134D-01
 Coeff:      0.460D-01 0.333D+00 0.628D+00
 Gap=     0.092 Goal=   None    Shift=    0.000
 RMSDP=2.45D-04 MaxDP=1.68D-02 DE=-4.29D-03 OVMax= 2.11D-02

 Cycle  10  Pass 1  IDiag  1:
 E= -3319.78695609359     Delta-E=       -0.004302116971 Rises=F Damp=F
 DIIS: error= 1.00D-03 at cycle  10 NSaved=  10.
 NSaved=10 IEnMin=10 EnMin= -3319.78695609359     IErMin=10 ErrMin= 1.00D-03
 ErrMax= 1.00D-03  0.00D+00 EMaxC= 1.00D-01 BMatC= 9.57D-04 BMatP= 4.35D-03
 IDIUse=3 WtCom= 9.90D-01 WtEn= 1.00D-02
 Coeff-Com:  0.202D-02-0.132D-01-0.473D-02 0.710D-03 0.667D-02-0.634D-01
 Coeff-Com: -0.331D-01 0.163D+00 0.464D+00 0.478D+00
 Coeff-En:   0.000D+00 0.000D+00 0.000D+00 0.000D+00 0.000D+00 0.000D+00
 Coeff-En:   0.000D+00 0.000D+00 0.000D+00 0.100D+01
 Coeff:      0.200D-02-0.131D-01-0.468D-02 0.703D-03 0.660D-02-0.627D-01
 Coeff:     -0.328D-01 0.162D+00 0.459D+00 0.483D+00
 Gap=     0.088 Goal=   None    Shift=    0.000
 RMSDP=2.38D-04 MaxDP=1.39D-02 DE=-4.30D-03 OVMax= 2.57D-02

 Cycle  11  Pass 1  IDiag  1:
 E= -3319.78751933684     Delta-E=       -0.000563243257 Rises=F Damp=F
 DIIS: error= 2.51D-03 at cycle  11 NSaved=  11.
 NSaved=11 IEnMin=11 EnMin= -3319.78751933684     IErMin=10 ErrMin= 1.00D-03
 ErrMax= 2.51D-03  0.00D+00 EMaxC= 1.00D-01 BMatC= 3.34D-03 BMatP= 9.57D-04
 IDIUse=3 WtCom= 9.90D-01 WtEn= 1.00D-02
 Coeff-Com:  0.594D-02-0.114D-01-0.752D-03 0.484D-03 0.153D-02-0.530D-01
 Coeff-Com: -0.138D-01 0.177D+00 0.375D+00 0.230D+00 0.290D+00
 Coeff-En:   0.000D+00 0.000D+00 0.000D+00 0.000D+00 0.000D+00 0.000D+00
 Coeff-En:   0.000D+00 0.000D+00 0.000D+00 0.286D+00 0.714D+00
 Coeff:      0.588D-02-0.113D-01-0.744D-03 0.479D-03 0.151D-02-0.524D-01
 Coeff:     -0.137D-01 0.175D+00 0.371D+00 0.230D+00 0.294D+00
 Gap=     0.086 Goal=   None    Shift=    0.000
 RMSDP=3.50D-05 MaxDP=4.29D-03 DE=-5.63D-04 OVMax= 2.58D-03

 Cycle  12  Pass 1  IDiag  1:
 E= -3319.78773945269     Delta-E=       -0.000220115851 Rises=F Damp=F
 DIIS: error= 2.31D-03 at cycle  12 NSaved=  12.
 NSaved=12 IEnMin=12 EnMin= -3319.78773945269     IErMin=10 ErrMin= 1.00D-03
 ErrMax= 2.31D-03  0.00D+00 EMaxC= 1.00D-01 BMatC= 2.47D-03 BMatP= 9.57D-04
 IDIUse=3 WtCom= 9.90D-01 WtEn= 1.00D-02
 Coeff-Com: -0.117D-02 0.302D-02 0.447D-03 0.228D-03-0.100D-01 0.544D-01
 Coeff-Com:  0.108D+00 0.288D+00 0.134D+00-0.103D+01-0.107D+01 0.252D+01
 Coeff-En:   0.000D+00 0.000D+00 0.000D+00 0.000D+00 0.000D+00 0.000D+00
 Coeff-En:   0.000D+00 0.000D+00 0.000D+00 0.789D-01 0.000D+00 0.921D+00
 Coeff:     -0.116D-02 0.299D-02 0.442D-03 0.225D-03-0.991D-02 0.538D-01
 Coeff:      0.107D+00 0.285D+00 0.132D+00-0.102D+01-0.106D+01 0.250D+01
 Gap=     0.096 Goal=   None    Shift=    0.000
 RMSDP=1.96D-04 MaxDP=2.02D-02 DE=-2.20D-04 OVMax= 1.89D-02

 Cycle  13  Pass 1  IDiag  1:
 E= -3319.78799065717     Delta-E=       -0.000251204474 Rises=F Damp=F
 DIIS: error= 8.67D-04 at cycle  13 NSaved=  13.
 NSaved=13 IEnMin=13 EnMin= -3319.78799065717     IErMin=13 ErrMin= 8.67D-04
 ErrMax= 8.67D-04  0.00D+00 EMaxC= 1.00D-01 BMatC= 6.69D-04 BMatP= 9.57D-04
 IDIUse=3 WtCom= 9.91D-01 WtEn= 8.67D-03
 Coeff-Com:  0.304D-02-0.591D-02 0.146D-02 0.881D-04-0.163D-01 0.519D-01
 Coeff-Com:  0.764D-01 0.139D+00-0.846D-01-0.989D+00-0.111D+01 0.245D+01
 Coeff-Com:  0.486D+00
 Coeff-En:   0.000D+00 0.000D+00 0.000D+00 0.000D+00 0.000D+00 0.000D+00
 Coeff-En:   0.000D+00 0.000D+00 0.000D+00 0.000D+00 0.000D+00 0.428D+00
 Coeff-En:   0.572D+00
 Coeff:      0.302D-02-0.586D-02 0.144D-02 0.874D-04-0.161D-01 0.514D-01
 Coeff:      0.758D-01 0.138D+00-0.839D-01-0.981D+00-0.110D+01 0.243D+01
 Coeff:      0.487D+00
 Gap=     0.095 Goal=   None    Shift=    0.000
 RMSDP=2.18D-04 MaxDP=1.27D-02 DE=-2.51D-04 OVMax= 2.71D-02

 Cycle  14  Pass 1  IDiag  1:
 E= -3319.78932262556     Delta-E=       -0.001331968388 Rises=F Damp=F
 DIIS: error= 3.93D-04 at cycle  14 NSaved=  14.
 NSaved=14 IEnMin=14 EnMin= -3319.78932262556     IErMin=14 ErrMin= 3.93D-04
 ErrMax= 3.93D-04  0.00D+00 EMaxC= 1.00D-01 BMatC= 1.07D-04 BMatP= 6.69D-04
 IDIUse=3 WtCom= 9.96D-01 WtEn= 3.93D-03
 Coeff-Com:  0.161D-02-0.157D-02-0.714D-03 0.587D-04-0.599D-02 0.228D-01
 Coeff-Com:  0.172D-01 0.214D-01-0.395D-01-0.401D+00-0.491D+00 0.866D+00
 Coeff-Com:  0.275D+00 0.736D+00
 Coeff-En:   0.000D+00 0.000D+00 0.000D+00 0.000D+00 0.000D+00 0.000D+00
 Coeff-En:   0.000D+00 0.000D+00 0.000D+00 0.000D+00 0.000D+00 0.000D+00
 Coeff-En:   0.000D+00 0.100D+01
 Coeff:      0.161D-02-0.156D-02-0.711D-03 0.585D-04-0.597D-02 0.227D-01
 Coeff:      0.171D-01 0.214D-01-0.393D-01-0.400D+00-0.489D+00 0.862D+00
 Coeff:      0.274D+00 0.737D+00
 Gap=     0.090 Goal=   None    Shift=    0.000
 RMSDP=3.85D-05 MaxDP=2.81D-03 DE=-1.33D-03 OVMax= 5.32D-03

 Cycle  15  Pass 1  IDiag  1:
 E= -3319.78930553065     Delta-E=        0.000017094906 Rises=F Damp=F
 DIIS: error= 2.95D-04 at cycle  15 NSaved=  15.
 NSaved=15 IEnMin=14 EnMin= -3319.78932262556     IErMin=15 ErrMin= 2.95D-04
 ErrMax= 2.95D-04  0.00D+00 EMaxC= 1.00D-01 BMatC= 5.96D-05 BMatP= 1.07D-04
 IDIUse=3 WtCom= 9.97D-01 WtEn= 2.95D-03
 Coeff-Com:  0.396D-03-0.704D-03-0.878D-03 0.727D-04-0.229D-02 0.120D-01
 Coeff-Com:  0.939D-02 0.192D-01 0.310D-03-0.178D+00-0.241D+00 0.373D+00
 Coeff-Com:  0.175D+00 0.394D+00 0.439D+00
 Coeff-En:   0.000D+00 0.000D+00 0.000D+00 0.000D+00 0.000D+00 0.000D+00
 Coeff-En:   0.000D+00 0.000D+00 0.000D+00 0.000D+00 0.000D+00 0.000D+00
 Coeff-En:   0.000D+00 0.655D+00 0.345D+00
 Coeff:      0.395D-03-0.702D-03-0.876D-03 0.725D-04-0.228D-02 0.120D-01
 Coeff:      0.936D-02 0.191D-01 0.309D-03-0.177D+00-0.240D+00 0.372D+00
 Coeff:      0.175D+00 0.395D+00 0.438D+00
 Gap=     0.092 Goal=   None    Shift=    0.000
 RMSDP=4.89D-05 MaxDP=2.76D-03 DE= 1.71D-05 OVMax= 7.00D-03

 Cycle  16  Pass 1  IDiag  1:
 E= -3319.78934698019     Delta-E=       -0.000041449543 Rises=F Damp=F
 DIIS: error= 1.33D-04 at cycle  16 NSaved=  16.
 NSaved=16 IEnMin=16 EnMin= -3319.78934698019     IErMin=16 ErrMin= 1.33D-04
 ErrMax= 1.33D-04  0.00D+00 EMaxC= 1.00D-01 BMatC= 1.21D-05 BMatP= 5.96D-05
 IDIUse=3 WtCom= 9.99D-01 WtEn= 1.33D-03
 EnCoef did     3 forward-backward iterations
 Coeff-Com:  0.643D-03-0.650D-03-0.199D-03 0.348D-04-0.125D-02 0.183D-02
 Coeff-Com: -0.128D-02-0.327D-02-0.263D-02-0.292D-01 0.253D-02-0.665D-02
 Coeff-Com:  0.422D-01 0.212D+00 0.285D+00 0.501D+00
 Coeff-En:   0.000D+00 0.000D+00 0.000D+00 0.000D+00 0.000D+00 0.000D+00
 Coeff-En:   0.000D+00 0.000D+00 0.000D+00 0.000D+00 0.000D+00 0.000D+00
 Coeff-En:   0.000D+00 0.178D-01 0.247D+00 0.735D+00
 Coeff:      0.642D-03-0.649D-03-0.198D-03 0.348D-04-0.125D-02 0.183D-02
 Coeff:     -0.128D-02-0.326D-02-0.263D-02-0.292D-01 0.253D-02-0.664D-02
 Coeff:      0.422D-01 0.212D+00 0.285D+00 0.501D+00
 Gap=     0.091 Goal=   None    Shift=    0.000
 RMSDP=3.30D-05 MaxDP=1.89D-03 DE=-4.14D-05 OVMax= 4.30D-03

 Cycle  17  Pass 1  IDiag  1:
 E= -3319.78935911560     Delta-E=       -0.000012135412 Rises=F Damp=F
 DIIS: error= 1.07D-04 at cycle  17 NSaved=  17.
 NSaved=17 IEnMin=17 EnMin= -3319.78935911560     IErMin=17 ErrMin= 1.07D-04
 ErrMax= 1.07D-04  0.00D+00 EMaxC= 1.00D-01 BMatC= 8.01D-06 BMatP= 1.21D-05
 IDIUse=3 WtCom= 9.99D-01 WtEn= 1.07D-03
 Coeff-Com:  0.262D-03-0.231D-03-0.937D-04 0.144D-04-0.345D-03-0.261D-03
 Coeff-Com: -0.144D-02-0.134D-02 0.287D-02 0.592D-02 0.258D-01-0.525D-01
 Coeff-Com:  0.135D-01 0.615D-01 0.105D+00 0.390D+00 0.452D+00
 Coeff-En:   0.000D+00 0.000D+00 0.000D+00 0.000D+00 0.000D+00 0.000D+00
 Coeff-En:   0.000D+00 0.000D+00 0.000D+00 0.000D+00 0.000D+00 0.000D+00
 Coeff-En:   0.000D+00 0.000D+00 0.000D+00 0.277D+00 0.723D+00
 Coeff:      0.261D-03-0.231D-03-0.936D-04 0.144D-04-0.345D-03-0.261D-03
 Coeff:     -0.144D-02-0.134D-02 0.287D-02 0.591D-02 0.258D-01-0.524D-01
 Coeff:      0.135D-01 0.614D-01 0.104D+00 0.390D+00 0.452D+00
 Gap=     0.091 Goal=   None    Shift=    0.000
 RMSDP=1.02D-05 MaxDP=5.76D-04 DE=-1.21D-05 OVMax= 1.34D-03

 Cycle  18  Pass 1  IDiag  1:
 E= -3319.78936545749     Delta-E=       -0.000006341883 Rises=F Damp=F
 DIIS: error= 2.16D-05 at cycle  18 NSaved=  18.
 NSaved=18 IEnMin=18 EnMin= -3319.78936545749     IErMin=18 ErrMin= 2.16D-05
 ErrMax= 2.16D-05  0.00D+00 EMaxC= 1.00D-01 BMatC= 3.66D-07 BMatP= 8.01D-06
 IDIUse=1 WtCom= 1.00D+00 WtEn= 0.00D+00
 Coeff-Com:  0.304D-04-0.548D-04-0.791D-05 0.199D-05 0.208D-04-0.456D-03
 Coeff-Com: -0.561D-03-0.109D-03 0.201D-02 0.728D-02 0.801D-02-0.248D-01
 Coeff-Com:  0.348D-02-0.623D-02 0.162D-02 0.134D+00 0.238D+00 0.637D+00
 Coeff:      0.304D-04-0.548D-04-0.791D-05 0.199D-05 0.208D-04-0.456D-03
 Coeff:     -0.561D-03-0.109D-03 0.201D-02 0.728D-02 0.801D-02-0.248D-01
 Coeff:      0.348D-02-0.623D-02 0.162D-02 0.134D+00 0.238D+00 0.637D+00
 Gap=     0.092 Goal=   None    Shift=    0.000
 RMSDP=2.25D-06 MaxDP=1.86D-04 DE=-6.34D-06 OVMax= 2.72D-04

 Cycle  19  Pass 1  IDiag  1:
 E= -3319.78936557254     Delta-E=       -0.000000115049 Rises=F Damp=F
 DIIS: error= 4.94D-06 at cycle  19 NSaved=  19.
 NSaved=19 IEnMin=19 EnMin= -3319.78936557254     IErMin=19 ErrMin= 4.94D-06
 ErrMax= 4.94D-06  0.00D+00 EMaxC= 1.00D-01 BMatC= 2.26D-08 BMatP= 3.66D-07
 IDIUse=1 WtCom= 1.00D+00 WtEn= 0.00D+00
 Coeff-Com:  0.738D-05-0.197D-04 0.235D-05 0.436D-06 0.142D-04-0.949D-04
 Coeff-Com: -0.139D-03-0.165D-03 0.359D-03 0.157D-02 0.108D-02-0.822D-02
 Coeff-Com:  0.925D-03-0.244D-02 0.297D-02 0.315D-01 0.863D-01 0.260D+00
 Coeff-Com:  0.626D+00
 Coeff:      0.738D-05-0.197D-04 0.235D-05 0.436D-06 0.142D-04-0.949D-04
 Coeff:     -0.139D-03-0.165D-03 0.359D-03 0.157D-02 0.108D-02-0.822D-02
 Coeff:      0.925D-03-0.244D-02 0.297D-02 0.315D-01 0.863D-01 0.260D+00
 Coeff:      0.626D+00
 Gap=     0.092 Goal=   None    Shift=    0.000
 RMSDP=1.17D-06 MaxDP=6.95D-05 DE=-1.15D-07 OVMax= 1.63D-04

 Cycle  20  Pass 1  IDiag  1:
 E= -3319.78936562773     Delta-E=       -0.000000055197 Rises=F Damp=F
 DIIS: error= 2.15D-06 at cycle  20 NSaved=  20.
 NSaved=20 IEnMin=20 EnMin= -3319.78936562773     IErMin=20 ErrMin= 2.15D-06
 ErrMax= 2.15D-06  0.00D+00 EMaxC= 1.00D-01 BMatC= 2.75D-09 BMatP= 2.26D-08
 IDIUse=1 WtCom= 1.00D+00 WtEn= 0.00D+00
 Coeff-Com: -0.136D-05-0.492D-05 0.806D-06 0.834D-08 0.984D-05-0.749D-05
 Coeff-Com: -0.826D-05-0.220D-04 0.634D-04 0.420D-03 0.210D-03-0.261D-02
 Coeff-Com:  0.212D-04-0.124D-02 0.118D-02 0.488D-02 0.161D-01 0.621D-01
 Coeff-Com:  0.214D+00 0.705D+00
 Coeff:     -0.136D-05-0.492D-05 0.806D-06 0.834D-08 0.984D-05-0.749D-05
 Coeff:     -0.826D-05-0.220D-04 0.634D-04 0.420D-03 0.210D-03-0.261D-02
 Coeff:      0.212D-04-0.124D-02 0.118D-02 0.488D-02 0.161D-01 0.621D-01
 Coeff:      0.214D+00 0.705D+00
 Gap=     0.092 Goal=   None    Shift=    0.000
 RMSDP=1.23D-07 MaxDP=1.39D-05 DE=-5.52D-08 OVMax= 9.10D-06

 Cycle  21  Pass 1  IDiag  1:
 E= -3319.78936562908     Delta-E=       -0.000000001347 Rises=F Damp=F
 DIIS: error= 4.38D-07 at cycle  21 NSaved=  20.
 NSaved=20 IEnMin=20 EnMin= -3319.78936562908     IErMin=20 ErrMin= 4.38D-07
 ErrMax= 4.38D-07  0.00D+00 EMaxC= 1.00D-01 BMatC= 7.35D-11 BMatP= 2.75D-09
 IDIUse=1 WtCom= 1.00D+00 WtEn= 0.00D+00
 Coeff-Com: -0.555D-06-0.996D-06 0.204D-06 0.186D-05 0.300D-05 0.174D-05
 Coeff-Com:  0.258D-05 0.170D-04 0.916D-04 0.768D-04-0.573D-03-0.124D-03
 Coeff-Com: -0.262D-03 0.255D-03-0.746D-03 0.963D-04 0.456D-02 0.293D-01
 Coeff-Com:  0.246D+00 0.722D+00
 Coeff:     -0.555D-06-0.996D-06 0.204D-06 0.186D-05 0.300D-05 0.174D-05
 Coeff:      0.258D-05 0.170D-04 0.916D-04 0.768D-04-0.573D-03-0.124D-03
 Coeff:     -0.262D-03 0.255D-03-0.746D-03 0.963D-04 0.456D-02 0.293D-01
 Coeff:      0.246D+00 0.722D+00
 Gap=     0.092 Goal=   None    Shift=    0.000
 RMSDP=3.29D-08 MaxDP=2.22D-06 DE=-1.35D-09 OVMax= 3.51D-06

 Cycle  22  Pass 1  IDiag  1:
 E= -3319.78936562916     Delta-E=       -0.000000000082 Rises=F Damp=F
 DIIS: error= 9.00D-08 at cycle  22 NSaved=  20.
 NSaved=20 IEnMin=20 EnMin= -3319.78936562916     IErMin=20 ErrMin= 9.00D-08
 ErrMax= 9.00D-08  0.00D+00 EMaxC= 1.00D-01 BMatC= 6.20D-12 BMatP= 7.35D-11
 IDIUse=1 WtCom= 1.00D+00 WtEn= 0.00D+00
 Coeff-Com: -0.168D-06-0.283D-06 0.223D-06 0.233D-05 0.167D-05 0.364D-05
 Coeff-Com:  0.892D-05 0.282D-04 0.405D-04-0.145D-03-0.854D-04-0.626D-05
 Coeff-Com:  0.860D-04-0.865D-03-0.968D-03-0.280D-02-0.806D-03 0.797D-01
 Coeff-Com:  0.380D+00 0.546D+00
 Coeff:     -0.168D-06-0.283D-06 0.223D-06 0.233D-05 0.167D-05 0.364D-05
 Coeff:      0.892D-05 0.282D-04 0.405D-04-0.145D-03-0.854D-04-0.626D-05
 Coeff:      0.860D-04-0.865D-03-0.968D-03-0.280D-02-0.806D-03 0.797D-01
 Coeff:      0.380D+00 0.546D+00
 Gap=     0.092 Goal=   None    Shift=    0.000
 RMSDP=7.64D-09 MaxDP=5.01D-07 DE=-8.19D-11 OVMax= 8.45D-07

 SCF Done:  E(RB-P86) =  -3319.78936563     A.U. after   22 cycles
            NFock= 22  Conv=0.76D-08     -V/T= 2.0924
 KE= 3.038997053209D+03 PE=-9.248377317714D+03 EE= 2.162517291715D+03
 Leave Link  502 at Tue Jul  4 11:14:39 2023, MaxMem=  2147483648 cpu:             714.9 elap:             134.2
 (Enter /home/pcmt/gaussian/g16.C.01/g16/l601.exe)
 Copying SCF densities to generalized density rwf, IOpCl= 0 IROHF=0.

 **********************************************************************

            Population analysis using the SCF Density.

 **********************************************************************

 Orbital symmetries:
       Occupied  (A) (A) (A) (A) (A) (A) (A) (A) (A) (A) (A) (A)
                 (A) (A) (A) (A) (A) (A) (A) (A) (A) (A) (A) (A)
                 (A) (A) (A) (A) (A) (A) (A) (A) (A) (A) (A) (A)
                 (A) (A) (A) (A) (A) (A) (A) (A) (A) (A) (A) (A)
                 (A) (A) (A)
       Virtual   (A) (A) (A) (A) (A) (A) (A) (A) (A) (A) (A) (A)
                 (A) (A) (A) (A) (A) (A) (A) (A) (A) (A) (A) (A)
                 (A) (A) (A) (A) (A) (A) (A) (A) (A) (A) (A) (A)
                 (A) (A) (A) (A) (A) (A) (A) (A) (A) (A) (A) (A)
                 (A) (A) (A) (A) (A) (A) (A) (A) (A) (A) (A) (A)
                 (A) (A) (A) (A) (A) (A) (A) (A) (A) (A) (A) (A)
                 (A) (A) (A) (A) (A) (A) (A) (A) (A) (A) (A) (A)
                 (A) (A) (A) (A) (A) (A) (A) (A) (A) (A) (A) (A)
                 (A) (A) (A) (A) (A) (A) (A) (A) (A) (A) (A) (A)
                 (A) (A) (A) (A) (A) (A) (A) (A) (A) (A) (A) (A)
                 (A) (A) (A) (A) (A) (A) (A) (A) (A) (A) (A) (A)
                 (A) (A) (A) (A) (A) (A) (A) (A) (A) (A) (A) (A)
                 (A) (A) (A) (A) (A) (A) (A) (A) (A) (A) (A) (A)
                 (A) (A) (A) (A) (A) (A) (A) (A) (A) (A) (A) (A)
                 (A) (A) (A) (A) (A) (A) (A) (A) (A) (A) (A) (A)
                 (A) (A) (A) (A) (A) (A) (A) (A) (A) (A) (A) (A)
                 (A) (A) (A) (A) (A) (A) (A) (A) (A) (A) (A) (A)
                 (A) (A) (A) (A) (A) (A) (A) (A) (A) (A) (A) (A)
                 (A) (A) (A) (A) (A) (A) (A) (A) (A) (A) (A) (A)
                 (A) (A) (A) (A) (A) (A) (A) (A) (A) (A) (A) (A)
                 (A) (A) (A) (A)
 The electronic state is 1-A.
 Alpha  occ. eigenvalues -- -481.08050 -61.77188 -55.68374 -55.68306 -55.68268
 Alpha  occ. eigenvalues --  -18.87869 -18.78064 -18.75977 -18.74174 -11.08271
 Alpha  occ. eigenvalues --   -8.34582  -7.15273  -7.15144  -7.13434  -6.21772
 Alpha  occ. eigenvalues --   -6.21581  -6.21468  -3.51116  -3.51061  -3.50206
 Alpha  occ. eigenvalues --   -3.50071  -3.49423  -2.42214  -2.42176  -2.42093
 Alpha  occ. eigenvalues --   -2.41947  -2.41938  -1.71232  -1.03669  -0.97966
 Alpha  occ. eigenvalues --   -0.92062  -0.88436  -0.83245  -0.79539  -0.67843
 Alpha  occ. eigenvalues --   -0.62902  -0.58961  -0.46929  -0.43974  -0.41555
 Alpha  occ. eigenvalues --   -0.37731  -0.32173  -0.31039  -0.28748  -0.28390
 Alpha  occ. eigenvalues --   -0.28130  -0.27796  -0.24955  -0.24042  -0.21818
 Alpha  occ. eigenvalues --   -0.21007
 Alpha virt. eigenvalues --   -0.11854  -0.10808  -0.10444  -0.10396  -0.09248
 Alpha virt. eigenvalues --   -0.07785  -0.06944  -0.05980  -0.02341  -0.01351
 Alpha virt. eigenvalues --   -0.01188   0.00773   0.00915   0.02405   0.04995
 Alpha virt. eigenvalues --    0.05223   0.06289   0.07338   0.08746   0.09323
 Alpha virt. eigenvalues --    0.11869   0.18505   0.21117   0.21965   0.23359
 Alpha virt. eigenvalues --    0.24426   0.25138   0.25604   0.26664   0.26831
 Alpha virt. eigenvalues --    0.27471   0.28525   0.28980   0.30176   0.31060
 Alpha virt. eigenvalues --    0.32425   0.35592   0.35947   0.37761   0.38629
 Alpha virt. eigenvalues --    0.39960   0.41233   0.43074   0.43712   0.44319
 Alpha virt. eigenvalues --    0.45544   0.47803   0.49072   0.51206   0.52393
 Alpha virt. eigenvalues --    0.53721   0.56018   0.56868   0.58913   0.62385
 Alpha virt. eigenvalues --    0.63505   0.64828   0.66182   0.67040   0.67713
 Alpha virt. eigenvalues --    0.70754   0.72855   0.78246   0.84009   0.90409
 Alpha virt. eigenvalues --    0.94083   1.01426   1.03222   1.03479   1.04308
 Alpha virt. eigenvalues --    1.09148   1.10191   1.10918   1.11852   1.13204
 Alpha virt. eigenvalues --    1.14364   1.15900   1.16567   1.17839   1.19366
 Alpha virt. eigenvalues --    1.21941   1.23651   1.25147   1.27846   1.30101
 Alpha virt. eigenvalues --    1.32453   1.34289   1.36873   1.37214   1.38031
 Alpha virt. eigenvalues --    1.40168   1.41245   1.42424   1.43278   1.43615
 Alpha virt. eigenvalues --    1.49224   1.50597   1.51543   1.52059   1.52989
 Alpha virt. eigenvalues --    1.54105   1.55876   1.56945   1.59052   1.59571
 Alpha virt. eigenvalues --    1.61509   1.62254   1.63180   1.64587   1.66487
 Alpha virt. eigenvalues --    1.66809   1.72115   1.73553   1.75376   1.78068
 Alpha virt. eigenvalues --    1.78453   1.82952   1.83449   1.85130   1.87581
 Alpha virt. eigenvalues --    1.90845   1.92294   1.96474   1.98152   2.04264
 Alpha virt. eigenvalues --    2.09324   2.10398   2.14733   2.16894   2.17283
 Alpha virt. eigenvalues --    2.21416   2.25760   2.27217   2.28438   2.35459
 Alpha virt. eigenvalues --    2.43492   2.46029   2.46793   2.47255   2.52489
 Alpha virt. eigenvalues --    2.56568   2.61035   2.62551   2.64921   2.66482
 Alpha virt. eigenvalues --    2.81238   2.85383   2.88926   2.94269   2.97832
 Alpha virt. eigenvalues --    3.17458   3.36267   3.47363   3.59853   3.68322
 Alpha virt. eigenvalues --    3.68818   3.70294   3.73325   3.81400   3.81651
 Alpha virt. eigenvalues --    3.84488   3.87732   3.95021   3.95595   3.97630
 Alpha virt. eigenvalues --    4.02224   4.06796   4.08135   4.16554   4.28049
 Alpha virt. eigenvalues --    4.90902   4.99829   5.00478   5.01923   5.02484
 Alpha virt. eigenvalues --    5.03927   5.04762   5.05723   5.07977   5.10531
 Alpha virt. eigenvalues --    5.11441   5.12945   5.14402   5.15514   5.16810
 Alpha virt. eigenvalues --    5.18781   5.20750   5.22436   5.28074   5.30210
 Alpha virt. eigenvalues --    5.31046   5.33787   5.38333   5.43418   5.78117
 Alpha virt. eigenvalues --    5.99474   6.04532   6.09987   6.11841   6.13723
 Alpha virt. eigenvalues --    6.15491   6.15896   6.19619   6.21533   6.22555
 Alpha virt. eigenvalues --    6.29108   6.34017   6.37158   6.42018   6.48393
 Alpha virt. eigenvalues --    6.58286   6.60465   6.66953   6.69805   6.74899
 Alpha virt. eigenvalues --    6.79747   6.81178   6.91747   6.98719   7.11179
 Alpha virt. eigenvalues --    7.24887   7.42322   7.48202   8.12437   8.17794
 Alpha virt. eigenvalues --    8.21552   8.52102   8.91723  29.31559  29.32217
 Alpha virt. eigenvalues --   29.49424  42.98509  43.18936  43.39473  43.55291
 Alpha virt. eigenvalues --   54.08584  70.23177  70.23402  70.33551 142.62066
 Alpha virt. eigenvalues --  142.62789 142.81459 202.59869 626.11576
     Molecular Orbital Coefficients:
                           1         2         3         4         5
                           O         O         O         O         O
     Eigenvalues --  -481.08050 -61.77188 -55.68374 -55.68306 -55.68268
   1 1   Pa 1S          0.00000  -0.00000   0.00000  -0.00000  -0.00000
   2        2S          0.00000  -0.00000   0.00002  -0.00000  -0.00000
   3        3S         -0.00000   0.00000  -0.00000   0.00000   0.00000
   4        4S         -0.00000   0.00000  -0.00005   0.00000   0.00001
   5        5S          0.00000  -0.00000   0.00012  -0.00001  -0.00002
   6        6S          0.00001  -0.00003  -0.00015   0.00001   0.00005
   7        7S         -0.00005   0.00027  -0.00009   0.00002  -0.00010
   8        8S          0.00016  -0.00092   0.00041  -0.00014   0.00014
[...]
   XX=              7.8966   YY=             -7.3103   ZZ=             -0.5862
   XY=              1.1394   XZ=             -4.8544   YZ=             -0.6027
 Octapole moment (field-independent basis, Debye-Ang**2):
  XXX=            116.0403  YYY=             27.2949  ZZZ=             -2.3170  XYY=              9.7585
  XXY=             -2.4492  XXZ=            -17.8735  XZZ=              7.2908  YZZ=            -11.7441
  YYZ=              7.0941  XYZ=             -1.3812
 Hexadecapole moment (field-independent basis, Debye-Ang**3):
 XXXX=           -919.9481 YYYY=           -369.0762 ZZZZ=           -236.3301 XXXY=             -6.0694
 XXXZ=            -72.1976 YYYX=             18.4884 YYYZ=             23.7840 ZZZX=              5.7934
 ZZZY=            -27.5842 XXYY=           -242.5183 XXZZ=           -244.6099 YYZZ=           -109.5997
 XXYZ=             -2.5239 YYXZ=             -0.0734 ZZXY=             -7.8410
 N-N= 7.270736071604D+02 E-N=-9.248377290030D+03  KE= 3.038997053209D+03
 Orbital energies and kinetic energies (alpha):
                                 1                 2
   1         O              -481.080504        595.240343
   2         O               -61.771878        117.224917
   3         O               -55.683743        116.498434
   4         O               -55.683061        116.504876
   5         O               -55.682682        116.504943
   6         O               -18.878695         29.113222
   7         O               -18.780637         29.111757
   8         O               -18.759771         29.113849
   9         O               -18.741745         29.110249
  10         O               -11.082715          4.703180
  11         O                -8.345817         27.785568
  12         O                -7.152733          5.035693
  13         O                -7.151437          5.035935
  14         O                -7.134337          5.032169
  15         O                -6.217717         25.784251
  16         O                -6.215808         25.790611
  17         O                -6.214681         25.791585
  18         O                -3.511162          6.834059
  19         O                -3.510611          6.834473
  20         O                -3.502063          6.829522
  21         O                -3.500706          6.830154
  22         O                -3.494230          6.825011
  23         O                -2.422144         21.393911
  24         O                -2.421755         21.396507
  25         O                -2.420930         21.398103
  26         O                -2.419466         21.404228
  27         O                -2.419380         21.404100
  28         O                -1.712316          6.331570
  29         O                -1.036691          2.678097
  30         O                -0.979664          2.278260
  31         O                -0.920620          2.421868
  32         O                -0.884357          3.043157
  33         O                -0.832455          2.173755
  34         O                -0.795386          2.558941
  35         O                -0.678426          3.245975
  36         O                -0.629018          3.969811
  37         O                -0.589608          1.871553
  38         O                -0.469295          2.542744
  39         O                -0.439737          2.452870
  40         O                -0.415547          3.535051
  41         O                -0.377312          2.304392
  42         O                -0.321733          2.544229
  43         O                -0.310388          2.079279
  44         O                -0.287483          2.346214
  45         O                -0.283896          2.410053
  46         O                -0.281300          3.019661
  47         O                -0.277960          4.498802
  48         O                -0.249548          4.992395
  49         O                -0.240421          6.319546
  50         O                -0.218178          2.551169
  51         O                -0.210072          2.797488
  52         V                -0.118543         78.942312
  53         V                -0.108084          5.403068
  54         V                -0.104441          5.052776
  55         V                -0.103955          5.662567
  56         V                -0.092477         87.429879
  57         V                -0.077848         25.599994
  58         V                -0.069436        153.779089
  59         V                -0.059796         26.788755
  60         V                -0.023408         12.042604
  61         V                -0.013515          3.819866
  62         V                -0.011879          5.935913
  63         V                 0.007728          1.633677
  64         V                 0.009153          1.712223
  65         V                 0.024048          1.625524
  66         V                 0.049946          2.293250
  67         V                 0.052231          2.143791
  68         V                 0.062886          6.212180
  69         V                 0.073382          4.251647
  70         V                 0.087464         18.370022
  71         V                 0.093229          2.454812
  72         V                 0.118693          1.042861
  73         V                 0.185055          0.979587
  74         V                 0.211170          1.430097
  75         V                 0.219646          1.251817
  76         V                 0.233588          1.751060
  77         V                 0.244258          1.269033
  78         V                 0.251375          1.389609
  79         V                 0.256043          1.112014
  80         V                 0.266643          1.585072
  81         V                 0.268308          1.412180
  82         V                 0.274712          1.464755
  83         V                 0.285248          1.702650
  84         V                 0.289799          1.441665
  85         V                 0.301756          1.540853
  86         V                 0.310603          1.382723
  87         V                 0.324255          1.906089
  88         V                 0.355915          1.911192
  89         V                 0.359471          1.619650
  90         V                 0.377614          1.765672
  91         V                 0.386290          1.551976
  92         V                 0.399599          1.637315
  93         V                 0.412329          1.818542
  94         V                 0.430735          1.781313
  95         V                 0.437124          1.744200
  96         V                 0.443189          1.733064
  97         V                 0.455442          2.281440
  98         V                 0.478033          1.803623
  99         V                 0.490716          1.575077
 100         V                 0.512063          1.713356
 101         V                 0.523931          1.835151
 102         V                 0.537212          1.707922
 103         V                 0.560184          1.705735
 104         V                 0.568684          1.588390
 105         V                 0.589127          1.699277
 106         V                 0.623850          2.233273
 107         V                 0.635051          1.699344
 108         V                 0.648285          4.106284
 109         V                 0.661821          1.873995
 110         V                 0.670396          1.751300
 111         V                 0.677130          1.803910
 112         V                 0.707537          1.748673
 113         V                 0.728552          1.535321
 114         V                 0.782459          1.959125
 115         V                 0.840091          1.967874
 116         V                 0.904090          3.361450
 117         V                 0.940834          3.302931
 118         V                 1.014261          2.434722
 119         V                 1.032224          2.395950
 120         V                 1.034791          2.612371
 121         V                 1.043077          2.894844
 122         V                 1.091485          2.614842
 123         V                 1.101908          2.771393
 124         V                 1.109184          3.097033
 125         V                 1.118521          3.089419
 126         V                 1.132039          3.047370
 127         V                 1.143641          3.004481
 128         V                 1.158997          2.677803
 129         V                 1.165673          2.518838
 130         V                 1.178387          3.149219
 131         V                 1.193661          2.830801
 132         V                 1.219412          3.208037
 133         V                 1.236512          2.538999
 134         V                 1.251465          2.970072
 135         V                 1.278460          3.411535
 136         V                 1.301015          2.458908
 137         V                 1.324533          2.943094
 138         V                 1.342893          3.380628
 139         V                 1.368727          3.726025
 140         V                 1.372143          3.645783
 141         V                 1.380310          3.461397
 142         V                 1.401684          3.390516
 143         V                 1.412451          3.523347
 144         V                 1.424239          3.360731
 145         V                 1.432784          3.206031
 146         V                 1.436147          3.540020
 147         V                 1.492244          3.582018
 148         V                 1.505968          3.549246
 149         V                 1.515434          2.865964
 150         V                 1.520590          2.779639
 151         V                 1.529891          2.816259
 152         V                 1.541046          3.486480
 153         V                 1.558758          3.086976
 154         V                 1.569446          4.197440
 155         V                 1.590516          4.589569
 156         V                 1.595713          3.584931
 157         V                 1.615093          4.520660
 158         V                 1.622542          6.251589
 159         V                 1.631799          4.783123
 160         V                 1.645873          3.363708
 161         V                 1.664873          3.000384
 162         V                 1.668093          3.382606
 163         V                 1.721150          3.525872
 164         V                 1.735528          3.270171
 165         V                 1.753756          3.674606
 166         V                 1.780685          4.378975
 167         V                 1.784531          3.553275
 168         V                 1.829524          3.625332
 169         V                 1.834488          3.899490
 170         V                 1.851299          3.652044
 171         V                 1.875811          3.631998
 172         V                 1.908449          3.760132
 173         V                 1.922939          3.848868
 174         V                 1.964744          2.962858
 175         V                 1.981517          3.875669
 176         V                 2.042640          4.100544
 177         V                 2.093244          3.666335
 178         V                 2.103976          3.647952
 179         V                 2.147327          3.910589
 180         V                 2.168938          3.779897
 181         V                 2.172831          4.101962
 182         V                 2.214164          4.459000
 183         V                 2.257603          4.181569
 184         V                 2.272173          4.965173
 185         V                 2.284380          5.019386
 186         V                 2.354589          5.483096
 187         V                 2.434921          4.537619
 188         V                 2.460287          4.463617
 189         V                 2.467929          6.629717
 190         V                 2.472550          4.364581
 191         V                 2.524886          4.795309
 192         V                 2.565685          5.708766
 193         V                 2.610349          6.934993
 194         V                 2.625509          6.954691
 195         V                 2.649209          5.945501
 196         V                 2.664821          6.126926
 197         V                 2.812379          7.026376
 198         V                 2.853832          6.828072
 199         V                 2.889255          6.662654
 200         V                 2.942692          7.265013
 201         V                 2.978322          7.150749
 202         V                 3.174575          7.465501
 203         V                 3.362670          8.232823
 204         V                 3.473628          6.360284
 205         V                 3.598529          8.368158
 206         V                 3.683224          7.277162
 207         V                 3.688178          7.896644
 208         V                 3.702937          8.423417
 209         V                 3.733252          8.639979
 210         V                 3.814002          9.832844
 211         V                 3.816511          9.552057
 212         V                 3.844882          8.615950
 213         V                 3.877318          9.111704
 214         V                 3.950206         11.111774
 215         V                 3.955951         12.528440
 216         V                 3.976304         12.667669
 217         V                 4.022241          9.742014
 218         V                 4.067961         12.660359
 219         V                 4.081352         12.611415
 220         V                 4.165541         11.573196
 221         V                 4.280491          9.165285
 222         V                 4.909019          6.538995
 223         V                 4.998295          6.452648
 224         V                 5.004783          6.498764
 225         V                 5.019230          6.449284
 226         V                 5.024845          6.540628
 227         V                 5.039271          6.458008
 228         V                 5.047621          6.472617
 229         V                 5.057228          6.710478
 230         V                 5.079767          6.819387
 231         V                 5.105307          6.596331
 232         V                 5.114410          6.715896
 233         V                 5.129447          6.742016
 234         V                 5.144019          6.751892
 235         V                 5.155140          6.842883
 236         V                 5.168102          6.905065
 237         V                 5.187814          6.825928
 238         V                 5.207505          6.923254
 239         V                 5.224362          6.957338
 240         V                 5.280744          7.101094
 241         V                 5.302101          7.346700
 242         V                 5.310456          6.985397
 243         V                 5.337869          7.471031
 244         V                 5.383326          7.344661
 245         V                 5.434182          7.214922
 246         V                 5.781165          8.513715
 247         V                 5.994737          9.101049
 248         V                 6.045319         10.120342
 249         V                 6.099868          9.234890
 250         V                 6.118408         10.286222
 251         V                 6.137228          9.348859
 252         V                 6.154910          9.418802
 253         V                 6.158960          9.412927
 254         V                 6.196189          9.413705
 255         V                 6.215329          9.407838
 256         V                 6.225548          9.402241
 257         V                 6.291082          9.410512
 258         V                 6.340168          9.442484
 259         V                 6.371579          9.759332
 260         V                 6.420183          9.628102
 261         V                 6.483930         10.023920
 262         V                 6.582862          9.744049
 263         V                 6.604647          9.704184
 264         V                 6.669528         10.566491
 265         V                 6.698053          9.579359
 266         V                 6.748991         10.094607
 267         V                 6.797469         10.464397
 268         V                 6.811779         10.053556
 269         V                 6.917471          9.838201
 270         V                 6.987187         10.388257
 271         V                 7.111786         14.605696
 272         V                 7.248874         13.645592
 273         V                 7.423222         36.954973
 274         V                 7.482019         13.937220
 275         V                 8.124366         15.904237
 276         V                 8.177937         15.823495
 277         V                 8.215519         15.816509
 278         V                 8.521020         16.116482
 279         V                 8.917225         16.211419
 280         V                29.315588         36.023642
 281         V                29.322166         36.024797
 282         V                29.494244         36.178321
 283         V                42.985088        108.465896
 284         V                43.189362        108.546473
 285         V                43.394727        108.748007
 286         V                43.552911        108.895451
 287         V                54.085844         39.966639
 288         V                70.231771         83.945612
 289         V                70.234022         83.952501
 290         V                70.335507         84.126089
 291         V               142.620662        242.421339
 292         V               142.627893        242.430218
 293         V               142.814586        242.662232
 294         V               202.598685        130.072273
 295         V               626.115761       1034.485571
 Total kinetic energy from orbitals= 3.038997053209D+03
 No NMR shielding tensors so no spin-rotation constants.
 Leave Link  601 at Tue Jul  4 11:14:40 2023, MaxMem=  2147483648 cpu:               2.6 elap:               0.4
 (Enter /home/pcmt/gaussian/g16.C.01/g16/l9999.exe)

 Test job not archived.
 1\1\GINC-U-0-13\SP\RBP86\Gen\Br1H4O4Pa1\ROOT\04-Jul-2023\0\\#p BP86/GE
 N Pseudo=Read GFInput GFPrint IOP(6/7=3) Symm=(Loose) Int=(UltraFine) 
 Guess=(Harris) Scf=(NoVarAcc,MaxCycle=100,conver=8)\\pao_oh2_br_h2o-bp
 86-cosmors-deftzvp-gp.com SGP in PCM calculation\\0,1\Pa,0,-0.16098492
 71,0.0736191253,0.8025224204\O,0,1.1086654668,1.5255224521,-0.11013593
 56\O,0,-1.740139052,0.8080422178,-0.3597468418\Br,0,-0.9289485092,1.64
 8368645,3.108358678\H,0,-1.8284004206,1.5517498224,-0.9717909525\O,0,0
 .0313892201,-1.6345527086,-1.0030423525\H,0,-0.4702665718,-1.652842113
 5,-1.8287456439\H,0,0.7128039413,-2.3168166048,-1.0639838657\H,0,2.063
 589187,1.6205695959,-0.0116383295\O,0,1.1871947746,-0.8541232382,1.675
 1913284\\Version=ES64L-G16RevC.01\State=1-A\HF=-3319.7893656\RMSD=7.63
 7e-09\Dipole=0.0354853,-2.1158836,-3.319099\Quadrupole=-3.6403662,2.44
 54566,1.1949096,2.0191556,-0.5085753,5.601541\PG=C01 [X(Br1H4O4Pa1)]\\
 @


 A CHEMICAL PHYSICIST MAKES PRECISE MEASUREMENTS ON IMPURE COMPOUNDS.
 A THEORETICAL PHYSICAL CHEMIST MAKES IMPRECISE
     MEASUREMENTS ON PURE COMPOUNDS.
 AN EXPERIMENTAL PHYSICAL CHEMIST MAKES IMPRECISE
     MEASUREMENTS ON IMPURE COMPOUNDS.
 Job cpu time:       0 days  0 hours 12 minutes 23.6 seconds.
 Elapsed time:       0 days  0 hours  2 minutes 18.1 seconds.
 File lengths (MBytes):  RWF=     37 Int=      0 D2E=      0 Chk=      6 Scr=      1
 Normal termination of Gaussian 16 at Tue Jul  4 11:14:40 2023.
