

 Parallel Execution: Process Information
 ==============================================================================
 Rank   Node Name                              NodeID   MyNodeRank  NodeMaster
    0   u-0-7.local                               0          0          0
    1   u-0-7.local                               0          1         -1
    2   u-0-7.local                               1          0          1
    3   u-0-7.local                               1          1         -1
    4   u-0-7.local                               2          0          2
    5   u-0-7.local                               2          1         -1
    6   u-0-7.local                               3          0          3
    7   u-0-7.local                               3          1         -1
 ==============================================================================


May use up to 31228MB of RAM as shared memory on node 0
May use up to 31250MB of RAM as shared memory on node 1
May use up to 31250MB of RAM as shared memory on node 2
May use up to 31250MB of RAM as shared memory on node 3

 *******************************************************************************
 *                                                                             *
 *  --------------------------------                                           *
 *   Amsterdam Modeling Suite (AMS)              2022.103                      *
 *  --------------------------------                                           *
 *                                               r104886 2022-06-17            *
 *                                                                             *
 *                                                                             *
 *                              =================                              *
 *                              |               |                              *
 *                              |     A M S     |                              *
 *                              |               |                              *
 *                              =================                              *
 *                                                                             *
 *                                                                             *
 *   Online information and documentation:  https://www.scm.com/support/       *
 *   E-mail:  support@scm.com   info@scm.com                                   *
 *                                                                             *
 *   Scientific publications using AMS results must be properly referenced     *
 *   See the User Manuals (or the web site) for recommended citations          *
 *   The terms and conditions of the End User License Agreement apply to       *
 *   the use of AMS, https://www.scm.com/license-terms/                        *
 *                                                                             *
 **********************  x86_64_linux_intel / intelmpi  ************************
 
 Licensed to: Dr. Val?rie Vallet / Laboratoire PhLAM UMR 8523 / Villeneuve d'Ascq Cedex / FRANCE 2023-02-21 11:49:39
 SCM User ID: u10325
  
 AMS 2022.103  RunTime: Mar06-2023 22:37:56  ShM Nodes: 4  Procs: 8

 AMS jobname: pa_oh4_N.SR.b3lyp.tz2p.opt-freq-B22-solvation-restart
 AMS jobid  : 889660246

 Start   directory: /home/shaaban/ams/PhD/thiocyanate/bnN/pa_oh4_N/solvation/B22/
 Results directory: /home/shaaban/ams/PhD/thiocyanate/bnN/pa_oh4_N/solvation/B22/pa_oh4_N.SR.b3lyp.tz2p.opt-freq-B22-solvation-restart.results/
 Scratch directory: /state/partition2/shaaban/930833.phlam-s-sakura/amstmp_pa_oh4_N.SR.b3lyp.tz2p.opt-freq-B22-solvation-restart_kid0.889660246/


 Communication costs MPI_COMM_WORLD:      2.750 usec per message,   0.0092 usec per 8-byte item
 Communication costs for intra-node:      0.555 usec per message,   0.0025 usec per 8-byte item

 RNG seed: 1672507572 537022778 -908610659 1258443242 1868609218 621837257 202678206 -214788025



                      ************************************************************************
                      *  ADF 2022.103  RunTime: Mar06-2023 22:37:57  ShM Nodes: 4  Procs: 8  *
                      ************************************************************************
  
       ***************************
       *  GEOMETRY OPTIMIZATION  *
       ***************************

Optimization Method                    Quasi Newton
Optimization Coordinates               Delocalized Coordinates
Optimize lattice                       F
 
 ------------------------------------------------------
 Convergence criteria (Hartree,Angstrom)
 ------------------------------------------------------
 Maximum gradient               0.000100000000
 Maximum rms gradient           0.000066666667
 Maximum step allowed           0.001000000000
 Maximum rms step allowed       0.000666666667
 Maximum energy change allowe   0.000012000000
 Maximum stress energy allowe   0.000500000000
 
Initial model Hessian                  Automatic Hessian
 
------------------------------------
Quasi-Newton Optimizer Parameters
------------------------------------
Hessian Update Method                  BFGS
Maximum number of steps                  250
First GDIIS cycle                          0
Maximum GDIIS vectors                      0
Trust radius (bohr)                        0.200000
Trust radius varies                        T
Constraints converged at all steps         T
Use projector                              T
 
 Rigid motions settings for: old optimizer
 Atomic rotations (x,y,z):     T T T
 Atomic translations (x,y,z):  T T T
 Tolerance:                   1.000000000000000E-006
 
--------
Geometry
--------
Formula: CH4NO4PaS
Atoms
  Index Symbol   x (angstrom)   y (angstrom)   z (angstrom)
      1     Pa    -0.11984370     0.06423362    -0.38446810       adf.R=2.200
      2      N     0.85725904     1.67482311    -1.86493176       adf.R=1.608
      3      H    -1.40700985     1.86333288     1.47568293       adf.R=1.350
      4      O    -1.10924040     1.64945322     0.58196191       adf.R=1.517
      5      H     2.34563883    -0.25998164     1.09837665       adf.R=1.350
      6      O     0.77951157    -1.42789945    -1.53979524       adf.R=1.517
      7      H     1.14018089    -2.32317229    -1.51709427       adf.R=1.350
      8      O    -1.07001117    -1.36832229     0.81468283       adf.R=1.517
      9      H    -1.02311931    -2.16826951     1.34989017       adf.R=1.350
     10      O     1.54355925     0.22367291     0.87047164       adf.R=1.517
     11      C     1.53670883     2.44644165    -2.44567818       adf.R=1.700
     12      S     2.45742354     3.49910682    -3.24141770       adf.R=1.792
 
Total System Charge             0.00000
Bonding info available!
 
 
----------------
ADF Engine Input
----------------
 
 Basis
 Type TZ2P
 Core None
 End
 XC
 Hybrid B3LYP
 End
 Solvation
 Surf Delley
 Solv name=Water cav0=0.0 cav1=0.0067639
 Charged method=CONJ
 C-Mat POT
 SCF VAR ALL
 CSMRSP
 End
 NumericalQuality Good
 

 Title: *** (NO TITLE) ***

Bad geometry: could not add a dihedral for atom   12
 Using automatic Hessian for delocalized coordinates.
 *** GO1_GOStep1 ***

 SOLVATION
-------------------------------------------

  The Delley construction of COSMO surface surface is calculated

       Division Level for Surface Triangles (NDIV)                  3
       Final Division Level for Triangles (NFDIV)                   1
       Radius of the Solvent (RSOL)                           1.93000 angstr
  Dielectric Constant (EPSL)                                 78.39000

       COSMO equation is solved iteratively-               conjugate-gradient

       Maximun of Iterations for Charges (NCIX)                  1000
       Criterion for Charge convergence (CCNV)                1.0E-08

  COSMO charges included variationally in SCF

       COSMO included at every SCF cycle

  Geometry-dependent empirical factor                         0.00000

  C-Matrix calculated in cspmtx

  In cspmtx, C-Matrix calculated using fitted potential

-------------------------------------------



 -------------------------------------------
  COSMO surface
  Area             =          610.281
  Volume           =          971.249
  Number of Points =         1509
 -------------------------------------------



 ======================
 RI Hartree-Fock Scheme
 ======================
  
 Fit Set Quality     : GOOD
 Threshold Quality   : GOOD
 Integration Quality : GOOD
 Response Quality    : DEFAULT
 Is Range Separated  :  F
 
 RIHartreeFock Dependency: number of modified vectors:           6
 cosmo_calcen: 0.5 (esolb+esolc) (Hartrees) =   -0.051536

 Solvation energy (screening term,uncorrected) =    -32.339545 kcal/mol

 Solvation energy (dispersion and cavitation terms) =      1.141178 kcal/mol
 Solvation Energy Contributions (Hartrees)
          esola   esolb+esolc
     0.05153634   -0.10307268
 esol last cycle   -0.05153634
  
 Hartree-Fock exchange energy:   -537.434959715051     
 cosmo_calcen: 0.5 (esolb+esolc) (Hartrees) =   -0.051536

 Solvation energy (screening term,uncorrected) =    -32.339551 kcal/mol

 Solvation energy (dispersion and cavitation terms) =      1.141178 kcal/mol
 Solvation Energy Contributions (Hartrees)
          esola   esolb+esolc
     0.05153635   -0.10307270
 esol last cycle   -0.05153635

 Energy gradients wrt nuclear displacements
 ==========================================

     Atom      Cartesian (a.u./angstrom)
                 X         Y         Z
 ----------------------------------------
     1 Pa   -0.000231 -0.000128 -0.000004
     2 N    -0.000062  0.000022  0.000004
     3 H     0.000045 -0.000007  0.000050
     4 O     0.000092  0.000031  0.000000
     5 H     0.000025  0.000014 -0.000039
     6 O     0.000067  0.000066  0.000011
     7 H     0.000005  0.000002 -0.000001
     8 O     0.000086 -0.000029  0.000092
     9 H     0.000050 -0.000000  0.000035
    10 O     0.000099  0.000043  0.000001
    11 C    -0.000064 -0.000019 -0.000083
    12 S    -0.000111  0.000005 -0.000067
 ----------------------------------------
 Mulliken charges used for AMS results%charges...
 
----------------------------------------------------------------------
Geometry Convergence after Step   1       (Hartree/Angstrom,Angstrom)
----------------------------------------------------------------------
current energy                               -3.44998270 Hartree
energy change                      -3.44998270     0.00001200    F
constrained gradient max            0.00023419     0.00010000    F
constrained gradient rms            0.00005394     0.00006667    T
gradient max                        0.00023419
gradient rms                        0.00005394
cart. step max                      0.00123173     0.00100000    F
cart. step rms                      0.00045385     0.00066667    T
 
 
--------
Geometry
--------
Formula: CH4NO4PaS
Atoms
  Index Symbol   x (angstrom)   y (angstrom)   z (angstrom)
      1     Pa    -0.11939248     0.06439424    -0.38439362       adf.R=2.200
      2      N     0.85766507     1.67500577    -1.86484539       adf.R=1.608
      3      H    -1.40813592     1.86274021     1.47542757       adf.R=1.350
      4      O    -1.10988453     1.64907728     0.58181862       adf.R=1.517
      5      H     2.34625039    -0.25959425     1.09823249       adf.R=1.350
      6      O     0.77877517    -1.42831034    -1.53992343       adf.R=1.517
      7      H     1.13894916    -2.32378415    -1.51727220       adf.R=1.350
      8      O    -1.06956158    -1.36807700     0.81484341       adf.R=1.517
      9      H    -1.02258026    -2.16794680     1.35017421       adf.R=1.350
     10      O     1.54405083     0.22392045     0.87043545       adf.R=1.517
     11      C     1.53710974     2.44665260    -2.44554564       adf.R=1.700
     12      S     2.45781194     3.49934104    -3.24127058       adf.R=1.792
 
Total System Charge             0.00000
Bonding info available!
 
 *** GO1_GOStep2 ***

 SOLVATION
-------------------------------------------

  The Delley construction of COSMO surface surface is calculated

       Division Level for Surface Triangles (NDIV)                  3
       Final Division Level for Triangles (NFDIV)                   1
       Radius of the Solvent (RSOL)                           1.93000 angstr
  Dielectric Constant (EPSL)                                 78.39000

       COSMO equation is solved iteratively-               conjugate-gradient

       Maximun of Iterations for Charges (NCIX)                  1000
       Criterion for Charge convergence (CCNV)                1.0E-08

  COSMO charges included variationally in SCF

       COSMO included at every SCF cycle

  Geometry-dependent empirical factor                         0.00000

  C-Matrix calculated in cspmtx

  In cspmtx, C-Matrix calculated using fitted potential

-------------------------------------------



 -------------------------------------------
  COSMO surface
  Area             =          610.692
  Volume           =          971.962
  Number of Points =         1510
 -------------------------------------------



 ======================
 RI Hartree-Fock Scheme
 ======================
  
 Fit Set Quality     : GOOD
 Threshold Quality   : GOOD
 Integration Quality : GOOD
 Response Quality    : DEFAULT
 Is Range Separated  :  F
 
 RIHartreeFock Dependency: number of modified vectors:           6
 cosmo_calcen: 0.5 (esolb+esolc) (Hartrees) =   -0.051514

 Solvation energy (screening term,uncorrected) =    -32.325629 kcal/mol

 Solvation energy (dispersion and cavitation terms) =      1.141946 kcal/mol
 Solvation Energy Contributions (Hartrees)
          esola   esolb+esolc
     0.05151416   -0.10302833
 esol last cycle   -0.05151416
  
 Hartree-Fock exchange energy:   -537.434965100366     
 cosmo_calcen: 0.5 (esolb+esolc) (Hartrees) =   -0.051514

 Solvation energy (screening term,uncorrected) =    -32.325656 kcal/mol

 Solvation energy (dispersion and cavitation terms) =      1.141946 kcal/mol
 Solvation Energy Contributions (Hartrees)
          esola   esolb+esolc
     0.05151421   -0.10302841
 esol last cycle   -0.05151421

 Energy gradients wrt nuclear displacements
 ==========================================

     Atom      Cartesian (a.u./angstrom)
                 X         Y         Z
 ----------------------------------------
     1 Pa   -0.000156 -0.000063 -0.000009
     2 N    -0.000033  0.000051 -0.000025
     3 H     0.000048 -0.000010  0.000049
     4 O     0.000063 -0.000008  0.000011
     5 H     0.000027  0.000009 -0.000044
     6 O     0.000029  0.000040  0.000016
     7 H     0.000010  0.000002  0.000000
     8 O     0.000080 -0.000018  0.000075
     9 H     0.000051 -0.000011  0.000047
    10 O     0.000082  0.000051  0.000003
    11 C    -0.000097 -0.000057 -0.000047
    12 S    -0.000104  0.000014 -0.000076
 ----------------------------------------
 Mulliken charges used for AMS results%charges...

 dE(predicted):    -0.14184E-06, dE(actual):    -0.42765E-05, Trust radius:    0.200000, all in a.u.
 
----------------------------------------------------------------------
Geometry Convergence after Step   2       (Hartree/Angstrom,Angstrom)
----------------------------------------------------------------------
current energy                               -3.44998698 Hartree
energy change                      -0.00000428     0.00001200    T
constrained gradient max            0.00015886     0.00010000    F
constrained gradient rms            0.00003753     0.00006667    T
gradient max                        0.00015886
gradient rms                        0.00003753
cart. step max                      0.00292209     0.00100000    F
cart. step rms                      0.00108617     0.00066667    F
 
 
--------
Geometry
--------
Formula: CH4NO4PaS
Atoms
  Index Symbol   x (angstrom)   y (angstrom)   z (angstrom)
      1     Pa    -0.11844337     0.06456774    -0.38416333       adf.R=2.200
      2      N     0.85849149     1.67532006    -1.86448353       adf.R=1.608
      3      H    -1.41082295     1.86178673     1.47439379       adf.R=1.350
      4      O    -1.11131546     1.64838398     0.58114908       adf.R=1.517
      5      H     2.34776216    -0.25869047     1.09777275       adf.R=1.350
      6      O     0.77704983    -1.42925733    -1.54037133       adf.R=1.517
      7      H     1.13602707    -2.32521539    -1.51797980       adf.R=1.350
      8      O    -1.06845140    -1.36762988     0.81548811       adf.R=1.517
      9      H    -1.02111414    -2.16725427     1.35116117       adf.R=1.350
     10      O     1.54519699     0.22436633     0.87025667       adf.R=1.517
     11      C     1.53796068     2.44713249    -2.44501635       adf.R=1.700
     12      S     2.45871663     3.49990907    -3.24052634       adf.R=1.792
 
Total System Charge             0.00000
Bonding info available!
 
 *** GO1_GOStep3 ***

 SOLVATION
-------------------------------------------

  The Delley construction of COSMO surface surface is calculated

       Division Level for Surface Triangles (NDIV)                  3
       Final Division Level for Triangles (NFDIV)                   1
       Radius of the Solvent (RSOL)                           1.93000 angstr
  Dielectric Constant (EPSL)                                 78.39000

       COSMO equation is solved iteratively-               conjugate-gradient

       Maximun of Iterations for Charges (NCIX)                  1000
       Criterion for Charge convergence (CCNV)                1.0E-08

  COSMO charges included variationally in SCF

       COSMO included at every SCF cycle

  Geometry-dependent empirical factor                         0.00000

  C-Matrix calculated in cspmtx

  In cspmtx, C-Matrix calculated using fitted potential

-------------------------------------------



 -------------------------------------------
  COSMO surface
  Area             =          610.664
  Volume           =          971.855
  Number of Points =         1511
 -------------------------------------------



 ======================
 RI Hartree-Fock Scheme
 ======================
  
 Fit Set Quality     : GOOD
 Threshold Quality   : GOOD
 Integration Quality : GOOD
 Response Quality    : DEFAULT
 Is Range Separated  :  F
 
 RIHartreeFock Dependency: number of modified vectors:           6
 cosmo_calcen: 0.5 (esolb+esolc) (Hartrees) =   -0.051460

 Solvation energy (screening term,uncorrected) =    -32.291593 kcal/mol

 Solvation energy (dispersion and cavitation terms) =      1.141894 kcal/mol
 Solvation Energy Contributions (Hartrees)
          esola   esolb+esolc
     0.05145992   -0.10291985
 esol last cycle   -0.05145992
  
 Hartree-Fock exchange energy:   -537.434935465655     
 cosmo_calcen: 0.5 (esolb+esolc) (Hartrees) =   -0.051460

 Solvation energy (screening term,uncorrected) =    -32.291620 kcal/mol

 Solvation energy (dispersion and cavitation terms) =      1.141894 kcal/mol
 Solvation Energy Contributions (Hartrees)
          esola   esolb+esolc
     0.05145997   -0.10291993
 esol last cycle   -0.05145997

 Energy gradients wrt nuclear displacements
 ==========================================

     Atom      Cartesian (a.u./angstrom)
                 X         Y         Z
 ----------------------------------------
     1 Pa    0.000013 -0.000035 -0.000001
     2 N    -0.000099 -0.000017  0.000034
     3 H     0.000051 -0.000006  0.000046
     4 O     0.000002 -0.000032  0.000019
     5 H     0.000034 -0.000001 -0.000055
     6 O    -0.000048 -0.000008  0.000023
     7 H     0.000019  0.000007  0.000004
     8 O     0.000073 -0.000007  0.000047
     9 H     0.000053 -0.000011  0.000056
    10 O     0.000043  0.000068 -0.000002
    11 C    -0.000041  0.000030 -0.000095
    12 S    -0.000098  0.000012 -0.000076
 ----------------------------------------
 Mulliken charges used for AMS results%charges...

 dE(predicted):    -0.21015E-06, dE(actual):    -0.55790E-05, Trust radius:    0.200000, all in a.u.
 
---------------------------------------------------------
Geometry Convergence after Step   3       ** CONVERGED **
---------------------------------------------------------
current energy                               -3.44999256 Hartree
energy change                      -0.00000558     0.00001200    T
constrained gradient max            0.00005350     0.00010000    T
constrained gradient rms            0.00002362     0.00006667    T
gradient max                        0.00005350
gradient rms                        0.00002362
cart. step max                      0.00077526     0.00100000    T
cart. step rms                      0.00028184     0.00066667    T
 
Geometry optimization converged

Optimized geometry:
 
--------
Geometry
--------
Formula: CH4NO4PaS
Atoms
  Index Symbol   x (angstrom)   y (angstrom)   z (angstrom)
      1     Pa    -0.11844337     0.06456774    -0.38416333       adf.R=2.200
      2      N     0.85849149     1.67532006    -1.86448353       adf.R=1.608
      3      H    -1.41082295     1.86178673     1.47439379       adf.R=1.350
      4      O    -1.11131546     1.64838398     0.58114908       adf.R=1.517
      5      H     2.34776216    -0.25869047     1.09777275       adf.R=1.350
      6      O     0.77704983    -1.42925733    -1.54037133       adf.R=1.517
      7      H     1.13602707    -2.32521539    -1.51797980       adf.R=1.350
      8      O    -1.06845140    -1.36762988     0.81548811       adf.R=1.517
      9      H    -1.02111414    -2.16725427     1.35116117       adf.R=1.350
     10      O     1.54519699     0.22436633     0.87025667       adf.R=1.517
     11      C     1.53796068     2.44713249    -2.44501635       adf.R=1.700
     12      S     2.45871663     3.49990907    -3.24052634       adf.R=1.792
 
Total System Charge             0.00000
Bonding info available!
 
Performing a single point calculation on the final geometry ...

 *** adf ***



 ===========================
 A T T A C H E D   F I L E S
 ===========================
  
 Restart
 /state/partition2/shaaban/930833.phlam-s-sakura/amstmp_pa_oh4_N.SR.b3lyp.tz2p.o
 pt-freq-B22-solvation-restart_kid0.889660246/GO1_GOStep3.rkf*** GO1_GOStep3 ***



 ===============================
 M O D E L   P A R A M E T E R S
 ===============================
  
 DENSITY FUNCTIONAL POTENTIAL (scf)
    Hybrid:                            B3LYP                                   == Not Default ==

 SPIN  (restricted / unrestr.)
    Molecule:                          Restricted                               
    Fragments:                         Restricted                               

 OTHER ASPECTS
    Relativistic Corrections:          scalar (ZORA,MAPA)                       

    Nuclear Charge Density Model:      Point Charge Nuclei                      
    Core Treatment:                    Frozen Orbital(s)                        

    Hyperfine or Zeeman Interaction:   ---                                      

 SOLVATION
-------------------------------------------

  The Delley construction of COSMO surface surface is calculated

       Division Level for Surface Triangles (NDIV)                  3
       Final Division Level for Triangles (NFDIV)                   1
       Radius of the Solvent (RSOL)                           1.93000 angstr
  Dielectric Constant (EPSL)                                 78.39000

       COSMO equation is solved iteratively-               conjugate-gradient

       Maximun of Iterations for Charges (NCIX)                  1000
       Criterion for Charge convergence (CCNV)                1.0E-08

  COSMO charges included variationally in SCF

       COSMO included at every SCF cycle

  Geometry-dependent empirical factor                         0.00000

  C-Matrix calculated in cspmtx

  In cspmtx, C-Matrix calculated using fitted potential

-------------------------------------------




 ===============
 G E O M E T R Y  ***  3D  Molecule  ***
 ===============
  

 ATOMS
 =====                            X Y Z                    CHARGE                     RADIUS
                                (Angstrom)             Nucl     +Core       At.Mass (Angstrom)
                       --------------------------    ----------------       ------- ----------
    1  Pa             -0.1184    0.0646   -0.3842     91.00     91.00      231.0359    2.2000
    2  N               0.8585    1.6753   -1.8645      7.00      7.00       14.0031    1.6080
    3  H              -1.4108    1.8618    1.4744      1.00      1.00        1.0078    1.3500
    4  O              -1.1113    1.6484    0.5811      8.00      8.00       15.9949    1.5170
    5  H               2.3478   -0.2587    1.0978      1.00      1.00        1.0078    1.3500
    6  O               0.7770   -1.4293   -1.5404      8.00      8.00       15.9949    1.5170
    7  H               1.1360   -2.3252   -1.5180      1.00      1.00        1.0078    1.3500
    8  O              -1.0685   -1.3676    0.8155      8.00      8.00       15.9949    1.5170
    9  H              -1.0211   -2.1673    1.3512      1.00      1.00        1.0078    1.3500
   10  O               1.5452    0.2244    0.8703      8.00      8.00       15.9949    1.5170
   11  C               1.5380    2.4471   -2.4450      6.00      6.00       12.0000    1.7000
   12  S               2.4587    3.4999   -3.2405     16.00     16.00       31.9721    1.7920


 FRAGMENTS
 =========                                     Atoms in this Fragment     Cart. coord.s (Angstrom)
                                               -------------------------------------------------------
    1  Pa                                                1  Pa          -0.1184    0.0646   -0.3842
    2  N                                                 2  N            0.8585    1.6753   -1.8645
    3  H                                                 3  H           -1.4108    1.8618    1.4744
    4  H                                                 5  H            2.3478   -0.2587    1.0978
    5  H                                                 7  H            1.1360   -2.3252   -1.5180
    6  H                                                 9  H           -1.0211   -2.1673    1.3512
    7  O                                                 4  O           -1.1113    1.6484    0.5811
    8  O                                                 6  O            0.7770   -1.4293   -1.5404
    9  O                                                 8  O           -1.0685   -1.3676    0.8155
   10  O                                                10  O            1.5452    0.2244    0.8703
   11  C                                                11  C            1.5380    2.4471   -2.4450
   12  S                                                12  S            2.4587    3.4999   -3.2405


 Interatomic Distance Matrix (Angstrom)
 --------------------------------------

   1)     0.000
   2)     2.396   0.000
   3)     2.890   4.041   0.000
   4)     2.104   3.140   0.966   0.000
   5)     2.895   3.838   4.332   3.984   0.000
   6)     2.091   3.123   4.971   4.188   3.286   0.000
   7)     2.928   4.025   5.742   5.025   3.547   0.965   0.000
   8)     2.096   4.489   3.314   3.025   3.603   2.993   3.350   0.000
   9)     2.968   5.352   4.050   3.894   3.880   3.484   3.593   0.964   0.000
  10)     2.090   3.171   3.433   3.028   0.964   3.023   3.517   3.061   3.541   0.000
  11)     3.559   1.181   4.940   4.101   4.531   4.053   4.878   5.655   6.500   3.991
          0.000
  12)     5.158   2.790   6.316   5.548   5.741   5.479   6.217   7.252   8.081   5.335
          1.609   0.000

 Min. Distance =    0.9636
 Max. Distance =    8.0814



 =====================================
 S Y M M E T R Y ,   E L E C T R O N S
 =====================================
  
 Symmetry: NOSYM

 Irreducible Representations, including subspecies
 -------------------------------------------------
 A

 Symmetry is NOT used when fitting density


 Configuration of Valence Electrons
 ==================================
 ( determined in the SCF procedure )

 Total:   156

 Net Charge: 0 (Nuclei minus Electrons)

 Aufbau principle for MO occupations will be applied through SCF cycle no.     150
 Thereafter, the program will assign electrons to MOs that are spatially
 similar to the occupied MOs in a "reference" cycle ("KeepOrbitals").
 The reference cycle is always the PREVIOUS cycle: it will evolve with
 the SCF procedure.
1
 ***************************************************************************************************



                                      ****************************************
                                      *  B U I L D : (Fragments, Functions)  *
                                      ****************************************
  



 =======
 S F O s  ***  (Symmetrized Fragment Orbitals)  ***
 =======
  
 SFOs are linear combinations of (valence) Fragment Orbitals (FOs), such that the SFOs transform as the
 irreducible representations of the (molecular) symmetry group. Each SFO is therefore characterized by
 an irrep of the molecule and by a few (or only one) generating FOs.
 The SFOs constitute a symmetry-adapted basis for the Fock matrix. The MO eigenvector coefficients in
 this basis provide a direct interpretation of the MOs in terms of Frontier Orbital Theory.

 The SFOs are combined with auxiliary Core Functions (CFs) to ensure orthogonalization on the (frozen)
 Core Orbitals (COs). The Core-orthogonalized SFOs (CSFOs) constitute the true Fock basis.

 The FOs, and hence also the (C)SFOs are combinations of the elementary basis functions (BAS). The basis
 functions that participate in the description of the SFOs depend on the irrep. The indices of the
 involved functions are printed below for each irrep.
 (The complete list of primitive basis functions is printed in another section)

 Total nr. of (C)SFOs (summation over all irreps) :   369

 NOTE: a (C)SFO that is defined as a combination of more than one FO is usually NOT normalized.



                                       === A ===
 Nr. of SFOs :  369
 Cartesian basis functions that participate in this irrep (total number =   425) :
      1     2     3     4     5     6     7     8     9    10
     11    12    13    14    15    16    17    20    23    26
     29    32    35    38    41    44    47    50   157    18
     21    24    27    30    33    36    39    42    45    48
     51   158    19    22    25    28    31    34    37    40
     43    46    49    52   159    53    59    65    71    77
     83    89    95   101    54    60    66    72    78    84
     90    96   102    55    61    67    73    79    85    91
     97   103    56    62    68    74    80    86    92    98
    104    57    63    69    75    81    87    93    99   105
     58    64    70    76    82    88    94   100   106   107
    117   127   137   147   108   118   128   138   148   109
    119   129   139   149   110   120   130   140   150   111
    121   131   141   151   112   122   132   142   152   113
    123   133   143   153   114   124   134   144   154   115
    125   135   145   155   116   126   136   146   156   160
    161   162   163   164   165   168   171   166   169   172
    167   170   173   174   175   176   177   178   179   180
    181   182   183   184   185   186   187   188   189   190
    191   192   193   194   195   196   197   198   199   200
    201   202   203   204   205   206   207   208   209   210
    211   212   213   214   215   216   217   218   219   220
    221   222   223   224   225   226   227   228   229   230
    231   232   233   234   235   236   237   238   239   240
    241   242   243   246   249   244   247   250   245   248
    251   252   253   254   255   256   257   258   259   260
    261   262   263   264   265   266   267   268   269   270
    271   272   273   276   279   274   277   280   275   278
    281   282   283   284   285   286   287   288   289   290
    291   292   293   294   295   296   297   298   299   300
    301   302   303   306   309   304   307   310   305   308
    311   312   313   314   315   316   317   318   319   320
    321   322   323   324   325   326   327   328   329   330
    331   332   333   336   339   334   337   340   335   338
    341   342   343   344   345   346   347   348   349   350
    351   352   353   354   355   356   357   358   359   360
    361   362   363   366   369   364   367   370   365   368
    371   372   373   374   375   376   377   378   379   380
    381   382   383   384   385   386   387   388   389   390
    391   398   399   400   392   395   401   404   407   393
    396   402   405   408   394   397   403   406   409   410
    411   412   413   414   415   416   417   418   419   420
    421   422   423   424   425

    SFO  (index         Fragment          Generating    Expansion in Fragment Orbitals
  indx  incl.CFs)   Occup   Orb.Energy   FragmentType  Coeff.   Orbital     on Fragment
 --------------------------------------------------------------------------------------
     1       1      2.000   -4140.144 au  Pa            1.00      1 S               1
                        ( -112659.040 eV)
     2       2      2.000    -772.390 au  Pa            1.00      2 S               1
                        (  -21017.794 eV)
     3       3      2.000    -195.003 au  Pa            1.00      3 S               1
                        (   -5306.298 eV)
     4       4      2.000     -49.664 au  Pa            1.00      4 S               1
                        (   -1351.436 eV)
     5       5      2.000     -11.057 au  Pa            1.00      5 S               1
                        (    -300.888 eV)
     6       6      2.000      -1.766 au  Pa            1.00      6 S               1
                        (     -48.049 eV)
     7       7      2.000      -0.167 au  Pa            1.00      7 S               1
                        (      -4.550 eV)
     8       8       --         0.031 au  Pa            1.00      8 S               1
                        (       0.841 eV)
     9       9       --         0.336 au  Pa            1.00      9 S               1
                        (       9.133 eV)
    10      10       --         1.674 au  Pa            1.00     10 S               1
                        (      45.549 eV)
    11      11       --         8.680 au  Pa            1.00     11 S               1
                        (     236.196 eV)
    12      12       --        46.308 au  Pa            1.00     12 S               1
                        (    1260.118 eV)
    13      13       --      1052.293 au  Pa            1.00     13 S               1
                        (   28634.347 eV)
    14      14       --      5423.866 au  Pa            1.00     14 S               1
                        (  147590.910 eV)
    15      15       --     16326.809 au  Pa            1.00     15 S               1
                        (  444275.078 eV)
    16      16       --     46434.731 au  Pa            1.00     16 S               1
                        ( 1263553.308 eV)
    17      17      2.000    -644.804 au  Pa            1.00      1 P:x             1
                        (  -17546.004 eV)
    18      18      2.000    -159.382 au  Pa            1.00      2 P:x             1
                        (   -4336.995 eV)
    19      19      2.000     -38.001 au  Pa            1.00      3 P:x             1
                        (   -1034.059 eV)
    20      20      2.000      -7.452 au  Pa            1.00      4 P:x             1
                        (    -202.774 eV)
    21      21      2.000      -0.880 au  Pa            1.00      5 P:x             1
                        (     -23.949 eV)
    22      22       --        -0.008 au  Pa            1.00      6 P:x             1
                        (      -0.215 eV)
    23      23       --         0.404 au  Pa            1.00      7 P:x             1
                        (      10.994 eV)
    24      24       --         1.850 au  Pa            1.00      8 P:x             1
                        (      50.342 eV)
    25      25       --         7.570 au  Pa            1.00      9 P:x             1
                        (     205.994 eV)
    26      26       --        35.931 au  Pa            1.00     10 P:x             1
                        (     977.731 eV)
    27      27       --       178.469 au  Pa            1.00     11 P:x             1
                        (    4856.387 eV)
    28      28       --      1509.400 au  Pa            1.00     12 P:x             1
                        (   41072.871 eV)
    29      29       --     10783.504 au  Pa            1.00     13 P:x             1
                        (  293434.082 eV)
    30      30      2.000    -644.804 au  Pa            1.00      1 P:y             1
                        (  -17546.004 eV)
    31      31      2.000    -159.382 au  Pa            1.00      2 P:y             1
                        (   -4336.995 eV)
    32      32      2.000     -38.001 au  Pa            1.00      3 P:y             1
                        (   -1034.059 eV)
    33      33      2.000      -7.452 au  Pa            1.00      4 P:y             1
                        (    -202.774 eV)
    34      34      2.000      -0.880 au  Pa            1.00      5 P:y             1
                        (     -23.949 eV)
    35      35       --        -0.008 au  Pa            1.00      6 P:y             1
                        (      -0.215 eV)
    36      36       --         0.404 au  Pa            1.00      7 P:y             1
                        (      10.994 eV)
    37      37       --         1.850 au  Pa            1.00      8 P:y             1
                        (      50.342 eV)
    38      38       --         7.570 au  Pa            1.00      9 P:y             1
                        (     205.994 eV)
    39      39       --        35.931 au  Pa            1.00     10 P:y             1
                        (     977.731 eV)
    40      40       --       178.469 au  Pa            1.00     11 P:y             1
                        (    4856.387 eV)
    41      41       --      1509.400 au  Pa            1.00     12 P:y             1
                        (   41072.871 eV)
    42      42       --     10783.504 au  Pa            1.00     13 P:y             1
                        (  293434.082 eV)
    43      43      2.000    -644.804 au  Pa            1.00      1 P:z             1
                        (  -17546.004 eV)
    44      44      2.000    -159.382 au  Pa            1.00      2 P:z             1
                        (   -4336.995 eV)
    45      45      2.000     -38.001 au  Pa            1.00      3 P:z             1
                        (   -1034.059 eV)
    46      46      2.000      -7.452 au  Pa            1.00      4 P:z             1
                        (    -202.774 eV)
    47      47      2.000      -0.880 au  Pa            1.00      5 P:z             1
                        (     -23.949 eV)
    48      48       --        -0.008 au  Pa            1.00      6 P:z             1
                        (      -0.215 eV)
    49      49       --         0.404 au  Pa            1.00      7 P:z             1
                        (      10.994 eV)
    50      50       --         1.850 au  Pa            1.00      8 P:z             1
                        (      50.342 eV)
    51      51       --         7.570 au  Pa            1.00      9 P:z             1
                        (     205.994 eV)
    52      52       --        35.931 au  Pa            1.00     10 P:z             1
                        (     977.731 eV)
    53      53       --       178.469 au  Pa            1.00     11 P:z             1
                        (    4856.387 eV)
    54      54       --      1509.400 au  Pa            1.00     12 P:z             1
                        (   41072.871 eV)
    55      55       --     10783.504 au  Pa            1.00     13 P:z             1
                        (  293434.082 eV)
    56      56      2.000    -127.750 au  Pa            1.00      1 D:z2            1
                        (   -3476.261 eV)
    57      57      2.000     -25.974 au  Pa            1.00      2 D:z2            1
                        (    -706.779 eV)
    58      58      2.000      -3.548 au  Pa            1.00      3 D:z2            1
                        (     -96.540 eV)
    59      59      0.200      -0.066 au  Pa            1.00      4 D:z2            1
                        (      -1.808 eV)
    60      60       --         0.084 au  Pa            1.00      5 D:z2            1
                        (       2.281 eV)
    61      61       --         0.569 au  Pa            1.00      6 D:z2            1
                        (      15.477 eV)
    62      62       --         3.594 au  Pa            1.00      7 D:z2            1
                        (      97.805 eV)
    63      63       --        24.986 au  Pa            1.00      8 D:z2            1
                        (     679.903 eV)
    64      64       --       204.782 au  Pa            1.00      9 D:z2            1
                        (    5572.393 eV)
    65      65      2.000    -127.750 au  Pa            1.00      1 D:x2-y2         1
                        (   -3476.261 eV)
    66      66      2.000     -25.974 au  Pa            1.00      2 D:x2-y2         1
                        (    -706.779 eV)
    67      67      2.000      -3.548 au  Pa            1.00      3 D:x2-y2         1
                        (     -96.540 eV)
    68      68      0.200      -0.066 au  Pa            1.00      4 D:x2-y2         1
                        (      -1.808 eV)
    69      69       --         0.084 au  Pa            1.00      5 D:x2-y2         1
                        (       2.281 eV)
    70      70       --         0.569 au  Pa            1.00      6 D:x2-y2         1
                        (      15.477 eV)
    71      71       --         3.594 au  Pa            1.00      7 D:x2-y2         1
                        (      97.805 eV)
    72      72       --        24.986 au  Pa            1.00      8 D:x2-y2         1
                        (     679.903 eV)
    73      73       --       204.782 au  Pa            1.00      9 D:x2-y2         1
                        (    5572.393 eV)
    74      74      2.000    -127.750 au  Pa            1.00      1 D:xy            1
                        (   -3476.261 eV)
    75      75      2.000     -25.974 au  Pa            1.00      2 D:xy            1
                        (    -706.779 eV)
    76      76      2.000      -3.548 au  Pa            1.00      3 D:xy            1
                        (     -96.540 eV)
    77      77      0.200      -0.066 au  Pa            1.00      4 D:xy            1
                        (      -1.808 eV)
    78      78       --         0.084 au  Pa            1.00      5 D:xy            1
                        (       2.281 eV)
    79      79       --         0.569 au  Pa            1.00      6 D:xy            1
                        (      15.477 eV)
    80      80       --         3.594 au  Pa            1.00      7 D:xy            1
                        (      97.805 eV)
    81      81       --        24.986 au  Pa            1.00      8 D:xy            1
                        (     679.903 eV)
    82      82       --       204.782 au  Pa            1.00      9 D:xy            1
                        (    5572.393 eV)
    83      83      2.000    -127.750 au  Pa            1.00      1 D:xz            1
                        (   -3476.261 eV)
    84      84      2.000     -25.974 au  Pa            1.00      2 D:xz            1
                        (    -706.779 eV)
    85      85      2.000      -3.548 au  Pa            1.00      3 D:xz            1
                        (     -96.540 eV)
    86      86      0.200      -0.066 au  Pa            1.00      4 D:xz            1
                        (      -1.808 eV)
    87      87       --         0.084 au  Pa            1.00      5 D:xz            1
                        (       2.281 eV)
    88      88       --         0.569 au  Pa            1.00      6 D:xz            1
                        (      15.477 eV)
    89      89       --         3.594 au  Pa            1.00      7 D:xz            1
                        (      97.805 eV)
    90      90       --        24.986 au  Pa            1.00      8 D:xz            1
                        (     679.903 eV)
    91      91       --       204.782 au  Pa            1.00      9 D:xz            1
                        (    5572.393 eV)
    92      92      2.000    -127.750 au  Pa            1.00      1 D:yz            1
                        (   -3476.261 eV)
    93      93      2.000     -25.974 au  Pa            1.00      2 D:yz            1
                        (    -706.779 eV)
    94      94      2.000      -3.548 au  Pa            1.00      3 D:yz            1
                        (     -96.540 eV)
    95      95      0.200      -0.066 au  Pa            1.00      4 D:yz            1
                        (      -1.808 eV)
    96      96       --         0.084 au  Pa            1.00      5 D:yz            1
                        (       2.281 eV)
    97      97       --         0.569 au  Pa            1.00      6 D:yz            1
                        (      15.477 eV)
    98      98       --         3.594 au  Pa            1.00      7 D:yz            1
                        (      97.805 eV)
    99      99       --        24.986 au  Pa            1.00      8 D:yz            1
                        (     679.903 eV)
   100     100       --       204.782 au  Pa            1.00      9 D:yz            1
                        (    5572.393 eV)
   101     101      2.000     -13.085 au  Pa            1.00      1 F:z3            1
                        (    -356.050 eV)
   102     102      0.286      -0.042 au  Pa            1.00      2 F:z3            1
                        (      -1.139 eV)
   103     103       --         0.419 au  Pa            1.00      3 F:z3            1
                        (      11.400 eV)
   104     104       --         2.553 au  Pa            1.00      4 F:z3            1
                        (      69.470 eV)
   105     105       --        21.603 au  Pa            1.00      5 F:z3            1
                        (     587.835 eV)
   106     106      2.000     -13.085 au  Pa            1.00      1 F:z             1
                        (    -356.050 eV)
   107     107      0.286      -0.042 au  Pa            1.00      2 F:z             1
                        (      -1.139 eV)
   108     108       --         0.419 au  Pa            1.00      3 F:z             1
                        (      11.400 eV)
   109     109       --         2.553 au  Pa            1.00      4 F:z             1
                        (      69.470 eV)
   110     110       --        21.603 au  Pa            1.00      5 F:z             1
                        (     587.835 eV)
   111     111      2.000     -13.085 au  Pa            1.00      1 F:xyz           1
                        (    -356.050 eV)
   112     112      0.286      -0.042 au  Pa            1.00      2 F:xyz           1
                        (      -1.139 eV)
   113     113       --         0.419 au  Pa            1.00      3 F:xyz           1
                        (      11.400 eV)
   114     114       --         2.553 au  Pa            1.00      4 F:xyz           1
                        (      69.470 eV)
   115     115       --        21.603 au  Pa            1.00      5 F:xyz           1
                        (     587.835 eV)
   116     116      2.000     -13.085 au  Pa            1.00      1 F:z2x           1
                        (    -356.050 eV)
   117     117      0.286      -0.042 au  Pa            1.00      2 F:z2x           1
                        (      -1.139 eV)
   118     118       --         0.419 au  Pa            1.00      3 F:z2x           1
                        (      11.400 eV)
   119     119       --         2.553 au  Pa            1.00      4 F:z2x           1
                        (      69.470 eV)
   120     120       --        21.603 au  Pa            1.00      5 F:z2x           1
                        (     587.835 eV)
   121     121      2.000     -13.085 au  Pa            1.00      1 F:z2y           1
                        (    -356.050 eV)
   122     122      0.286      -0.042 au  Pa            1.00      2 F:z2y           1
                        (      -1.139 eV)
   123     123       --         0.419 au  Pa            1.00      3 F:z2y           1
                        (      11.400 eV)
   124     124       --         2.553 au  Pa            1.00      4 F:z2y           1
                        (      69.470 eV)
   125     125       --        21.603 au  Pa            1.00      5 F:z2y           1
                        (     587.835 eV)
   126     126      2.000     -13.085 au  Pa            1.00      1 F:x             1
                        (    -356.050 eV)
   127     127      0.286      -0.042 au  Pa            1.00      2 F:x             1
                        (      -1.139 eV)
   128     128       --         0.419 au  Pa            1.00      3 F:x             1
                        (      11.400 eV)
   129     129       --         2.553 au  Pa            1.00      4 F:x             1
                        (      69.470 eV)
   130     130       --        21.603 au  Pa            1.00      5 F:x             1
                        (     587.835 eV)
   131     131      2.000     -13.085 au  Pa            1.00      1 F:y             1
                        (    -356.050 eV)
   132     132      0.286      -0.042 au  Pa            1.00      2 F:y             1
                        (      -1.139 eV)
   133     133       --         0.419 au  Pa            1.00      3 F:y             1
                        (      11.400 eV)
   134     134       --         2.553 au  Pa            1.00      4 F:y             1
                        (      69.470 eV)
   135     135       --        21.603 au  Pa            1.00      5 F:y             1
                        (     587.835 eV)
   136     136      2.000     -14.492 au  N             1.00      1 S               2
                        (    -394.357 eV)
   137     137      2.000      -0.758 au  N             1.00      2 S               2
                        (     -20.628 eV)
   138     138       --         0.552 au  N             1.00      3 S               2
                        (      15.032 eV)
   139     139       --         6.986 au  N             1.00      4 S               2
                        (     190.090 eV)
   140     140       --        63.878 au  N             1.00      5 S               2
                        (    1738.211 eV)
   141     141      1.000      -0.269 au  N             1.00      1 P:x             2
                        (      -7.330 eV)
   142     142       --         0.311 au  N             1.00      2 P:x             2
                        (       8.459 eV)
   143     143       --         3.372 au  N             1.00      3 P:x             2
                        (      91.752 eV)
   144     144      1.000      -0.269 au  N             1.00      1 P:y             2
                        (      -7.330 eV)
   145     145       --         0.311 au  N             1.00      2 P:y             2
                        (       8.459 eV)
   146     146       --         3.372 au  N             1.00      3 P:y             2
                        (      91.752 eV)
   147     147      1.000      -0.269 au  N             1.00      1 P:z             2
                        (      -7.330 eV)
   148     148       --         0.311 au  N             1.00      2 P:z             2
                        (       8.459 eV)
   149     149       --         3.372 au  N             1.00      3 P:z             2
                        (      91.752 eV)
   150     150       --         1.300 au  N             1.00      1 D:z2            2
                        (      35.363 eV)
   151     151       --         1.300 au  N             1.00      1 D:x2-y2         2
                        (      35.363 eV)
   152     152       --         1.300 au  N             1.00      1 D:xy            2
                        (      35.363 eV)
   153     153       --         1.300 au  N             1.00      1 D:xz            2
                        (      35.363 eV)
   154     154       --         1.300 au  N             1.00      1 D:yz            2
                        (      35.363 eV)
   155     155       --         4.087 au  N             1.00      1 F:z3            2
                        (     111.226 eV)
   156     156       --         4.087 au  N             1.00      1 F:z             2
                        (     111.226 eV)
   157     157       --         4.087 au  N             1.00      1 F:xyz           2
                        (     111.226 eV)
   158     158       --         4.087 au  N             1.00      1 F:z2x           2
                        (     111.226 eV)
   159     159       --         4.087 au  N             1.00      1 F:z2y           2
                        (     111.226 eV)
   160     160       --         4.087 au  N             1.00      1 F:x             2
                        (     111.226 eV)
   161     161       --         4.087 au  N             1.00      1 F:y             2
                        (     111.226 eV)
   162     162      1.000      -0.244 au  H             1.00      1 S               3
                        (      -6.641 eV)
   163     163       --         0.104 au  H             1.00      2 S               3
                        (       2.836 eV)
   164     164       --         1.564 au  H             1.00      3 S               3
                        (      42.560 eV)
   165     165       --         0.436 au  H             1.00      1 P:x             3
                        (      11.864 eV)
   166     166       --         0.436 au  H             1.00      1 P:y             3
                        (      11.864 eV)
   167     167       --         0.436 au  H             1.00      1 P:z             3
                        (      11.864 eV)
   168     168       --         2.617 au  H             1.00      1 D:z2            3
                        (      71.221 eV)
   169     169       --         2.617 au  H             1.00      1 D:x2-y2         3
                        (      71.221 eV)
   170     170       --         2.617 au  H             1.00      1 D:xy            3
                        (      71.221 eV)
   171     171       --         2.617 au  H             1.00      1 D:xz            3
                        (      71.221 eV)
   172     172       --         2.617 au  H             1.00      1 D:yz            3
                        (      71.221 eV)
   173     173      1.000      -0.244 au  H             1.00      1 S               4
                        (      -6.641 eV)
   174     174       --         0.104 au  H             1.00      2 S               4
                        (       2.836 eV)
   175     175       --         1.564 au  H             1.00      3 S               4
                        (      42.560 eV)
   176     176       --         0.436 au  H             1.00      1 P:x             4
                        (      11.864 eV)
   177     177       --         0.436 au  H             1.00      1 P:y             4
                        (      11.864 eV)
   178     178       --         0.436 au  H             1.00      1 P:z             4
                        (      11.864 eV)
   179     179       --         2.617 au  H             1.00      1 D:z2            4
                        (      71.221 eV)
   180     180       --         2.617 au  H             1.00      1 D:x2-y2         4
                        (      71.221 eV)
   181     181       --         2.617 au  H             1.00      1 D:xy            4
                        (      71.221 eV)
   182     182       --         2.617 au  H             1.00      1 D:xz            4
                        (      71.221 eV)
   183     183       --         2.617 au  H             1.00      1 D:yz            4
                        (      71.221 eV)
   184     184      1.000      -0.244 au  H             1.00      1 S               5
                        (      -6.641 eV)
   185     185       --         0.104 au  H             1.00      2 S               5
                        (       2.836 eV)
   186     186       --         1.564 au  H             1.00      3 S               5
                        (      42.560 eV)
   187     187       --         0.436 au  H             1.00      1 P:x             5
                        (      11.864 eV)
   188     188       --         0.436 au  H             1.00      1 P:y             5
                        (      11.864 eV)
   189     189       --         0.436 au  H             1.00      1 P:z             5
                        (      11.864 eV)
   190     190       --         2.617 au  H             1.00      1 D:z2            5
                        (      71.221 eV)
   191     191       --         2.617 au  H             1.00      1 D:x2-y2         5
                        (      71.221 eV)
   192     192       --         2.617 au  H             1.00      1 D:xy            5
                        (      71.221 eV)
   193     193       --         2.617 au  H             1.00      1 D:xz            5
                        (      71.221 eV)
   194     194       --         2.617 au  H             1.00      1 D:yz            5
                        (      71.221 eV)
   195     195      1.000      -0.244 au  H             1.00      1 S               6
                        (      -6.641 eV)
   196     196       --         0.104 au  H             1.00      2 S               6
                        (       2.836 eV)
   197     197       --         1.564 au  H             1.00      3 S               6
                        (      42.560 eV)
   198     198       --         0.436 au  H             1.00      1 P:x             6
                        (      11.864 eV)
   199     199       --         0.436 au  H             1.00      1 P:y             6
                        (      11.864 eV)
   200     200       --         0.436 au  H             1.00      1 P:z             6
                        (      11.864 eV)
   201     201       --         2.617 au  H             1.00      1 D:z2            6
                        (      71.221 eV)
   202     202       --         2.617 au  H             1.00      1 D:x2-y2         6
                        (      71.221 eV)
   203     203       --         2.617 au  H             1.00      1 D:xy            6
                        (      71.221 eV)
   204     204       --         2.617 au  H             1.00      1 D:xz            6
                        (      71.221 eV)
   205     205       --         2.617 au  H             1.00      1 D:yz            6
                        (      71.221 eV)
   206     206      2.000     -19.315 au  O             1.00      1 S               7
                        (    -525.599 eV)
   207     207      2.000      -0.972 au  O             1.00      2 S               7
                        (     -26.457 eV)
   208     208       --         0.838 au  O             1.00      3 S               7
                        (      22.795 eV)
   209     209       --        13.598 au  O             1.00      4 S               7
                        (     370.019 eV)
   210     210       --       122.185 au  O             1.00      5 S               7
                        (    3324.810 eV)
   211     211      1.333      -0.361 au  O             1.00      1 P:x             7
                        (      -9.818 eV)
   212     212       --         0.380 au  O             1.00      2 P:x             7
                        (      10.337 eV)
   213     213       --         3.931 au  O             1.00      3 P:x             7
                        (     106.958 eV)
   214     214      1.333      -0.361 au  O             1.00      1 P:y             7
                        (      -9.818 eV)
   215     215       --         0.380 au  O             1.00      2 P:y             7
                        (      10.337 eV)
   216     216       --         3.931 au  O             1.00      3 P:y             7
                        (     106.958 eV)
   217     217      1.333      -0.361 au  O             1.00      1 P:z             7
                        (      -9.818 eV)
   218     218       --         0.380 au  O             1.00      2 P:z             7
                        (      10.337 eV)
   219     219       --         3.931 au  O             1.00      3 P:z             7
                        (     106.958 eV)
   220     220       --         1.117 au  O             1.00      1 D:z2            7
                        (      30.399 eV)
   221     221       --         1.117 au  O             1.00      1 D:x2-y2         7
                        (      30.399 eV)
   222     222       --         1.117 au  O             1.00      1 D:xy            7
                        (      30.399 eV)
   223     223       --         1.117 au  O             1.00      1 D:xz            7
                        (      30.399 eV)
   224     224       --         1.117 au  O             1.00      1 D:yz            7
                        (      30.399 eV)
   225     225       --         3.432 au  O             1.00      1 F:z3            7
                        (      93.382 eV)
   226     226       --         3.432 au  O             1.00      1 F:z             7
                        (      93.382 eV)
   227     227       --         3.432 au  O             1.00      1 F:xyz           7
                        (      93.382 eV)
   228     228       --         3.432 au  O             1.00      1 F:z2x           7
                        (      93.382 eV)
   229     229       --         3.432 au  O             1.00      1 F:z2y           7
                        (      93.382 eV)
   230     230       --         3.432 au  O             1.00      1 F:x             7
                        (      93.382 eV)
   231     231       --         3.432 au  O             1.00      1 F:y             7
                        (      93.382 eV)
   232     232      2.000     -19.315 au  O             1.00      1 S               8
                        (    -525.599 eV)
   233     233      2.000      -0.972 au  O             1.00      2 S               8
                        (     -26.457 eV)
   234     234       --         0.838 au  O             1.00      3 S               8
                        (      22.795 eV)
   235     235       --        13.598 au  O             1.00      4 S               8
                        (     370.019 eV)
   236     236       --       122.185 au  O             1.00      5 S               8
                        (    3324.810 eV)
   237     237      1.333      -0.361 au  O             1.00      1 P:x             8
                        (      -9.818 eV)
   238     238       --         0.380 au  O             1.00      2 P:x             8
                        (      10.337 eV)
   239     239       --         3.931 au  O             1.00      3 P:x             8
                        (     106.958 eV)
   240     240      1.333      -0.361 au  O             1.00      1 P:y             8
                        (      -9.818 eV)
   241     241       --         0.380 au  O             1.00      2 P:y             8
                        (      10.337 eV)
   242     242       --         3.931 au  O             1.00      3 P:y             8
                        (     106.958 eV)
   243     243      1.333      -0.361 au  O             1.00      1 P:z             8
                        (      -9.818 eV)
   244     244       --         0.380 au  O             1.00      2 P:z             8
                        (      10.337 eV)
   245     245       --         3.931 au  O             1.00      3 P:z             8
                        (     106.958 eV)
   246     246       --         1.117 au  O             1.00      1 D:z2            8
                        (      30.399 eV)
   247     247       --         1.117 au  O             1.00      1 D:x2-y2         8
                        (      30.399 eV)
   248     248       --         1.117 au  O             1.00      1 D:xy            8
                        (      30.399 eV)
   249     249       --         1.117 au  O             1.00      1 D:xz            8
                        (      30.399 eV)
   250     250       --         1.117 au  O             1.00      1 D:yz            8
                        (      30.399 eV)
   251     251       --         3.432 au  O             1.00      1 F:z3            8
                        (      93.382 eV)
   252     252       --         3.432 au  O             1.00      1 F:z             8
                        (      93.382 eV)
   253     253       --         3.432 au  O             1.00      1 F:xyz           8
                        (      93.382 eV)
   254     254       --         3.432 au  O             1.00      1 F:z2x           8
                        (      93.382 eV)
   255     255       --         3.432 au  O             1.00      1 F:z2y           8
                        (      93.382 eV)
   256     256       --         3.432 au  O             1.00      1 F:x             8
                        (      93.382 eV)
   257     257       --         3.432 au  O             1.00      1 F:y             8
                        (      93.382 eV)
   258     258      2.000     -19.315 au  O             1.00      1 S               9
                        (    -525.599 eV)
   259     259      2.000      -0.972 au  O             1.00      2 S               9
                        (     -26.457 eV)
   260     260       --         0.838 au  O             1.00      3 S               9
                        (      22.795 eV)
   261     261       --        13.598 au  O             1.00      4 S               9
                        (     370.019 eV)
   262     262       --       122.185 au  O             1.00      5 S               9
                        (    3324.810 eV)
   263     263      1.333      -0.361 au  O             1.00      1 P:x             9
                        (      -9.818 eV)
   264     264       --         0.380 au  O             1.00      2 P:x             9
                        (      10.337 eV)
   265     265       --         3.931 au  O             1.00      3 P:x             9
                        (     106.958 eV)
   266     266      1.333      -0.361 au  O             1.00      1 P:y             9
                        (      -9.818 eV)
   267     267       --         0.380 au  O             1.00      2 P:y             9
                        (      10.337 eV)
   268     268       --         3.931 au  O             1.00      3 P:y             9
                        (     106.958 eV)
   269     269      1.333      -0.361 au  O             1.00      1 P:z             9
                        (      -9.818 eV)
   270     270       --         0.380 au  O             1.00      2 P:z             9
                        (      10.337 eV)
   271     271       --         3.931 au  O             1.00      3 P:z             9
                        (     106.958 eV)
   272     272       --         1.117 au  O             1.00      1 D:z2            9
                        (      30.399 eV)
   273     273       --         1.117 au  O             1.00      1 D:x2-y2         9
                        (      30.399 eV)
   274     274       --         1.117 au  O             1.00      1 D:xy            9
                        (      30.399 eV)
   275     275       --         1.117 au  O             1.00      1 D:xz            9
                        (      30.399 eV)
   276     276       --         1.117 au  O             1.00      1 D:yz            9
                        (      30.399 eV)
   277     277       --         3.432 au  O             1.00      1 F:z3            9
                        (      93.382 eV)
   278     278       --         3.432 au  O             1.00      1 F:z             9
                        (      93.382 eV)
   279     279       --         3.432 au  O             1.00      1 F:xyz           9
                        (      93.382 eV)
   280     280       --         3.432 au  O             1.00      1 F:z2x           9
                        (      93.382 eV)
   281     281       --         3.432 au  O             1.00      1 F:z2y           9
                        (      93.382 eV)
   282     282       --         3.432 au  O             1.00      1 F:x             9
                        (      93.382 eV)
   283     283       --         3.432 au  O             1.00      1 F:y             9
                        (      93.382 eV)
   284     284      2.000     -19.315 au  O             1.00      1 S              10
                        (    -525.599 eV)
   285     285      2.000      -0.972 au  O             1.00      2 S              10
                        (     -26.457 eV)
   286     286       --         0.838 au  O             1.00      3 S              10
                        (      22.795 eV)
   287     287       --        13.598 au  O             1.00      4 S              10
                        (     370.019 eV)
   288     288       --       122.185 au  O             1.00      5 S              10
                        (    3324.810 eV)
   289     289      1.333      -0.361 au  O             1.00      1 P:x            10
                        (      -9.818 eV)
   290     290       --         0.380 au  O             1.00      2 P:x            10
                        (      10.337 eV)
   291     291       --         3.931 au  O             1.00      3 P:x            10
                        (     106.958 eV)
   292     292      1.333      -0.361 au  O             1.00      1 P:y            10
                        (      -9.818 eV)
   293     293       --         0.380 au  O             1.00      2 P:y            10
                        (      10.337 eV)
   294     294       --         3.931 au  O             1.00      3 P:y            10
                        (     106.958 eV)
   295     295      1.333      -0.361 au  O             1.00      1 P:z            10
                        (      -9.818 eV)
   296     296       --         0.380 au  O             1.00      2 P:z            10
                        (      10.337 eV)
   297     297       --         3.931 au  O             1.00      3 P:z            10
                        (     106.958 eV)
   298     298       --         1.117 au  O             1.00      1 D:z2           10
                        (      30.399 eV)
   299     299       --         1.117 au  O             1.00      1 D:x2-y2        10
                        (      30.399 eV)
   300     300       --         1.117 au  O             1.00      1 D:xy           10
                        (      30.399 eV)
   301     301       --         1.117 au  O             1.00      1 D:xz           10
                        (      30.399 eV)
   302     302       --         1.117 au  O             1.00      1 D:yz           10
                        (      30.399 eV)
   303     303       --         3.432 au  O             1.00      1 F:z3           10
                        (      93.382 eV)
   304     304       --         3.432 au  O             1.00      1 F:z            10
                        (      93.382 eV)
   305     305       --         3.432 au  O             1.00      1 F:xyz          10
                        (      93.382 eV)
   306     306       --         3.432 au  O             1.00      1 F:z2x          10
                        (      93.382 eV)
   307     307       --         3.432 au  O             1.00      1 F:z2y          10
                        (      93.382 eV)
   308     308       --         3.432 au  O             1.00      1 F:x            10
                        (      93.382 eV)
   309     309       --         3.432 au  O             1.00      1 F:y            10
                        (      93.382 eV)
   310     310      2.000     -10.350 au  C             1.00      1 S              11
                        (    -281.645 eV)
   311     311      2.000      -0.564 au  C             1.00      2 S              11
                        (     -15.357 eV)
   312     312       --         0.402 au  C             1.00      3 S              11
                        (      10.927 eV)
   313     313       --         5.502 au  C             1.00      4 S              11
                        (     149.716 eV)
   314     314       --        50.237 au  C             1.00      5 S              11
                        (    1367.027 eV)
   315     315      0.667      -0.188 au  C             1.00      1 P:x            11
                        (      -5.107 eV)
   316     316       --         0.191 au  C             1.00      2 P:x            11
                        (       5.205 eV)
   317     317       --         2.088 au  C             1.00      3 P:x            11
                        (      56.818 eV)
   318     318      0.667      -0.188 au  C             1.00      1 P:y            11
                        (      -5.107 eV)
   319     319       --         0.191 au  C             1.00      2 P:y            11
                        (       5.205 eV)
   320     320       --         2.088 au  C             1.00      3 P:y            11
                        (      56.818 eV)
   321     321      0.667      -0.188 au  C             1.00      1 P:z            11
                        (      -5.107 eV)
   322     322       --         0.191 au  C             1.00      2 P:z            11
                        (       5.205 eV)
   323     323       --         2.088 au  C             1.00      3 P:z            11
                        (      56.818 eV)
   324     324       --         1.292 au  C             1.00      1 D:z2           11
                        (      35.151 eV)
   325     325       --         1.292 au  C             1.00      1 D:x2-y2        11
                        (      35.151 eV)
   326     326       --         1.292 au  C             1.00      1 D:xy           11
                        (      35.151 eV)
   327     327       --         1.292 au  C             1.00      1 D:xz           11
                        (      35.151 eV)
   328     328       --         1.292 au  C             1.00      1 D:yz           11
                        (      35.151 eV)
   329     329       --         4.084 au  C             1.00      1 F:z3           11
                        (     111.127 eV)
   330     330       --         4.084 au  C             1.00      1 F:z            11
                        (     111.127 eV)
   331     331       --         4.084 au  C             1.00      1 F:xyz          11
                        (     111.127 eV)
   332     332       --         4.084 au  C             1.00      1 F:z2x          11
                        (     111.127 eV)
   333     333       --         4.084 au  C             1.00      1 F:z2y          11
                        (     111.127 eV)
   334     334       --         4.084 au  C             1.00      1 F:x            11
                        (     111.127 eV)
   335     335       --         4.084 au  C             1.00      1 F:y            11
                        (     111.127 eV)
   336     336      2.000     -89.200 au  S             1.00      1 S              12
                        (   -2427.259 eV)
   337     337      2.000      -8.042 au  S             1.00      2 S              12
                        (    -218.844 eV)
   338     338      2.000      -0.695 au  S             1.00      3 S              12
                        (     -18.914 eV)
   339     339       --         0.217 au  S             1.00      4 S              12
                        (       5.908 eV)
   340     340       --         2.090 au  S             1.00      5 S              12
                        (      56.875 eV)
   341     341       --        12.721 au  S             1.00      6 S              12
                        (     346.165 eV)
   342     342       --       192.681 au  S             1.00      7 S              12
                        (    5243.115 eV)
   343     343      2.000      -5.951 au  S             1.00      1 P:x            12
                        (    -161.937 eV)
   344     344      1.333      -0.271 au  S             1.00      2 P:x            12
                        (      -7.386 eV)
   345     345       --         0.147 au  S             1.00      3 P:x            12
                        (       3.991 eV)
   346     346       --         1.258 au  S             1.00      4 P:x            12
                        (      34.241 eV)
   347     347       --        13.143 au  S             1.00      5 P:x            12
                        (     357.653 eV)
   348     348      2.000      -5.951 au  S             1.00      1 P:y            12
                        (    -161.937 eV)
   349     349      1.333      -0.271 au  S             1.00      2 P:y            12
                        (      -7.386 eV)
   350     350       --         0.147 au  S             1.00      3 P:y            12
                        (       3.991 eV)
   351     351       --         1.258 au  S             1.00      4 P:y            12
                        (      34.241 eV)
   352     352       --        13.143 au  S             1.00      5 P:y            12
                        (     357.653 eV)
   353     353      2.000      -5.951 au  S             1.00      1 P:z            12
                        (    -161.937 eV)
   354     354      1.333      -0.271 au  S             1.00      2 P:z            12
                        (      -7.386 eV)
   355     355       --         0.147 au  S             1.00      3 P:z            12
                        (       3.991 eV)
   356     356       --         1.258 au  S             1.00      4 P:z            12
                        (      34.241 eV)
   357     357       --        13.143 au  S             1.00      5 P:z            12
                        (     357.653 eV)
   358     358       --         0.481 au  S             1.00      1 D:z2           12
                        (      13.094 eV)
   359     359       --         0.481 au  S             1.00      1 D:x2-y2        12
                        (      13.094 eV)
   360     360       --         0.481 au  S             1.00      1 D:xy           12
                        (      13.094 eV)
   361     361       --         0.481 au  S             1.00      1 D:xz           12
                        (      13.094 eV)
   362     362       --         0.481 au  S             1.00      1 D:yz           12
                        (      13.094 eV)
   363     363       --         1.329 au  S             1.00      1 F:z3           12
                        (      36.154 eV)
   364     364       --         1.329 au  S             1.00      1 F:z            12
                        (      36.154 eV)
   365     365       --         1.329 au  S             1.00      1 F:xyz          12
                        (      36.154 eV)
   366     366       --         1.329 au  S             1.00      1 F:z2x          12
[...]
 Index  Atom      ---- Displacements (x/y/z) ----
     1    Pa       0.002500   0.002611  -0.005211
     2     N      -0.081392   0.112015   0.095521
     3     H       0.085523   0.275263  -0.156256
     4     O       0.038564   0.086221  -0.126836
     5     H       0.117801  -0.121134  -0.464949
     6     O       0.008590  -0.057225   0.072588
     7     H      -0.486127  -0.255604   0.099776
     8     O       0.030343  -0.063452  -0.011523
     9     H       0.480551  -0.099956  -0.098075
    10     O      -0.001342  -0.071864   0.050763
    11     C      -0.051132   0.059756   0.060398
    12     S      -0.007556  -0.030817   0.000186
 
 Mode:    17      Frequency (cm-1):      185.3110     Intensity (km/mol):      271.1216
 Index  Atom      ---- Displacements (x/y/z) ----
     1    Pa      -0.022224   0.008253   0.028193
     2     N       0.035964   0.007027  -0.035071
     3     H       0.016923   0.341031  -0.131315
     4     O      -0.097715   0.021939  -0.093137
     5     H      -0.079019  -0.373652   0.110708
     6     O       0.092968   0.002003   0.081882
     7     H       0.140257   0.029214   0.443800
     8     O       0.086831  -0.096744  -0.104529
     9     H      -0.563860   0.001764   0.088837
    10     O       0.157227  -0.140100  -0.223124
    11     C       0.027954   0.017384  -0.028936
    12     S       0.029939   0.037322  -0.024096
 
 Mode:    18      Frequency (cm-1):      192.0081     Intensity (km/mol):      140.0996
 Index  Atom      ---- Displacements (x/y/z) ----
     1    Pa      -0.003412   0.013161  -0.020705
     2     N       0.047712  -0.084882   0.197559
     3     H      -0.509599  -0.296380  -0.121045
     4     O       0.102790   0.101388  -0.010562
     5     H      -0.314468  -0.368313   0.287633
     6     O       0.042092   0.010228  -0.015358
     7     H       0.026827   0.006558   0.062377
     8     O       0.078300  -0.000604  -0.016574
     9     H      -0.310458  -0.152733  -0.214456
    10     O       0.065142   0.100051  -0.059786
    11     C      -0.000812  -0.088580   0.142163
    12     S      -0.105259  -0.104709   0.060444
 
 Mode:    19      Frequency (cm-1):      205.2699     Intensity (km/mol):      636.1112
 Index  Atom      ---- Displacements (x/y/z) ----
     1    Pa      -0.018183  -0.023172   0.013733
     2     N      -0.016663   0.075952  -0.092956
     3     H      -0.670751  -0.343491  -0.188597
     4     O       0.142287   0.081395  -0.018174
     5     H      -0.246628  -0.331197   0.069708
     6     O      -0.006402   0.025003   0.006783
     7     H      -0.067256  -0.003853  -0.176798
     8     O       0.074697  -0.030972   0.022450
     9     H      -0.112623  -0.205378  -0.222551
    10     O      -0.014561   0.054409   0.059029
    11     C       0.007320   0.067502  -0.079812
    12     S       0.072470   0.071753  -0.047300
 
 Mode:    20      Frequency (cm-1):      242.8149     Intensity (km/mol):      367.7646
 Index  Atom      ---- Displacements (x/y/z) ----
     1    Pa      -0.003037  -0.004629  -0.004151
     2     N       0.013540  -0.016713  -0.009315
     3     H       0.314860   0.113059   0.089257
     4     O      -0.058355  -0.046920   0.001961
     5     H      -0.191021  -0.474993  -0.177610
     6     O       0.088268   0.078168   0.011181
     7     H      -0.453149  -0.147988  -0.390707
     8     O      -0.005902   0.087347   0.090600
     9     H      -0.215078  -0.183814  -0.297173
    10     O       0.038832   0.006255   0.017839
    11     C       0.007525  -0.010295  -0.007322
    12     S      -0.001085   0.004044   0.000465
 
 Mode:    21      Frequency (cm-1):      267.8695     Intensity (km/mol):      111.7230
 Index  Atom      ---- Displacements (x/y/z) ----
     1    Pa      -0.000831  -0.005264   0.007519
     2     N       0.006617  -0.001664  -0.008098
     3     H      -0.126367  -0.077102  -0.021426
     4     O       0.014335  -0.001165   0.007669
     5     H      -0.193248  -0.120475   0.401631
     6     O       0.067965   0.040465  -0.023511
     7     H      -0.382847  -0.139786   0.038911
     8     O      -0.136063  -0.014138  -0.020999
     9     H       0.678752   0.199257   0.239195
    10     O       0.046541   0.044152  -0.092121
    11     C       0.006669   0.001251  -0.004833
    12     S       0.004967   0.007975  -0.005208
 
 Mode:    22      Frequency (cm-1):      297.3237     Intensity (km/mol):       65.5225
 Index  Atom      ---- Displacements (x/y/z) ----
     1    Pa       0.003666   0.002635  -0.001991
     2     N      -0.001071  -0.000608   0.003942
     3     H       0.040007   0.167705  -0.027814
     4     O      -0.013181  -0.025947   0.001909
     5     H      -0.223012  -0.492775  -0.188394
     6     O      -0.078838  -0.025787   0.081454
     7     H       0.329734   0.126642  -0.550473
     8     O      -0.013388  -0.045580  -0.067299
     9     H       0.110032   0.237011   0.342184
    10     O       0.044552   0.064711   0.029839
    11     C      -0.001767  -0.001985   0.002856
    12     S      -0.003010  -0.002939   0.002006
 
 Mode:    23      Frequency (cm-1):      331.5016     Intensity (km/mol):       38.5777
 Index  Atom      ---- Displacements (x/y/z) ----
     1    Pa      -0.000555  -0.001210   0.003605
     2     N       0.003312  -0.000324  -0.004835
     3     H       0.066753   0.114493  -0.036983
     4     O       0.004545  -0.051606  -0.018447
     5     H      -0.155305  -0.448454  -0.332599
     6     O      -0.022120  -0.007857  -0.111764
     7     H       0.194126   0.094040   0.747942
     8     O      -0.035701   0.014692   0.011733
     9     H       0.090824  -0.025677  -0.055541
    10     O       0.036950   0.067362   0.059616
    11     C       0.002155   0.003599  -0.003218
    12     S       0.003728   0.004605  -0.003452
 
 Mode:    24      Frequency (cm-1):      359.1415     Intensity (km/mol):      387.8200
 Index  Atom      ---- Displacements (x/y/z) ----
     1    Pa      -0.002332   0.006879  -0.003610
     2     N       0.000454  -0.004398   0.001071
     3     H      -0.456728   0.776113  -0.362473
     4     O       0.066434  -0.125922   0.037535
     5     H       0.031766   0.110363   0.102653
     6     O       0.018366  -0.009615  -0.000979
     7     H      -0.043882  -0.035103  -0.062860
     8     O      -0.000548   0.010580   0.028009
     9     H      -0.034755  -0.032159  -0.033960
    10     O      -0.010815  -0.012410   0.000507
    11     C      -0.003600  -0.001064   0.004082
    12     S      -0.002859  -0.004484   0.002771
 
 Mode:    25      Frequency (cm-1):      484.4009     Intensity (km/mol):        3.1947
 Index  Atom      ---- Displacements (x/y/z) ----
     1    Pa      -0.000250  -0.000413   0.001665
     2     N       0.163717  -0.328600  -0.246001
     3     H      -0.027430  -0.040670   0.022769
     4     O      -0.015063   0.007393   0.015399
     5     H      -0.015147  -0.019737   0.003721
     6     O       0.009127   0.000064  -0.010438
     7     H       0.035117   0.009736  -0.052127
     8     O       0.005591   0.012365  -0.010755
     9     H       0.013303  -0.004294  -0.035935
    10     O      -0.002769  -0.001065  -0.001244
    11     C      -0.328614   0.655501   0.485728
    12     S       0.054812  -0.106774  -0.081134
 
 Mode:    26      Frequency (cm-1):      491.7253     Intensity (km/mol):        5.8504
 Index  Atom      ---- Displacements (x/y/z) ----
     1    Pa      -0.000462  -0.000914   0.001438
     2     N      -0.327034   0.057183  -0.300925
     3     H       0.000344  -0.034178  -0.013967
     4     O       0.012516  -0.017844  -0.014297
     5     H      -0.002659  -0.005657   0.020758
     6     O      -0.012972   0.020964   0.013044
     7     H      -0.005426   0.023526   0.010761
     8     O      -0.000366  -0.003656   0.000716
     9     H      -0.019621  -0.015612  -0.015624
    10     O      -0.000855  -0.007830   0.009886
    11     C       0.644756  -0.114073   0.587394
    12     S      -0.093717   0.029564  -0.103793
 
 Mode:    27      Frequency (cm-1):      496.9775     Intensity (km/mol):       94.0003
 Index  Atom      ---- Displacements (x/y/z) ----
     1    Pa      -0.002692  -0.018949   0.018101
     2     N      -0.014719   0.009355  -0.005711
     3     H      -0.222296   0.490459   0.047697
     4     O      -0.127881   0.187768   0.158057
     5     H      -0.123238  -0.144065  -0.208341
     6     O       0.114604  -0.201259  -0.140636
     7     H       0.157832  -0.183231  -0.245264
     8     O       0.114307   0.236496  -0.182183
     9     H       0.378072   0.195450  -0.258011
    10     O      -0.079323   0.014624  -0.040948
    11     C       0.020478  -0.012609  -0.000933
    12     S       0.001352   0.007378  -0.004111
 
 Mode:    28      Frequency (cm-1):      527.5534     Intensity (km/mol):      234.9684
 Index  Atom      ---- Displacements (x/y/z) ----
     1    Pa      -0.035075  -0.009909  -0.001088
     2     N       0.004733  -0.001407   0.006905
     3     H       0.183067  -0.167175  -0.017411
     4     O       0.059258  -0.099402  -0.077146
     5     H       0.428586   0.343561   0.474346
     6     O      -0.016007   0.040025   0.034839
     7     H      -0.018334   0.038654  -0.001569
     8     O       0.108988   0.198225  -0.167099
     9     H       0.326007   0.212194  -0.162667
    10     O       0.300462  -0.013641   0.196150
    11     C      -0.005973  -0.002509  -0.001096
    12     S      -0.001830  -0.002942   0.002652
 
 Mode:    29      Frequency (cm-1):      531.9370     Intensity (km/mol):      429.7789
 Index  Atom      ---- Displacements (x/y/z) ----
     1    Pa       0.016457  -0.036048  -0.027680
     2     N       0.000311   0.001040   0.000938
     3     H      -0.310244   0.573219   0.012316
     4     O      -0.130809   0.195449   0.168452
     5     H       0.069869   0.034455   0.069898
     6     O      -0.139943   0.249099   0.144435
     7     H      -0.177763   0.238731   0.529083
     8     O      -0.003165   0.013607   0.001742
     9     H       0.029312   0.013127   0.000505
    10     O       0.059304   0.005631   0.047289
    11     C      -0.000686   0.001528  -0.000611
    12     S       0.000823   0.000348  -0.000508
 
 Mode:    30      Frequency (cm-1):      631.2818     Intensity (km/mol):      268.2776
 Index  Atom      ---- Displacements (x/y/z) ----
     1    Pa       0.014887  -0.014579   0.023876
     2     N       0.017913   0.002635   0.008343
     3     H       0.135928  -0.225437  -0.104496
     4     O       0.112382  -0.175664  -0.121032
     5     H      -0.336725  -0.137893  -0.321048
     6     O      -0.126913   0.214859   0.138422
     7     H      -0.140933   0.215636   0.285644
     8     O       0.124074   0.224587  -0.182921
     9     H       0.276377   0.217007  -0.217443
    10     O      -0.286774  -0.006040  -0.203716
    11     C      -0.014194  -0.010068   0.004749
    12     S      -0.019372  -0.023150   0.018021
 
 Mode:    31      Frequency (cm-1):      867.4154     Intensity (km/mol):        1.2446
 Index  Atom      ---- Displacements (x/y/z) ----
     1    Pa       0.005357   0.006450  -0.005251
     2     N      -0.374896  -0.462971   0.369803
     3     H       0.017539  -0.015420  -0.008015
     4     O       0.008686  -0.014996  -0.009425
     5     H      -0.016352   0.001990  -0.015752
     6     O      -0.009649   0.015400   0.012088
     7     H      -0.009982   0.017233   0.017029
     8     O       0.011359   0.019163  -0.015470
     9     H       0.017302   0.020879  -0.016242
    10     O      -0.018525  -0.003155  -0.011481
    11     C      -0.320704  -0.367079   0.275932
    12     S       0.249651   0.284949  -0.214709
 
 Mode:    32      Frequency (cm-1):     2022.2387     Intensity (km/mol):     4506.8287
 Index  Atom      ---- Displacements (x/y/z) ----
     1    Pa      -0.000282  -0.000858   0.000963
     2     N      -0.340091  -0.391290   0.297917
     3     H       0.009410   0.001430  -0.014744
     4     O       0.005011  -0.006685  -0.004889
     5     H      -0.012982   0.005935  -0.003796
     6     O      -0.003384   0.007518   0.004661
     7     H      -0.003071   0.017146  -0.001111
     8     O       0.003681   0.005459  -0.004621
     9     H       0.001330   0.009694  -0.005877
    10     O      -0.005207   0.000643  -0.006627
    11     C       0.456759   0.523707  -0.396246
    12     S      -0.020325  -0.023531   0.017828
 
 Mode:    33      Frequency (cm-1):     3786.8396     Intensity (km/mol):      358.3290
 Index  Atom      ---- Displacements (x/y/z) ----
     1    Pa      -0.000000  -0.000029  -0.000008
     2     N       0.000087   0.000112  -0.000085
     3     H      -0.092085   0.066952   0.270620
     4     O       0.005604  -0.003795  -0.016770
     5     H       0.027754  -0.016347   0.008176
     6     O       0.002743  -0.006600  -0.000144
     7     H      -0.041183   0.101774  -0.001541
     8     O       0.002105  -0.049473   0.033338
     9     H      -0.037995   0.784697  -0.528680
    10     O      -0.001507   0.001153  -0.000400
    11     C      -0.000022  -0.000050   0.000049
    12     S       0.000022   0.000016  -0.000017
 
 Mode:    34      Frequency (cm-1):     3789.5344     Intensity (km/mol):      377.2163
 Index  Atom      ---- Displacements (x/y/z) ----
     1    Pa       0.000036  -0.000017  -0.000018
     2     N      -0.000274  -0.000342   0.000319
     3     H      -0.298187   0.216060   0.877604
     4     O       0.018692  -0.013698  -0.054960
     5     H      -0.053183   0.031667  -0.015325
     6     O       0.000163  -0.000565   0.000160
     7     H      -0.004543   0.011151  -0.000773
     8     O      -0.000546   0.015671  -0.010495
     9     H       0.011925  -0.242913   0.164090
    10     O       0.002967  -0.001995   0.000742
    11     C       0.000247   0.000296  -0.000206
    12     S      -0.000037  -0.000048   0.000030
 
 Mode:    35      Frequency (cm-1):     3799.1641     Intensity (km/mol):      266.2462
 Index  Atom      ---- Displacements (x/y/z) ----
     1    Pa      -0.000001   0.000027   0.000022
     2     N      -0.000219  -0.000354   0.000267
     3     H      -0.012628   0.009153   0.036245
     4     O       0.000790  -0.000614  -0.002310
     5     H      -0.067659   0.040383  -0.019153
     6     O      -0.023117   0.057504  -0.001044
     7     H       0.368503  -0.916900   0.017063
     8     O       0.000478  -0.005358   0.003433
     9     H      -0.004275   0.087872  -0.058508
    10     O       0.004045  -0.002597   0.001000
    11     C       0.000250   0.000240  -0.000204
    12     S      -0.000034  -0.000042   0.000030
 
 Mode:    36      Frequency (cm-1):     3818.9789     Intensity (km/mol):      348.6123
 Index  Atom      ---- Displacements (x/y/z) ----
     1    Pa      -0.000020   0.000015   0.000000
     2     N      -0.000275  -0.000400   0.000346
     3     H      -0.017258   0.012050   0.049750
     4     O       0.001304  -0.001054  -0.003280
     5     H       0.828101  -0.491535   0.239028
     6     O      -0.002022   0.005145   0.000175
     7     H       0.030765  -0.077329   0.001472
     8     O       0.000140   0.002458  -0.001643
     9     H       0.001636  -0.034456   0.022937
    10     O      -0.052149   0.030706  -0.015178
    11     C       0.000285   0.000309  -0.000237
    12     S      -0.000043  -0.000045   0.000032

PES point character: Geometry corresponds to a local minimum on the PES.




 ============================
 Statistical Thermal Analysis  ***  ideal gas assumed  ***
 ============================
  
 Pressure:                  1.000000 atm.
 Temperature:             298.150000 K



 Moments of Inertia [amu*bohr^2] and principal axis
 ==================================================

         832.3002       3981.9771       4274.0804
 ------------------------------------------------
          -0.4755         -0.4584         -0.7508
          -0.6680          0.7435         -0.0309
           0.5725          0.4868         -0.6598


 The rotational contribution to the molecular entropy includes
 a term, dependent on the symmetry number sigma. The results 
 reported below were computed using sigma = 1, determined from
 the point group symmetry of the input geometry (NOSYM). 
 If this is not the correct symmetry, try symmetrizing the molecule before
 running the calculation (note: linear molecules should be aligned along one
 of the Cartesian axes).
 Contributions from frequencies below 20 1/cm are not included in vibrational sums.
 Their contributions, if any, are reported separately.


     Temp                                                        Transl      Rotat     Vibrat     Total
     ----                                                        ------      -----     ------     -----

     298.15   Entropy (cal/mol-K):                               43.512     31.027     54.563    129.102
              Nuclear Internal Energy (kcal/mol):                 0.889      0.889     42.628     44.405
              Constant Volume Heat Capacity (cal/mol-K):          2.981      2.981     41.030     46.992
          (c) Constant Volume Heat Capacity (cal/mol-K):          2.981      2.981     35.566     41.528

       Summary of energy terms
                                                   hartree              eV         kcal/mol           kJ/mol
                                      --------------------     -----------       ----------      -----------
      Energy from Engine:               -3.449992625813930        -93.8791         -2164.90         -9057.95
      Nuclear Internal Energy:           0.070764269336165          1.9256            44.41           185.79
  (c) Nuclear Internal Energy:           0.067982769802127          1.8499            42.66           178.49
      Internal Energy U:                -3.379228356477765        -91.9535         -2120.50         -8872.16
      pV/n = RT:                         0.000944186013486          0.0257             0.59             2.48
      Enthalpy H:                       -3.378284170464279        -91.9278         -2119.91         -8869.68
      -T*S:                             -0.061340299855289         -1.6692           -38.49          -161.05
  (c) -T*S:                             -0.058777086526120         -1.5994           -36.88          -154.32
      Gibbs free energy:                -3.439624470319569        -93.5969         -2158.40         -9030.73
 
 
 
  (c) The properties marked with this symbol have been corrected using 'low vibrational frequency free rotor
      interpolation corrections'. For those terms all positive frequencies are used (also ones below 20 1/cm),
      but the contribution to the partition function of small vibrational frequencies is modified as described
      in the following paper:
      S. Grimme, 'Supramolecular Binding Thermodynamics by Dispersion-Corrected Density Functional Theory'
      (Chem. Eur. J. 2012, 18, 9955-9964)
      Configuration: Dampener Frequency          :   100.000 1/cm
                     Dampener Alpha              :     4.000
                     Averaging Moment of Inertia : 1.000E-44 kg m2

--------------
Atomic charges
--------------
  Index   Atom    Charge
      1     Pa    2.8699
      2      N   -0.4541
      3      H    0.1358
      4      O   -0.6631
      5      H    0.1298
      6      O   -0.6507
      7      H    0.1178
      8      O   -0.6692
      9      H    0.1037
     10      O   -0.6870
     11      C    0.0943
     12      S   -0.3272


Dipole moment vector    (Debye):    -4.62457530   -9.11602798    4.89367192
              magnitude (Debye):    11.33299112


Final PES point is a local minimum. Geometry optimization successful!


AMS application finished. Exiting.
NORMAL TERMINATION
     Total cpu time:   37942.70
  Total system time:     871.67
 Total elapsed time:   40608.03
