
 Working directory              : /state/partition2/shaaban/999636.phlam-s-sakura/molpro.8a2vlmyDAx/
 Global scratch directory       : /state/partition2/shaaban/999636.phlam-s-sakura/molpro.8a2vlmyDAx/
 Wavefunction directory         : /home/shaaban/wfu/
 Main file repository           : /state/partition2/shaaban/999636.phlam-s-sakura/molpro.8a2vlmyDAx/

 id        : lill

 Nodes      nprocs
 u-0-0.local    8
 GA implementation: MPI file
 GA implementation (serial work in mppx): MPI file

 Using customized tuning parameters: mindgm=1; mindgv=20; mindgc=4; mindgr=1; noblas=0; minvec=7
 default implementation of scratch files=sf  


 Variables initialized (1040), CPU time= 0.01 sec
 ***,PaO(OH)2(I)(H2O)- MP2 and CCSD(T)
 memory,2500, m;
 file, 1, pao_oh2_I_h2o.ccsd-tx.int, new;
 file, 2, pao_oh2_I_h2o.ccsd-tx.wfu, new;
 
 gprint, basis;
 gprint, orbital=10;
 
 nosym;
 
 geomtyp=xyz;
 
 geometry={
 Including file /home/shaaban/molpro/PhD/iodide/gp/pao_oh2_I_h2o/pao_oh2_I_h2o-A1-gp.xyz
 }
 
 charge=0;
 
                                                                                 ! Select X2C SR Hamiltonian
 SET,DKROLL=1
 
                                                                                 ! Calculation with VTZ basis set
 basis={
 Pa=cc-pVTZ-DK;
 O=aug-cc-pVTZ-DK;
 H=aug-cc-pVTZ-DK;
 I=aug-cc-pVTZ-DK;
 }
 
 
                                                                                 ! Hartree-Fock calculation
 {hf;}
 
                                                                                 ! MP2 and CCSD(T) calculation
 {ccsd(t);
  core, 61;}
 
                                                                  ! Save HF energy and CCSD(T) correlation energy for VTZ basis set
 energy_hf(1) = energr(1);
 corr_mp2(1) = EMP2-energr(1);
 corr_ccsdt(1) = ENERGT(1)-energr(1);
 
 Commands initialized (846), CPU time= 0.01 sec, 717 directives.
 Default parameters read. Elapsed time= 0.17 sec

 Checking input...
 Passed
1


                                         ***  PROGRAM SYSTEM MOLPRO  ***
                                       Copyright, TTI GmbH Stuttgart, 2015
                                    Version 2023.2 linked Fri Sep 22 09:27:09 2023


 **********************************************************************************************************************************
 LABEL *   PaO(OH)2(I)(H2O)- MP2 and CCSD(T)                                                                                                                             
  64 bit mpp version                                                                     DATE: 15-Jan-24          TIME: 10:01:35  
 **********************************************************************************************************************************

 SHA1:             3c61bfe44d37c8635c785372c339f5cbdd4e4b59
 **********************************************************************************************************************************

 Memory per process:      2500 MW
 Total memory per node:  20000 MW

 GA preallocation disabled
 GA check disabled

 Variable memory set to 2500.0 MW



 Permanent file  1  pao_oh2_i_h2o.ccsd-tx.int        assigned.  Implementation=df  
 Permanent file  2  pao_oh2_i_h2o.ccsd-tx.wfu        assigned.  Implementation=df  



 **********************************************************************************************************************************
 DATASETS  * FILE   NREC   LENGTH (MB)   RECORD NAMES
              1       1        0.06       500   
                                          VAR  

              2       1        0.06       500   
                                          VAR  

 PROGRAMS   *        TOTAL      FILE
 CPU TIMES  *         0.23      0.01
 REAL TIME  *         0.46 SEC
 DISK USED  *         0.16 MB (local),        1.32 MB (total)
 **********************************************************************************************************************************


 SETTING GEOMTYP        =    XYZ
 ZSYMEL=NOSYM


 Geometry recognized as XYZ

 SETTING CHARGE         =      0.0000000D+00                                  
 SETTING DKROLL         =         1.00000000                                  
 SETTING BASIS          =    PA=CC-PVTZ-DK,O=AUG-CC-PVTZ-DK,H=AUG-CC-PVTZ-DK,I=AUG-CC-PVTZ-DK


 Recomputing integrals since basis changed


 Using spherical harmonics

 Library entry PA     S cc-pVTZ-DK3          selected for orbital group  1
 Library entry PA     P cc-pVTZ-DK3          selected for orbital group  1
 Library entry PA     D cc-pVTZ-DK3          selected for orbital group  1
 Library entry PA     F cc-pVTZ-DK3          selected for orbital group  1
 Library entry PA     G cc-pVTZ-DK3          selected for orbital group  1
 Library entry PA     H cc-pVTZ-DK3          selected for orbital group  1
 Library entry O      S aug-cc-pVTZ-DK       selected for orbital group  2
 Library entry O      P aug-cc-pVTZ-DK       selected for orbital group  2
 Library entry O      D aug-cc-pVTZ-DK       selected for orbital group  2
 Library entry O      F aug-cc-pVTZ-DK       selected for orbital group  2
 Library entry I      S aug-cc-pVTZ-DK       selected for orbital group  3
 Library entry I      P aug-cc-pVTZ-DK       selected for orbital group  3
 Library entry I      D aug-cc-pVTZ-DK       selected for orbital group  3
 Library entry I      F aug-cc-pVTZ-DK       selected for orbital group  3
 Library entry H      S aug-cc-pVTZ-DK       selected for orbital group  5
 Library entry H      P aug-cc-pVTZ-DK       selected for orbital group  5
 Library entry H      D aug-cc-pVTZ-DK       selected for orbital group  5


 PROGRAM * SEWARD (Integral evaluation for generally contracted gaussian basis sets)     Author: Roland Lindh, 1990

 Geometry written to block  1 of record 700


 Point group  C1  



 ATOMIC COORDINATES

 NR  ATOM    CHARGE       X              Y              Z

   1  PA     91.00   -0.419738140    1.082912425    0.810431241
   2  O       8.00    2.712595345    2.161037527   -1.369379160
   3  O       8.00   -2.056561831    4.663998433    1.201456896
   4  I      53.00   -4.388379068   -1.252800334   -2.745478711
   5  O       8.00   -0.201632187   -0.044968757    4.100430609
   6  O       8.00    1.079508764   -3.605317409    0.122432449
   7  H       1.00   -0.106999923   -4.353655919   -1.059373062
   8  H       1.00    0.971709708   -4.566218040    1.670589432
   9  H       1.00    3.950361196    3.039355514   -2.361771807
  10  H       1.00   -2.866542358    6.149561108    1.850353846

 Bond lengths in Bohr (Angstrom)

 1-2  3.965531513  1-3  3.956800457  1-4  5.818089076  1-5  3.484792965  1-6  4.969968067
     ( 2.098468906)     ( 2.093848630)     ( 3.078800150)     ( 1.844073022)     ( 2.629993840)

  1- 7  5.757625264   1- 8  5.881213670   1- 9  5.743545067   1-10  5.721819535   2- 9  1.813380808
       ( 3.046804078)       ( 3.112204247)       ( 3.039353159)       ( 3.027856503)       ( 0.959599798)

  3-10  1.812189882   6- 7  1.834251252   6- 8  1.825305647
       ( 0.958969587)       ( 0.970643962)       ( 0.965910151)

 Bond angles

  1- 2- 9  166.32801742   1- 3-10  164.19705136   1- 6- 7  106.19518182   1- 6- 8  111.18389126

  1- 7- 6   55.99035348   1- 8- 6   51.99469966   1- 9- 2    9.39226517   1-10- 3   10.85497661

  2-1-3   97.75980083   2-1-4  108.17896861   2-1-5  123.88441717   2-1-6   86.68006565

  2- 1- 7   92.02273626   2- 1- 8   98.89700470   2- 1- 9    4.27971741   2- 1-10  101.35802433

  3-1-4   98.13817597   3-1-5  103.03326351   3-1-6  172.84374563   3-1-7  155.38698853

  3- 1- 8  162.31659829   3- 1- 9   93.49977533   3- 1-10    4.94797203   4- 1- 5  119.32583131

  4-1-6   75.07607376   4-1-7   57.28211521   4-1-8   82.25051954   4-1-9  108.55384879

  4- 1-10  100.07142112   5- 1- 6   78.84302767   5- 1- 7   89.86190658   5- 1- 8   62.36912544

  5- 1- 9  125.73674352   5- 1-10   98.15055141   6- 1- 7   17.81446470   6- 1- 8   16.82140909

  6- 1- 9   90.87903440   6- 1-10  171.67269049   7- 1- 8   29.26935629   7- 1- 9   95.79371609

  7- 1-10  156.68883459   7- 6- 8  107.06723110   8- 1- 9  103.17659560   8- 1-10  157.69015140

  9- 1-10   97.12992605


 BASIS DATA

   Nr Sym  Nuc  Type         Exponents   Contraction coefficients

    1.1 A     1  1s    57606659.000000    -0.000367    0.001999   -0.000726   -0.000116    0.000099   -0.000045
                                           0.000021    0.000037   -0.000048   -0.000061    0.000000
    2.1 A              15333099.000000    -0.000320    0.001748   -0.000634   -0.000102    0.000087   -0.000039
                                           0.000018    0.000032   -0.000042   -0.000054    0.000000
    3.1 A               5244434.800000    -0.000928    0.005048   -0.001835   -0.000295    0.000251   -0.000113
                                           0.000052    0.000094   -0.000122   -0.000155    0.000000
    4.1 A               1993947.300000    -0.001157    0.006271   -0.002285   -0.000367    0.000312   -0.000141
                                           0.000065    0.000117   -0.000153   -0.000193    0.000000
    5.1 A                831464.670000    -0.002291    0.012335   -0.004515   -0.000726    0.000618   -0.000279
                                           0.000128    0.000231   -0.000302   -0.000382    0.000000
    6.1 A                367473.800000    -0.003191    0.016990   -0.006266   -0.001010    0.000858   -0.000388
                                           0.000178    0.000321   -0.000420   -0.000532    0.000000
    7.1 A                170948.980000    -0.005514    0.028930   -0.010774   -0.001741    0.001479   -0.000668
                                           0.000307    0.000553   -0.000722   -0.000912    0.000000
    8.1 A                 82498.208000    -0.008096    0.041465   -0.015694   -0.002547    0.002160   -0.000976
                                           0.000448    0.000809   -0.001057   -0.001343    0.000000
    9.1 A                 41068.557000    -0.013295    0.066058   -0.025530   -0.004169    0.003528   -0.001595
                                           0.000733    0.001318   -0.001720   -0.002167    0.000000
   10.1 A                 20931.097000    -0.020180    0.095592   -0.038190   -0.006291    0.005308   -0.002400
                                           0.001102    0.001992   -0.002605   -0.003325    0.000000
   11.1 A                 10881.858000    -0.032132    0.142991   -0.059747   -0.009970    0.008375   -0.003787
                                           0.001739    0.003121   -0.004070   -0.005095    0.000000
                           5751.850200    -0.047664    0.193172   -0.086493   -0.014700    0.012273   -0.005550
                                           0.002550    0.004624   -0.006058   -0.007812    0.000000
                           3085.413800    -0.066495    0.240368   -0.117665   -0.020515    0.016984   -0.007683
                                           0.003528    0.006293   -0.008187   -0.010070    0.000000
                           1676.302600    -0.070537    0.231081   -0.122390   -0.021751    0.017896   -0.008097
                                           0.003721    0.006847   -0.009026   -0.012101    0.000000
                            920.364860    -0.023626    0.149744   -0.044426   -0.005530    0.005175   -0.002332
                                           0.001066    0.001619   -0.001931   -0.000993    0.000000
                            507.302700     0.114270    0.033479    0.202649    0.056505   -0.041129    0.018705
                                          -0.008589   -0.014887    0.019169    0.021466    0.000000
                            285.301180     0.244587   -0.013881    0.548461    0.172416   -0.122712    0.055943
                                          -0.025751   -0.047935    0.063734    0.088070    0.000000
                            162.083520     0.197985   -0.013442    0.605050    0.222521   -0.154869    0.070889
                                          -0.032578   -0.056192    0.072208    0.078604    0.000000
                             92.502257     0.134582   -0.014203    0.036384   -0.036593    0.019421   -0.009128
                                           0.004115    0.001534    0.001075    0.030263    0.000000
                             54.996696     0.249625   -0.043456   -0.678191   -0.645561    0.447427   -0.212041
                                           0.098447    0.193368   -0.267182   -0.419407    0.000000
                             32.498055     0.201939   -0.033776   -0.590782   -0.685300    0.476926   -0.227202
                                           0.104959    0.171310   -0.214887   -0.161724    0.000000
                             19.139224     0.048672   -0.008893   -0.102345    0.188180   -0.152559    0.072939
                                          -0.033085   -0.027730    0.028614   -0.135572    0.000000
                             11.382710     0.000154    0.001566    0.103892    0.862319   -0.976271    0.548029
                                          -0.263284   -0.581738    0.872326    1.707930    0.000000
                              6.786052    -0.001620    0.000219    0.057771    0.444812   -0.715550    0.417427
                                          -0.198011   -0.257648    0.233331   -0.802647    0.000000
                              4.149622    -0.000024    0.000424    0.007658    0.066411    0.448995   -0.350743
                                           0.170764    0.219628   -0.311481    1.107900    0.000000
                              2.398648     0.000213   -0.000251    0.000234    0.013877    0.872126   -0.849864
                                           0.456346    1.306700   -2.312130   -7.673080    0.000000
                              1.389239     0.000151    0.000095   -0.000474    0.002053    0.319027   -0.431399
                                           0.230037    0.271748    0.316072   10.899500    0.000000
                              0.799685    -0.000007   -0.000062    0.000088    0.000459    0.047512    0.436706
                                          -0.277849   -1.773160    4.827330   -2.764150    0.000000
                              0.427327     0.000014    0.000024   -0.000055   -0.000721    0.030699    0.715284
                                          -0.562089   -0.897175   -3.628160   -6.597810    0.000000
                              0.220940    -0.000002   -0.000010    0.000018   -0.000091    0.010077    0.233304
                                          -0.326108    1.532070   -1.217550    6.759770    0.000000
                              0.086038     0.000001    0.000003   -0.000007   -0.000059    0.001150    0.063372
                                           0.302160    1.024940    2.677980   -2.147740    0.000000
                              0.041219    -0.000000   -0.000002    0.000003   -0.000045    0.001535    0.118889
                                           0.692611   -0.772653   -0.537526   -1.019450    0.000000
                              0.018781     0.000000    0.000000   -0.000001   -0.000024    0.000588    0.043818
                                           0.253564   -0.484245   -0.804705    1.252550    1.000000
   12.1 A     1  2px   52575799.000000     0.000019
                       15301659.000000     0.000024
                        4822461.600000     0.000069
                        1632045.600000     0.000134
                         584338.640000     0.000304
                         219508.320000     0.000647
                          86085.039000     0.001453
                          35172.956000     0.003300
                          14975.745000     0.007723
                           6652.821900     0.018193
                           3084.270200     0.042170
                           1489.211300     0.090817
                            745.288670     0.167656
                            384.521300     0.234335
                            203.927220     0.219969
                            110.523340     0.174849
                             61.345569     0.191146
                             34.404375     0.137654
                             19.094147     0.033446
                             10.684628    -0.000968
                              5.931463    -0.000978
                              3.230992    -0.000011
                              1.730655     0.000166
                              0.869483     0.000022
                              0.440589     0.000009
                              0.215859    -0.000000
                              0.091015     0.000001
                              0.040174    -0.000000
                              0.017215     0.000000
   13.1 A     1  2py   52575799.000000     0.000019
                       15301659.000000     0.000024
                        4822461.600000     0.000069
                        1632045.600000     0.000134
                         584338.640000     0.000304
                         219508.320000     0.000647
                          86085.039000     0.001453
                          35172.956000     0.003300
                          14975.745000     0.007723
                           6652.821900     0.018193
                           3084.270200     0.042170
                           1489.211300     0.090817
                            745.288670     0.167656
                            384.521300     0.234335
                            203.927220     0.219969
                            110.523340     0.174849
                             61.345569     0.191146
                             34.404375     0.137654
                             19.094147     0.033446
                             10.684628    -0.000968
                              5.931463    -0.000978
                              3.230992    -0.000011
                              1.730655     0.000166
                              0.869483     0.000022
                              0.440589     0.000009
                              0.215859    -0.000000
                              0.091015     0.000001
                              0.040174    -0.000000
                              0.017215     0.000000
   14.1 A     1  2pz   52575799.000000     0.000019
                       15301659.000000     0.000024
                        4822461.600000     0.000069
                        1632045.600000     0.000134
                         584338.640000     0.000304
                         219508.320000     0.000647
                          86085.039000     0.001453
                          35172.956000     0.003300
                          14975.745000     0.007723
                           6652.821900     0.018193
                           3084.270200     0.042170
                           1489.211300     0.090817
                            745.288670     0.167656
                            384.521300     0.234335
                            203.927220     0.219969
                            110.523340     0.174849
                             61.345569     0.191146
                             34.404375     0.137654
                             19.094147     0.033446
                             10.684628    -0.000968
                              5.931463    -0.000978
                              3.230992    -0.000011
                              1.730655     0.000166
                              0.869483     0.000022
                              0.440589     0.000009
                              0.215859    -0.000000
                              0.091015     0.000001
                              0.040174    -0.000000
                              0.017215     0.000000
   15.1 A     1  2px   52575799.000000    -0.000022
                       15301659.000000    -0.000028
                        4822461.600000    -0.000083
                        1632045.600000    -0.000160
                         584338.640000    -0.000364
                         219508.320000    -0.000777
                          86085.039000    -0.001750
                          35172.956000    -0.003994
                          14975.745000    -0.009414
                           6652.821900    -0.022406
                           3084.270200    -0.052818
                           1489.211300    -0.116759
                            745.288670    -0.223675
                            384.521300    -0.322294
                            203.927220    -0.236594
                            110.523340     0.144783
                             61.345569     0.527162
                             34.404375     0.400928
                             19.094147     0.019444
                             10.684628    -0.122698
                              5.931463    -0.050980
                              3.230992    -0.002723
                              1.730655     0.002233
                              0.869483     0.000423
                              0.440589     0.000084
                              0.215859     0.000019
                              0.091015     0.000006
                              0.040174    -0.000002
                              0.017215     0.000001
   16.1 A     1  2py   52575799.000000    -0.000022
                       15301659.000000    -0.000028
                        4822461.600000    -0.000083
                        1632045.600000    -0.000160
                         584338.640000    -0.000364
                         219508.320000    -0.000777
                          86085.039000    -0.001750
                          35172.956000    -0.003994
                          14975.745000    -0.009414
                           6652.821900    -0.022406
                           3084.270200    -0.052818
                           1489.211300    -0.116759
                            745.288670    -0.223675
                            384.521300    -0.322294
                            203.927220    -0.236594
                            110.523340     0.144783
                             61.345569     0.527162
                             34.404375     0.400928
                             19.094147     0.019444
                             10.684628    -0.122698
                              5.931463    -0.050980
                              3.230992    -0.002723
                              1.730655     0.002233
                              0.869483     0.000423
                              0.440589     0.000084
                              0.215859     0.000019
                              0.091015     0.000006
                              0.040174    -0.000002
                              0.017215     0.000001
   17.1 A     1  2pz   52575799.000000    -0.000022
                       15301659.000000    -0.000028
                        4822461.600000    -0.000083
                        1632045.600000    -0.000160
                         584338.640000    -0.000364
                         219508.320000    -0.000777
                          86085.039000    -0.001750
                          35172.956000    -0.003994
                          14975.745000    -0.009414
                           6652.821900    -0.022406
                           3084.270200    -0.052818
                           1489.211300    -0.116759
                            745.288670    -0.223675
                            384.521300    -0.322294
                            203.927220    -0.236594
                            110.523340     0.144783
                             61.345569     0.527162
                             34.404375     0.400928
                             19.094147     0.019444
                             10.684628    -0.122698
                              5.931463    -0.050980
                              3.230992    -0.002723
                              1.730655     0.002233
                              0.869483     0.000423
                              0.440589     0.000084
                              0.215859     0.000019
                              0.091015     0.000006
                              0.040174    -0.000002
                              0.017215     0.000001
   18.1 A     1  2px   52575799.000000     0.000003
                       15301659.000000     0.000003
                        4822461.600000     0.000010
                        1632045.600000     0.000019
                         584338.640000     0.000042
                         219508.320000     0.000091
                          86085.039000     0.000206
                          35172.956000     0.000473
                          14975.745000     0.001130
                           6652.821900     0.002740
                           3084.270200     0.006653
                           1489.211300     0.015378
                            745.288670     0.031242
                            384.521300     0.047227
                            203.927220     0.017912
                            110.523340    -0.122974
                             61.345569    -0.327410
                             34.404375    -0.190189
                             19.094147     0.365250
                             10.684628     0.614511
                              5.931463     0.253732
                              3.230992     0.025246
                              1.730655     0.001447
                              0.869483    -0.000191
                              0.440589     0.000177
                              0.215859    -0.000001
                              0.091015     0.000034
                              0.040174    -0.000010
                              0.017215     0.000003
   19.1 A     1  2py   52575799.000000     0.000003
                       15301659.000000     0.000003
                        4822461.600000     0.000010
                        1632045.600000     0.000019
                         584338.640000     0.000042
                         219508.320000     0.000091
                          86085.039000     0.000206
                          35172.956000     0.000473
                          14975.745000     0.001130
                           6652.821900     0.002740
                           3084.270200     0.006653
                           1489.211300     0.015378
                            745.288670     0.031242
                            384.521300     0.047227
                            203.927220     0.017912
                            110.523340    -0.122974
                             61.345569    -0.327410
                             34.404375    -0.190189
                             19.094147     0.365250
                             10.684628     0.614511
                              5.931463     0.253732
                              3.230992     0.025246
                              1.730655     0.001447
                              0.869483    -0.000191
                              0.440589     0.000177
                              0.215859    -0.000001
                              0.091015     0.000034
                              0.040174    -0.000010
                              0.017215     0.000003
   20.1 A     1  2pz   52575799.000000     0.000003
                       15301659.000000     0.000003
                        4822461.600000     0.000010
                        1632045.600000     0.000019
                         584338.640000     0.000042
                         219508.320000     0.000091
                          86085.039000     0.000206
                          35172.956000     0.000473
                          14975.745000     0.001130
                           6652.821900     0.002740
                           3084.270200     0.006653
                           1489.211300     0.015378
                            745.288670     0.031242
                            384.521300     0.047227
                            203.927220     0.017912
                            110.523340    -0.122974
                             61.345569    -0.327410
                             34.404375    -0.190189
                             19.094147     0.365250
                             10.684628     0.614511
                              5.931463     0.253732
                              3.230992     0.025246
                              1.730655     0.001447
                              0.869483    -0.000191
                              0.440589     0.000177
                              0.215859    -0.000001
                              0.091015     0.000034
                              0.040174    -0.000010
                              0.017215     0.000003
   21.1 A     1  2px   52575799.000000    -0.000003
                       15301659.000000    -0.000004
                        4822461.600000    -0.000012
                        1632045.600000    -0.000022
                         584338.640000    -0.000051
                         219508.320000    -0.000109
                          86085.039000    -0.000246
                          35172.956000    -0.000564
                          14975.745000    -0.001337
                           6652.821900    -0.003210
                           3084.270200    -0.007664
                           1489.211300    -0.017293
                            745.288670    -0.034038
                            384.521300    -0.050240
                            203.927220    -0.027775
                            110.523340     0.078055
                             61.345569     0.225234
                             34.404375     0.124107
                             19.094147    -0.273398
                             10.684628    -0.553848
                              5.931463    -0.065400
                              3.230992     0.618467
                              1.730655     0.501115
                              0.869483     0.107385
                              0.440589     0.023200
                              0.215859     0.014696
                              0.091015     0.001512
                              0.040174     0.000132
                              0.017215    -0.000015
   22.1 A     1  2py   52575799.000000    -0.000003
                       15301659.000000    -0.000004
                        4822461.600000    -0.000012
                        1632045.600000    -0.000022
                         584338.640000    -0.000051
                         219508.320000    -0.000109
                          86085.039000    -0.000246
                          35172.956000    -0.000564
                          14975.745000    -0.001337
                           6652.821900    -0.003210
                           3084.270200    -0.007664
                           1489.211300    -0.017293
                            745.288670    -0.034038
                            384.521300    -0.050240
                            203.927220    -0.027775
                            110.523340     0.078055
                             61.345569     0.225234
                             34.404375     0.124107
                             19.094147    -0.273398
                             10.684628    -0.553848
                              5.931463    -0.065400
                              3.230992     0.618467
                              1.730655     0.501115
                              0.869483     0.107385
                              0.440589     0.023200
                              0.215859     0.014696
                              0.091015     0.001512
                              0.040174     0.000132
                              0.017215    -0.000015
   23.1 A     1  2pz   52575799.000000    -0.000003
                       15301659.000000    -0.000004
                        4822461.600000    -0.000012
                        1632045.600000    -0.000022
                         584338.640000    -0.000051
                         219508.320000    -0.000109
                          86085.039000    -0.000246
                          35172.956000    -0.000564
                          14975.745000    -0.001337
                           6652.821900    -0.003210
                           3084.270200    -0.007664
                           1489.211300    -0.017293
                            745.288670    -0.034038
                            384.521300    -0.050240
                            203.927220    -0.027775
                            110.523340     0.078055
                             61.345569     0.225234
                             34.404375     0.124107
                             19.094147    -0.273398
                             10.684628    -0.553848
                              5.931463    -0.065400
                              3.230992     0.618467
                              1.730655     0.501115
                              0.869483     0.107385
                              0.440589     0.023200
                              0.215859     0.014696
                              0.091015     0.001512
                              0.040174     0.000132
                              0.017215    -0.000015
   24.1 A     1  2px   52575799.000000     0.000001
                       15301659.000000     0.000002
                        4822461.600000     0.000005
                        1632045.600000     0.000010
                         584338.640000     0.000023
                         219508.320000     0.000049
                          86085.039000     0.000110
                          35172.956000     0.000253
                          14975.745000     0.000599
                           6652.821900     0.001437
                           3084.270200     0.003431
                           1489.211300     0.007737
                            745.288670     0.015236
                            384.521300     0.022464
                            203.927220     0.012457
                            110.523340    -0.035118
                             61.345569    -0.101380
                             34.404375    -0.055130
                             19.094147     0.131575
                             10.684628     0.274246
                              5.931463     0.008755
                              3.230992    -0.421565
                              1.730655    -0.381951
                              0.869483     0.226110
                              0.440589     0.602109
                              0.215859     0.367310
                              0.091015     0.055992
                              0.040174    -0.001133
                              0.017215     0.001123
   25.1 A     1  2py   52575799.000000     0.000001
                       15301659.000000     0.000002
                        4822461.600000     0.000005
                        1632045.600000     0.000010
                         584338.640000     0.000023
                         219508.320000     0.000049
                          86085.039000     0.000110
                          35172.956000     0.000253
                          14975.745000     0.000599
                           6652.821900     0.001437
                           3084.270200     0.003431
                           1489.211300     0.007737
                            745.288670     0.015236
                            384.521300     0.022464
                            203.927220     0.012457
                            110.523340    -0.035118
                             61.345569    -0.101380
                             34.404375    -0.055130
                             19.094147     0.131575
                             10.684628     0.274246
                              5.931463     0.008755
                              3.230992    -0.421565
                              1.730655    -0.381951
                              0.869483     0.226110
                              0.440589     0.602109
                              0.215859     0.367310
                              0.091015     0.055992
                              0.040174    -0.001133
                              0.017215     0.001123
   26.1 A     1  2pz   52575799.000000     0.000001
                       15301659.000000     0.000002
                        4822461.600000     0.000005
                        1632045.600000     0.000010
                         584338.640000     0.000023
                         219508.320000     0.000049
                          86085.039000     0.000110
                          35172.956000     0.000253
                          14975.745000     0.000599
                           6652.821900     0.001437
                           3084.270200     0.003431
                           1489.211300     0.007737
                            745.288670     0.015236
                            384.521300     0.022464
                            203.927220     0.012457
                            110.523340    -0.035118
                             61.345569    -0.101380
                             34.404375    -0.055130
                             19.094147     0.131575
                             10.684628     0.274246
                              5.931463     0.008755
                              3.230992    -0.421565
                              1.730655    -0.381951
                              0.869483     0.226110
                              0.440589     0.602109
                              0.215859     0.367310
                              0.091015     0.055992
                              0.040174    -0.001133
                              0.017215     0.001123
   27.1 A     1  2px   52575799.000000    -0.000000
                       15301659.000000    -0.000000
                        4822461.600000    -0.000001
                        1632045.600000    -0.000002
                         584338.640000    -0.000005
                         219508.320000    -0.000012
                          86085.039000    -0.000026
                          35172.956000    -0.000061
                          14975.745000    -0.000144
                           6652.821900    -0.000345
                           3084.270200    -0.000824
                           1489.211300    -0.001857
                            745.288670    -0.003658
                            384.521300    -0.005392
                            203.927220    -0.002989
                            110.523340     0.008470
                             61.345569     0.024432
                             34.404375     0.013266
                             19.094147    -0.032261
                             10.684628    -0.067372
                              5.931463    -0.001388
                              3.230992     0.110496
                              1.730655     0.103163
                              0.869483    -0.077537
                              0.440589    -0.217553
                              0.215859    -0.188949
                              0.091015     0.201050
                              0.040174     0.638180
                              0.017215     0.325623
   28.1 A     1  2py   52575799.000000    -0.000000
                       15301659.000000    -0.000000
                        4822461.600000    -0.000001
                        1632045.600000    -0.000002
                         584338.640000    -0.000005
                         219508.320000    -0.000012
                          86085.039000    -0.000026
                          35172.956000    -0.000061
                          14975.745000    -0.000144
                           6652.821900    -0.000345
                           3084.270200    -0.000824
                           1489.211300    -0.001857
                            745.288670    -0.003658
                            384.521300    -0.005392
                            203.927220    -0.002989
                            110.523340     0.008470
                             61.345569     0.024432
                             34.404375     0.013266
                             19.094147    -0.032261
                             10.684628    -0.067372
                              5.931463    -0.001388
                              3.230992     0.110496
                              1.730655     0.103163
                              0.869483    -0.077537
                              0.440589    -0.217553
                              0.215859    -0.188949
                              0.091015     0.201050
                              0.040174     0.638180
                              0.017215     0.325623
   29.1 A     1  2pz   52575799.000000    -0.000000
                       15301659.000000    -0.000000
                        4822461.600000    -0.000001
                        1632045.600000    -0.000002
                         584338.640000    -0.000005
                         219508.320000    -0.000012
                          86085.039000    -0.000026
                          35172.956000    -0.000061
                          14975.745000    -0.000144
                           6652.821900    -0.000345
                           3084.270200    -0.000824
                           1489.211300    -0.001857
                            745.288670    -0.003658
                            384.521300    -0.005392
                            203.927220    -0.002989
                            110.523340     0.008470
                             61.345569     0.024432
                             34.404375     0.013266
                             19.094147    -0.032261
                             10.684628    -0.067372
                              5.931463    -0.001388
                              3.230992     0.110496
                              1.730655     0.103163
                              0.869483    -0.077537
                              0.440589    -0.217553
                              0.215859    -0.188949
                              0.091015     0.201050
                              0.040174     0.638180
                              0.017215     0.325623
   30.1 A     1  2px   52575799.000000    -0.000001
                       15301659.000000    -0.000001
                        4822461.600000    -0.000003
                        1632045.600000    -0.000007
                         584338.640000    -0.000015
                         219508.320000    -0.000032
                          86085.039000    -0.000072
                          35172.956000    -0.000164
                          14975.745000    -0.000389
                           6652.821900    -0.000935
                           3084.270200    -0.002229
                           1489.211300    -0.005039
                            745.288670    -0.009894
                            384.521300    -0.014658
                            203.927220    -0.007979
                            110.523340     0.022762
                             61.345569     0.067088
                             34.404375     0.034676
                             19.094147    -0.086637
                             10.684628    -0.190694
                              5.931463     0.011165
                              3.230992     0.295554
                              1.730655     0.357960
                              0.869483    -0.483733
                              0.440589    -0.603813
                              0.215859     0.216450
                              0.091015     0.715516
                              0.040174     0.271379
                              0.017215     0.004110
   31.1 A     1  2py   52575799.000000    -0.000001
                       15301659.000000    -0.000001
                        4822461.600000    -0.000003
                        1632045.600000    -0.000007
                         584338.640000    -0.000015
                         219508.320000    -0.000032
                          86085.039000    -0.000072
                          35172.956000    -0.000164
                          14975.745000    -0.000389
                           6652.821900    -0.000935
                           3084.270200    -0.002229
                           1489.211300    -0.005039
                            745.288670    -0.009894
                            384.521300    -0.014658
                            203.927220    -0.007979
                            110.523340     0.022762
                             61.345569     0.067088
                             34.404375     0.034676
                             19.094147    -0.086637
                             10.684628    -0.190694
                              5.931463     0.011165
                              3.230992     0.295554
                              1.730655     0.357960
                              0.869483    -0.483733
                              0.440589    -0.603813
                              0.215859     0.216450
                              0.091015     0.715516
                              0.040174     0.271379
                              0.017215     0.004110
   32.1 A     1  2pz   52575799.000000    -0.000001
                       15301659.000000    -0.000001
                        4822461.600000    -0.000003
                        1632045.600000    -0.000007
                         584338.640000    -0.000015
                         219508.320000    -0.000032
                          86085.039000    -0.000072
                          35172.956000    -0.000164
                          14975.745000    -0.000389
                           6652.821900    -0.000935
                           3084.270200    -0.002229
                           1489.211300    -0.005039
                            745.288670    -0.009894
                            384.521300    -0.014658
                            203.927220    -0.007979
                            110.523340     0.022762
                             61.345569     0.067088
                             34.404375     0.034676
                             19.094147    -0.086637
                             10.684628    -0.190694
                              5.931463     0.011165
                              3.230992     0.295554
                              1.730655     0.357960
                              0.869483    -0.483733
                              0.440589    -0.603813
                              0.215859     0.216450
                              0.091015     0.715516
                              0.040174     0.271379
                              0.017215     0.004110
   33.1 A     1  2px   52575799.000000    -0.000002
                       15301659.000000    -0.000002
                        4822461.600000    -0.000006
                        1632045.600000    -0.000011
                         584338.640000    -0.000025
                         219508.320000    -0.000053
                          86085.039000    -0.000120
                          35172.956000    -0.000276
                          14975.745000    -0.000654
                           6652.821900    -0.001571
                           3084.270200    -0.003746
                           1489.211300    -0.008467
                            745.288670    -0.016630
                            384.521300    -0.024639
                            203.927220    -0.013376
                            110.523340     0.038624
                             61.345569     0.114098
                             34.404375     0.057529
                             19.094147    -0.152711
                             10.684628    -0.335337
                              5.931463     0.054060
                              3.230992     0.556644
                              1.730655     0.705623
                              0.869483    -1.835960
                              0.440589    -0.011551
                              0.215859     1.665810
                              0.091015    -0.586030
                              0.040174    -0.540877
                              0.017215     0.007337
   34.1 A     1  2py   52575799.000000    -0.000002
                       15301659.000000    -0.000002
                        4822461.600000    -0.000006
                        1632045.600000    -0.000011
                         584338.640000    -0.000025
                         219508.320000    -0.000053
                          86085.039000    -0.000120
                          35172.956000    -0.000276
                          14975.745000    -0.000654
                           6652.821900    -0.001571
                           3084.270200    -0.003746
                           1489.211300    -0.008467
                            745.288670    -0.016630
                            384.521300    -0.024639
                            203.927220    -0.013376
                            110.523340     0.038624
                             61.345569     0.114098
                             34.404375     0.057529
                             19.094147    -0.152711
                             10.684628    -0.335337
                              5.931463     0.054060
                              3.230992     0.556644
                              1.730655     0.705623
                              0.869483    -1.835960
                              0.440589    -0.011551
                              0.215859     1.665810
                              0.091015    -0.586030
                              0.040174    -0.540877
                              0.017215     0.007337
   35.1 A     1  2pz   52575799.000000    -0.000002
                       15301659.000000    -0.000002
                        4822461.600000    -0.000006
                        1632045.600000    -0.000011
                         584338.640000    -0.000025
                         219508.320000    -0.000053
                          86085.039000    -0.000120
                          35172.956000    -0.000276
                          14975.745000    -0.000654
                           6652.821900    -0.001571
                           3084.270200    -0.003746
                           1489.211300    -0.008467
                            745.288670    -0.016630
                            384.521300    -0.024639
                            203.927220    -0.013376
                            110.523340     0.038624
                             61.345569     0.114098
                             34.404375     0.057529
                             19.094147    -0.152711
                             10.684628    -0.335337
                              5.931463     0.054060
                              3.230992     0.556644
                              1.730655     0.705623
                              0.869483    -1.835960
                              0.440589    -0.011551
                              0.215859     1.665810
                              0.091015    -0.586030
                              0.040174    -0.540877
                              0.017215     0.007337
   36.1 A     1  2px   52575799.000000    -0.000002
                       15301659.000000    -0.000003
                        4822461.600000    -0.000008
                        1632045.600000    -0.000015
                         584338.640000    -0.000035
                         219508.320000    -0.000074
                          86085.039000    -0.000170
                          35172.956000    -0.000379
                          14975.745000    -0.000932
                           6652.821900    -0.002134
                           3084.270200    -0.005403
                           1489.211300    -0.011344
                            745.288670    -0.024550
                            384.521300    -0.031081
                            203.927220    -0.026696
                            110.523340     0.074398
                             61.345569     0.122627
                             34.404375     0.158172
                             19.094147    -0.396719
                             10.684628    -0.217338
                              5.931463    -0.310675
                              3.230992     1.976280
                              1.730655    -0.902813
                              0.869483    -2.796330
                              0.440589     4.377620
                              0.215859    -2.313900
                              0.091015    -0.327368
                              0.040174     0.867468
                              0.017215    -0.037484
   37.1 A     1  2py   52575799.000000    -0.000002
                       15301659.000000    -0.000003
                        4822461.600000    -0.000008
                        1632045.600000    -0.000015
                         584338.640000    -0.000035
                         219508.320000    -0.000074
                          86085.039000    -0.000170
                          35172.956000    -0.000379
                          14975.745000    -0.000932
                           6652.821900    -0.002134
                           3084.270200    -0.005403
                           1489.211300    -0.011344
                            745.288670    -0.024550
                            384.521300    -0.031081
                            203.927220    -0.026696
                            110.523340     0.074398
                             61.345569     0.122627
                             34.404375     0.158172
                             19.094147    -0.396719
                             10.684628    -0.217338
                              5.931463    -0.310675
                              3.230992     1.976280
                              1.730655    -0.902813
                              0.869483    -2.796330
                              0.440589     4.377620
                              0.215859    -2.313900
                              0.091015    -0.327368
                              0.040174     0.867468
                              0.017215    -0.037484
   38.1 A     1  2pz   52575799.000000    -0.000002
                       15301659.000000    -0.000003
                        4822461.600000    -0.000008
                        1632045.600000    -0.000015
                         584338.640000    -0.000035
                         219508.320000    -0.000074
                          86085.039000    -0.000170
                          35172.956000    -0.000379
                          14975.745000    -0.000932
                           6652.821900    -0.002134
                           3084.270200    -0.005403
                           1489.211300    -0.011344
                            745.288670    -0.024550
                            384.521300    -0.031081
                            203.927220    -0.026696
                            110.523340     0.074398
                             61.345569     0.122627
                             34.404375     0.158172
                             19.094147    -0.396719
                             10.684628    -0.217338
                              5.931463    -0.310675
                              3.230992     1.976280
                              1.730655    -0.902813
                              0.869483    -2.796330
                              0.440589     4.377620
                              0.215859    -2.313900
                              0.091015    -0.327368
                              0.040174     0.867468
                              0.017215    -0.037484
   39.1 A     1  2px   52575799.000000     0.000000
                       15301659.000000     0.000000
                        4822461.600000     0.000000
                        1632045.600000     0.000000
                         584338.640000     0.000000
                         219508.320000     0.000000
                          86085.039000     0.000000
                          35172.956000     0.000000
                          14975.745000     0.000000
                           6652.821900     0.000000
                           3084.270200     0.000000
                           1489.211300     0.000000
                            745.288670     0.000000
                            384.521300     0.000000
                            203.927220     0.000000
                            110.523340     0.000000
                             61.345569     0.000000
                             34.404375     0.000000
                             19.094147     0.000000
                             10.684628     0.000000
                              5.931463     0.000000
                              3.230992     0.000000
                              1.730655     0.000000
                              0.869483     0.000000
                              0.440589     0.000000
                              0.215859     0.000000
                              0.091015     0.000000
                              0.040174     0.000000
                              0.017215     1.000000
   40.1 A     1  2py   52575799.000000     0.000000
                       15301659.000000     0.000000
                        4822461.600000     0.000000
                        1632045.600000     0.000000
                         584338.640000     0.000000
                         219508.320000     0.000000
                          86085.039000     0.000000
                          35172.956000     0.000000
                          14975.745000     0.000000
                           6652.821900     0.000000
                           3084.270200     0.000000
                           1489.211300     0.000000
                            745.288670     0.000000
                            384.521300     0.000000
                            203.927220     0.000000
                            110.523340     0.000000
                             61.345569     0.000000
                             34.404375     0.000000
                             19.094147     0.000000
                             10.684628     0.000000
                              5.931463     0.000000
                              3.230992     0.000000
                              1.730655     0.000000
                              0.869483     0.000000
                              0.440589     0.000000
                              0.215859     0.000000
                              0.091015     0.000000
                              0.040174     0.000000
                              0.017215     1.000000
   41.1 A     1  2pz   52575799.000000     0.000000
                       15301659.000000     0.000000
                        4822461.600000     0.000000
                        1632045.600000     0.000000
                         584338.640000     0.000000
                         219508.320000     0.000000
                          86085.039000     0.000000
                          35172.956000     0.000000
                          14975.745000     0.000000
                           6652.821900     0.000000
                           3084.270200     0.000000
                           1489.211300     0.000000
                            745.288670     0.000000
                            384.521300     0.000000
                            203.927220     0.000000
                            110.523340     0.000000
                             61.345569     0.000000
                             34.404375     0.000000
                             19.094147     0.000000
                             10.684628     0.000000
                              5.931463     0.000000
                              3.230992     0.000000
                              1.730655     0.000000
                              0.869483     0.000000
                              0.440589     0.000000
                              0.215859     0.000000
                              0.091015     0.000000
                              0.040174     0.000000
                              0.017215     1.000000
   42.1 A     1  3d0     105911.200000     0.000022
                          24974.572000     0.000139
                           8108.852700     0.000701
                           3150.520500     0.003089
                           1380.647900     0.011984
                            658.188950     0.039719
                            332.909040     0.108866
                            176.023220     0.231711
                             95.780704     0.354943
                             53.337287     0.336108
                             29.864821     0.140614
                             16.526778    -0.033753
                              9.155323    -0.064060
                              4.984876    -0.024103
                              2.636633    -0.002234
                              1.354062     0.000305
                              0.656031     0.000103
                              0.269853     0.000008
                              0.103443     0.000000
                              0.036685     0.000000
   43.1 A     1  3d2-    105911.200000     0.000022
                          24974.572000     0.000139
                           8108.852700     0.000701
                           3150.520500     0.003089
                           1380.647900     0.011984
                            658.188950     0.039719
                            332.909040     0.108866
                            176.023220     0.231711
                             95.780704     0.354943
                             53.337287     0.336108
                             29.864821     0.140614
                             16.526778    -0.033753
                              9.155323    -0.064060
                              4.984876    -0.024103
                              2.636633    -0.002234
                              1.354062     0.000305
                              0.656031     0.000103
                              0.269853     0.000008
                              0.103443     0.000000
                              0.036685     0.000000
   44.1 A     1  3d1+    105911.200000     0.000022
                          24974.572000     0.000139
                           8108.852700     0.000701
                           3150.520500     0.003089
                           1380.647900     0.011984
                            658.188950     0.039719
                            332.909040     0.108866
                            176.023220     0.231711
                             95.780704     0.354943
                             53.337287     0.336108
                             29.864821     0.140614
                             16.526778    -0.033753
                              9.155323    -0.064060
                              4.984876    -0.024103
                              2.636633    -0.002234
                              1.354062     0.000305
                              0.656031     0.000103
                              0.269853     0.000008
                              0.103443     0.000000
                              0.036685     0.000000
   45.1 A     1  3d2+    105911.200000     0.000022
                          24974.572000     0.000139
                           8108.852700     0.000701
                           3150.520500     0.003089
                           1380.647900     0.011984
                            658.188950     0.039719
                            332.909040     0.108866
                            176.023220     0.231711
                             95.780704     0.354943
                             53.337287     0.336108
                             29.864821     0.140614
                             16.526778    -0.033753
                              9.155323    -0.064060
                              4.984876    -0.024103
                              2.636633    -0.002234
                              1.354062     0.000305
                              0.656031     0.000103
                              0.269853     0.000008
                              0.103443     0.000000
                              0.036685     0.000000
   46.1 A     1  3d1-    105911.200000     0.000022
                          24974.572000     0.000139
                           8108.852700     0.000701
                           3150.520500     0.003089
                           1380.647900     0.011984
                            658.188950     0.039719
                            332.909040     0.108866
                            176.023220     0.231711
                             95.780704     0.354943
                             53.337287     0.336108
                             29.864821     0.140614
                             16.526778    -0.033753
                              9.155323    -0.064060
                              4.984876    -0.024103
                              2.636633    -0.002234
                              1.354062     0.000305
                              0.656031     0.000103
                              0.269853     0.000008
                              0.103443     0.000000
                              0.036685     0.000000
   47.1 A     1  3d0     105911.200000    -0.000008
                          24974.572000    -0.000050
                           8108.852700    -0.000255
                           3150.520500    -0.001125
                           1380.647900    -0.004414
                            658.188950    -0.014783
                            332.909040    -0.041535
                            176.023220    -0.089246
                             95.780704    -0.132347
                             53.337287    -0.078124
                             29.864821     0.163122
                             16.526778     0.427754
                              9.155323     0.404335
                              4.984876     0.149854
                              2.636633     0.013530
                              1.354062    -0.001244
                              0.656031    -0.000625
                              0.269853    -0.000007
                              0.103443    -0.000015
                              0.036685     0.000003
   48.1 A     1  3d2-    105911.200000    -0.000008
                          24974.572000    -0.000050
                           8108.852700    -0.000255
                           3150.520500    -0.001125
                           1380.647900    -0.004414
                            658.188950    -0.014783
                            332.909040    -0.041535
                            176.023220    -0.089246
                             95.780704    -0.132347
                             53.337287    -0.078124
                             29.864821     0.163122
                             16.526778     0.427754
                              9.155323     0.404335
                              4.984876     0.149854
                              2.636633     0.013530
                              1.354062    -0.001244
                              0.656031    -0.000625
                              0.269853    -0.000007
                              0.103443    -0.000015
                              0.036685     0.000003
   49.1 A     1  3d1+    105911.200000    -0.000008
                          24974.572000    -0.000050
                           8108.852700    -0.000255
                           3150.520500    -0.001125
                           1380.647900    -0.004414
                            658.188950    -0.014783
                            332.909040    -0.041535
                            176.023220    -0.089246
                             95.780704    -0.132347
                             53.337287    -0.078124
                             29.864821     0.163122
                             16.526778     0.427754
                              9.155323     0.404335
                              4.984876     0.149854
                              2.636633     0.013530
                              1.354062    -0.001244
                              0.656031    -0.000625
                              0.269853    -0.000007
                              0.103443    -0.000015
                              0.036685     0.000003
   50.1 A     1  3d2+    105911.200000    -0.000008
                          24974.572000    -0.000050
                           8108.852700    -0.000255
                           3150.520500    -0.001125
                           1380.647900    -0.004414
                            658.188950    -0.014783
                            332.909040    -0.041535
                            176.023220    -0.089246
                             95.780704    -0.132347
                             53.337287    -0.078124
                             29.864821     0.163122
                             16.526778     0.427754
                              9.155323     0.404335
                              4.984876     0.149854
                              2.636633     0.013530
                              1.354062    -0.001244
                              0.656031    -0.000625
                              0.269853    -0.000007
                              0.103443    -0.000015
                              0.036685     0.000003
   51.1 A     1  3d1-    105911.200000    -0.000008
                          24974.572000    -0.000050
                           8108.852700    -0.000255
                           3150.520500    -0.001125
                           1380.647900    -0.004414
                            658.188950    -0.014783
                            332.909040    -0.041535
                            176.023220    -0.089246
                             95.780704    -0.132347
                             53.337287    -0.078124
                             29.864821     0.163122
                             16.526778     0.427754
                              9.155323     0.404335
                              4.984876     0.149854
                              2.636633     0.013530
                              1.354062    -0.001244
                              0.656031    -0.000625
                              0.269853    -0.000007
                              0.103443    -0.000015
                              0.036685     0.000003
   52.1 A     1  3d0     105911.200000     0.000005
                          24974.572000     0.000031
                           8108.852700     0.000156
                           3150.520500     0.000688
                           1380.647900     0.002701
                            658.188950     0.009017
                            332.909040     0.025307
                            176.023220     0.054170
                             95.780704     0.081016
                             53.337287     0.048863
                             29.864821    -0.090253
                             16.526778    -0.246108
                              9.155323    -0.206252
                              4.984876     0.172281
                              2.636633     0.505499
                              1.354062     0.395618
                              0.656031     0.111498
                              0.269853     0.006248
                              0.103443    -0.000028
                              0.036685    -0.000036
   53.1 A     1  3d2-    105911.200000     0.000005
                          24974.572000     0.000031
                           8108.852700     0.000156
                           3150.520500     0.000688
                           1380.647900     0.002701
                            658.188950     0.009017
                            332.909040     0.025307
                            176.023220     0.054170
                             95.780704     0.081016
                             53.337287     0.048863
                             29.864821    -0.090253
                             16.526778    -0.246108
                              9.155323    -0.206252
                              4.984876     0.172281
                              2.636633     0.505499
                              1.354062     0.395618
                              0.656031     0.111498
                              0.269853     0.006248
                              0.103443    -0.000028
                              0.036685    -0.000036
   54.1 A     1  3d1+    105911.200000     0.000005
                          24974.572000     0.000031
                           8108.852700     0.000156
                           3150.520500     0.000688
                           1380.647900     0.002701
                            658.188950     0.009017
                            332.909040     0.025307
                            176.023220     0.054170
                             95.780704     0.081016
                             53.337287     0.048863
                             29.864821    -0.090253
                             16.526778    -0.246108
                              9.155323    -0.206252
                              4.984876     0.172281
                              2.636633     0.505499
                              1.354062     0.395618
                              0.656031     0.111498
                              0.269853     0.006248
                              0.103443    -0.000028
                              0.036685    -0.000036
   55.1 A     1  3d2+    105911.200000     0.000005
                          24974.572000     0.000031
                           8108.852700     0.000156
                           3150.520500     0.000688
                           1380.647900     0.002701
                            658.188950     0.009017
                            332.909040     0.025307
                            176.023220     0.054170
                             95.780704     0.081016
                             53.337287     0.048863
                             29.864821    -0.090253
                             16.526778    -0.246108
                              9.155323    -0.206252
                              4.984876     0.172281
                              2.636633     0.505499
                              1.354062     0.395618
                              0.656031     0.111498
                              0.269853     0.006248
                              0.103443    -0.000028
                              0.036685    -0.000036
   56.1 A     1  3d1-    105911.200000     0.000005
                          24974.572000     0.000031
                           8108.852700     0.000156
                           3150.520500     0.000688
                           1380.647900     0.002701
                            658.188950     0.009017
                            332.909040     0.025307
                            176.023220     0.054170
                             95.780704     0.081016
                             53.337287     0.048863
                             29.864821    -0.090253
                             16.526778    -0.246108
                              9.155323    -0.206252
                              4.984876     0.172281
                              2.636633     0.505499
                              1.354062     0.395618
                              0.656031     0.111498
                              0.269853     0.006248
                              0.103443    -0.000028
                              0.036685    -0.000036
   57.1 A     1  3d0     105911.200000    -0.000001
                          24974.572000    -0.000009
                           8108.852700    -0.000043
                           3150.520500    -0.000191
                           1380.647900    -0.000748
                            658.188950    -0.002504
                            332.909040    -0.007015
                            176.023220    -0.015060
                             95.780704    -0.022418
                             53.337287    -0.013379
                             29.864821     0.026549
                             16.526778     0.070488
                              9.155323     0.058301
                              4.984876    -0.065821
                              2.636633    -0.177452
                              1.354062    -0.127087
                              0.656031     0.181724
                              0.269853     0.495430
                              0.103443     0.447107
                              0.036685     0.116435
   58.1 A     1  3d2-    105911.200000    -0.000001
                          24974.572000    -0.000009
                           8108.852700    -0.000043
                           3150.520500    -0.000191
                           1380.647900    -0.000748
                            658.188950    -0.002504
                            332.909040    -0.007015
                            176.023220    -0.015060
                             95.780704    -0.022418
                             53.337287    -0.013379
                             29.864821     0.026549
                             16.526778     0.070488
                              9.155323     0.058301
                              4.984876    -0.065821
                              2.636633    -0.177452
                              1.354062    -0.127087
                              0.656031     0.181724
                              0.269853     0.495430
                              0.103443     0.447107
                              0.036685     0.116435
   59.1 A     1  3d1+    105911.200000    -0.000001
                          24974.572000    -0.000009
                           8108.852700    -0.000043
                           3150.520500    -0.000191
                           1380.647900    -0.000748
                            658.188950    -0.002504
                            332.909040    -0.007015
                            176.023220    -0.015060
                             95.780704    -0.022418
                             53.337287    -0.013379
                             29.864821     0.026549
                             16.526778     0.070488
                              9.155323     0.058301
                              4.984876    -0.065821
                              2.636633    -0.177452
                              1.354062    -0.127087
                              0.656031     0.181724
                              0.269853     0.495430
                              0.103443     0.447107
                              0.036685     0.116435
   60.1 A     1  3d2+    105911.200000    -0.000001
                          24974.572000    -0.000009
                           8108.852700    -0.000043
                           3150.520500    -0.000191
                           1380.647900    -0.000748
                            658.188950    -0.002504
                            332.909040    -0.007015
                            176.023220    -0.015060
                             95.780704    -0.022418
                             53.337287    -0.013379
                             29.864821     0.026549
                             16.526778     0.070488
                              9.155323     0.058301
                              4.984876    -0.065821
[...]
                                    2  4  px  -0.62673    2  4  py  -0.25558    2  4  pz   0.63281    3  5  s    0.81764
                                    3  4  px   0.29954    3  4  py  -0.41355    4  8  s   -1.11393    4  7  px  -0.36571
                                    5  5  s    0.83928    5  4  pz  -0.30607    6  4  py   0.48664    7  4  s    0.62542
                                    8  3  s    0.29943    8  4  s    0.81161    9  4  s    1.02512   10  4  s    0.66769
   92.1     0.00000     0.02947     1  5  s   -0.48973    1  6  s   -1.74544    1  7  s   -2.28974    1 11  s    1.58033
                                    1  4  py  -0.27247    1  5  px   0.33051    1  5  py  -1.53037    1  5  pz   0.25514
                                    1  6  px   1.11030    1  6  py  -4.53212    1  6  pz   0.32313    1  7  py   0.29564
                                    1 10  px  -0.51821    1 10  py   2.91759    2  5  s    0.79475    2  4  px  -0.50022
                                    3  5  s    2.46300    3  4  px   0.28394    3  4  py  -0.68366    4  8  s    0.56503
                                    6  5  s   -1.41668    6  4  py  -0.67747    7  4  s   -0.35427    8  4  s   -0.75786
                                    9  4  s    0.54334
   93.1     0.00000     0.03538     1  7  s   -0.43499    1 11  s    0.42435    1  5  px  -0.91804    1  5  py   0.62664
                                    1  5  pz   1.07236    1  6  px  -1.49058    1  6  py   1.99784    1  6  pz   2.40368
                                    1  7  px  -0.47169    1 10  px   1.66026    1 10  py  -1.48117    1 10  pz  -1.49357
                                    1  4  d2- -0.28602    1  4  d2+ -0.28658    1  8  d1+ -0.26833    2  5  s    2.01479
                                    2  4  px  -1.08434    2  4  py  -0.35365    2  4  pz   0.69143    3  5  s   -2.04061
                                    3  4  px  -0.46118    3  4  py   0.60664    4  8  s    0.82754    4  7  pz   0.26844
                                    5  5  s   -0.73373    6  5  s    0.92300    6  4  px  -0.25757    7  4  s   -0.31108
                                    8  3  s   -0.32218    8  4  s   -0.86690    9  4  s    0.96179    9  3  px   0.26526
                                   10  4  s   -0.70091
   94.1     0.00000     0.04195     1  5  s   -0.58112    1  6  s   -2.09831    1  7  s   -2.87613    1 11  s    1.96960
                                    1  5  py   0.53266    1  5  pz  -0.72032    1  6  px   0.70147    1  6  py   1.03494
                                    1  6  pz  -1.44758    1 10  px   1.11560    1 10  py  -0.33339    1 10  pz   1.95980
                                    1  4  d0  -0.27848    1  8  d1+ -0.51447    1  8  d2+ -0.26091    1  8  d1- -0.34136
                                    2  5  s   -0.31828    3  4  px  -0.37259    4  7  s   -0.32999    4  8  s    2.17557
                                    4  6  pz   0.25168    4  7  py   0.33409    5  5  s    1.85739    5  4  py   0.27545
                                    5  4  pz  -0.68220    6  5  s    0.26627    7  3  s   -0.34488    7  4  s   -0.49840
                                    9  4  s   -0.72842   10  4  s   -0.29038
   95.1     0.00000     0.05126     1 11  s   -3.02641    1  5  px   0.49422    1  5  pz   0.68726    1  6  px   0.60575
                                    1  6  py   1.17120    1  6  pz   2.09229    1  7  px   0.39170    1  7  py  -0.55422
                                    1 10  px   1.58211    1 10  py   1.24402    1 10  pz  -1.83834    1  4  d0   0.31318
                                    1  8  d0   0.50393    1  8  d2-  0.41977    1  8  d1+ -0.69246    1  8  d2+  0.72397
                                    1  8  d1- -0.34707    2  5  s   -0.40316    2  4  pz  -0.25845    3  5  s    1.07489
                                    3  4  py  -0.48278    3  4  pz  -0.31385    4  8  s    1.73337    4  6  px   0.29954
                                    4  7  py   0.27266    4  7  pz   0.45135    5  5  s   -1.31555    5  4  pz   0.38983
                                    6  5  s    0.84002    6  4  py   0.65686    7  4  s    1.51643    8  4  s    1.62732
                                    9  3  s   -0.38131    9  4  s   -2.25217   10  4  s    1.57087
   96.1     0.00000     0.05885     1  6  s   -0.58101    1  7  s   -0.88498    1 11  s   -2.94431    1  5  pz   0.47400
                                    1  6  px   0.98777    1  6  py  -0.66501    1  6  pz   1.47236    1 10  px  -1.96009
                                    1 10  py   1.37589    1 10  pz  -0.63182    2  5  s   -0.26993    2  4  px  -0.28582
                                    3  5  s    0.83929    4  7  s   -0.40247    4  8  s    1.94326    4  7  px   0.83760
                                    4  7  pz   0.41882    6  5  s   -0.72228    6  3  pz  -0.39854    6  4  py   0.28276
                                    6  4  pz  -1.05656    7  3  s   -0.83028    7  4  s   -3.52473    7  3  py  -0.28047
                                    8  3  s    1.29868    8  4  s    4.93440    9  3  s    0.63381    9  4  s    2.15841
                                   10  3  s   -0.25222   10  4  s   -0.46388
   97.1     0.00000     0.06389     1  5  s   -0.44034    1  6  s   -1.54187    1  7  s   -1.97029    1 11  s   -2.59759
                                    1  5  py   0.25546    1  5  pz   0.46630    1  6  px   0.48273    1  6  py   2.70564
                                    1  6  pz   1.62118    1  7  px  -0.28970    1  7  py  -1.09709    1  8  py   0.28312
                                    1 10  px   0.81369    1 10  py  -5.60941    2  4  px  -0.47202    2  4  py  -0.25080
                                    2  4  pz   0.33664    3  4  s   -0.34350    3  5  s   -2.13808    3  3  py  -0.31516
                                    3  4  px   0.49581    3  4  py  -1.07765    3  4  pz  -0.60213    4  8  s    1.47525
                                    4  7  px   0.36556    4  7  py   0.79691    4  7  pz   0.36920    6  4  s    0.29590
                                    6  5  s    1.65557    6  4  py  -0.32422    6  4  pz   0.35225    8  3  s   -0.74064
                                    8  4  s   -2.93784    9  3  s    0.42348    9  4  s    1.91148   10  3  s    1.73332
                                   10  4  s    5.08907   10  3  py  -0.29892
   98.1     0.00000     0.06512     1  5  s    0.38749    1  6  s    1.43381    1  7  s    2.03380    1 11  s   -7.00755
                                    1  5  py   0.72466    1  6  py   1.48028    1  6  pz   0.34840    1  7  py   0.25124
                                    1 10  px  -1.40263    1 10  py   1.73481    1 10  pz   2.35375    1  8  d0   0.26257
                                    1  8  d1- -0.45270    2  5  s   -1.17859    2  4  py  -0.55619    3  4  py   0.86328
                                    3  4  pz   0.30528    4  7  s   -0.34431    4  8  s    1.46280    4  7  px   0.39000
                                    4  7  py   0.40446    6  4  s   -0.30702    6  5  s   -0.85914    6  4  px   0.63276
                                    6  4  py   0.70297    6  4  pz   0.55923    7  3  s    1.20273    7  4  s    5.61051
                                    7  3  px   0.25947    8  4  s   -0.94967    9  3  s    0.85322    9  4  s    3.01228
                                   10  3  s   -0.56055   10  4  s   -1.49141
   99.1     0.00000     0.08432     1  6  s    0.40138    1  7  s    0.29574    1  8  s    0.34271    1  5  px   1.38524
                                    1  5  py   0.93954    1  5  pz   1.02151    1  6  px   4.76681    1  6  py   3.46960
                                    1  6  pz   3.74406    1  7  px  -0.56749    1  7  py  -0.48931    1  7  pz  -0.50062
                                    1 10  px  -1.60709    1 10  py  -1.08427    1 10  pz  -1.56891    1  4  d2- -0.37100
                                    1  4  d1+ -0.51539    1  4  d1- -0.54979    1  5  d1+  0.30315    1  8  d2- -0.42549
                                    1  8  d1+ -0.81448    1  8  d1- -0.51147    2  5  s   -1.56712    2  4  pz  -0.48523
                                    3  5  s   -1.30583    4  7  s   -0.52466    4  8  s    5.13707    4  4  px  -0.27810
                                    4  6  px   0.74883    4  6  py   0.37339    4  6  pz   0.61291    4  7  px   1.93124
                                    4  7  py   0.67196    4  7  pz   1.55641    4  5  d1+  0.43308    5  5  s   -1.24496
                                    6  4  py  -0.48654    8  4  s   -0.56711    9  4  s   -0.79587   10  3  s    0.27877
                                   10  4  s   -0.36906
  100.1     0.00000     0.09465     1  4  s   -0.45563    1  5  s   -1.46260    1  6  s   -5.64930    1  7  s   -8.57395
                                    1  8  s    0.76532    1  9  s    0.44635    1 11  s    8.07693    1  5  px   0.64785
                                    1  5  py  -1.38188    1  5  pz   0.71152    1  6  px   2.88570    1  6  py  -4.28574
                                    1  6  pz   2.19850    1  7  px  -0.64374    1 10  px  -0.78973    1 10  py   2.64827
                                    1 10  pz  -0.82300    1  4  d1+ -0.26233    1  8  d0  -0.59380    1  8  d2- -0.58653
                                    1  8  d1+ -1.23554    1  8  d2+ -0.88345    1  8  d1-  0.33525    1  6  f1-  0.30891
                                    2  5  s    2.33227    2  4  px  -0.66731    2  4  py   0.32701    2  4  pz   0.50646
                                    3  5  s    3.01782    3  4  py  -0.73982    3  4  pz  -0.32770    4  7  s    0.54993
                                    4  8  s    2.01992    4  6  px   0.36349    4  6  py   0.35390    4  6  pz   0.50099
                                    4  7  px   0.78063    4  7  py   1.56800    4  7  pz   0.40914    4  5  d2-  0.27178
                                    5  5  s    0.51229    5  4  px   0.43324    6  4  s   -0.37127    6  5  s   -3.26970
                                    6  4  py  -0.77715    7  3  s    1.01867    7  4  s    1.02906    7  3  py   0.42512
                                    8  3  s    0.56724    8  4  s   -1.29354    9  3  s   -0.57584    9  4  s   -1.39777
                                    9  3  px   0.29253   10  3  s   -0.51581   10  4  s   -2.01050   10  3  py   0.31225


 HOMO     90.1    -0.354320 =      -9.6415eV
 LUMO     91.1     0.020733 =       0.5642eV
 LUMO-HOMO         0.375053 =      10.2057eV

 Orbitals saved in record  2100.2


 **********************************************************************************************************************************
 DATASETS  * FILE   NREC   LENGTH (MB)   RECORD NAMES
              1      22       52.21       500      610      700      900      950      970     1000      129      960     1700   
                                          VAR    BASINP    GEOM    SYMINP    ZMAT    AOBASIS   BASIS     P2S    ABASIS    OPER   
                                         1101     1401     1411     1412     1650     1100     1400     1410     1200     1210   
                                          SR      EKINR    POTR     PVPR    MOLCAS      S      EKIN      POT      H0       H01  
                                         1080     1600   
                                         AOSYM     SMH  

              2       6       16.04       500      610      700     1000      520     2100   
                                          VAR    BASINP    GEOM     BASIS   MCVARS     RHF  

 PROGRAMS   *        TOTAL    HF-SCF       INT      FILE
 CPU TIMES  *      1318.34    937.60    380.49      0.01
 REAL TIME  *      1502.19 SEC
 DISK USED  *        85.98 MB (local),      101.58 GB (total)
 GA USED    *         0.01 MB       (max)       0.00 MB       (current)
 **********************************************************************************************************************************


 PROGRAM * CCSD (Closed-shell coupled cluster)     Authors: C. Hampel, H.-J. Werner, 1991, M. Deegan, P.J. Knowles, 1992


 Convergence thresholds:  THRVAR = 1.00D-08  THRDEN = 1.00D-06

 CCSD(T)     terms to be evaluated (factor= 1.000)


 Number of core orbitals:          61 (  61 )
 Number of closed-shell orbitals:  29 (  29 )
 Number of external orbitals:     415 ( 415 )

 Molecular orbitals read from record     2100.2  Type=RHF/CANONICAL  

 Number of N-1 electron functions:              29
 Number of N-2 electron functions:             435
 Number of singly external CSFs:             12035
 Number of doubly external CSFs:          72426630
 Total number of CSFs:                    72438666

 Length of J-op  integral file:               0.00 MB
 Length of K-op  integral file:              17.51 MB
 Length of 3-ext integral record:             0.00 MB

 Integral transformation finished. Total CPU:1911.87 sec, npass=  1  Memory used:2117.31 MW

 Reference energy:                 -34591.01017544

 MP2 singlet pair energy:              -0.98290116
 MP2 triplet pair energy:              -0.69992532
 MP2 correlation energy:               -1.68282649
 MP2 total energy:                 -34592.69300193

 SCS-MP2 correlation energy:           -1.61499049   (PS=  1.200000  PT=  0.333333)
 SCS-MP2 total energy:             -34592.62516593

 ITER.      SQ.NORM     CORR.ENERGY   TOTAL ENERGY   ENERGY CHANGE        DEN1      VAR(S)    VAR(P)  DIIS     TIME  TIME/IT
   1      1.46004332    -1.68240693-34592.69258237     0.00041956     0.07256534  0.32D-01  0.15D-01  1  1  5328.80  2103.60
   2      1.49093148    -1.66846622-34592.67864166     0.01394071    -0.04690275  0.60D-03  0.22D-02  2  2  7223.52  2014.48
   3      1.51194508    -1.67094211-34592.68111755    -0.00247589    -0.00543654  0.12D-02  0.18D-03  3  3  8945.98  1928.71
   4      1.52417541    -1.66947433-34592.67964977     0.00146777    -0.00377749  0.22D-03  0.41D-04  4  4 10252.94  1779.92
   5      1.53352124    -1.66879986-34592.67897530     0.00067447    -0.00174747  0.59D-04  0.57D-05  5  5 11668.25  1713.34
   6      1.53680299    -1.66861986-34592.67879530     0.00018000    -0.00021779  0.11D-04  0.27D-05  6  6 12937.59  1644.35
   7      1.53862382    -1.66846539-34592.67864083     0.00015447    -0.00004701  0.36D-05  0.45D-06  6  1 14269.39  1603.41
   8      1.53930117    -1.66844310-34592.67861854     0.00002229    -0.00008049  0.67D-06  0.16D-06  6  2 15537.38  1565.16
   9      1.53939863    -1.66846491-34592.67864036    -0.00002182     0.00004824  0.24D-06  0.34D-07  6  3 16601.88  1511.95
  10      1.53955027    -1.66844068-34592.67861612     0.00002424    -0.00003732  0.59D-07  0.12D-07  6  4 17725.37  1475.12
  11      1.53951817    -1.66845514-34592.67863058    -0.00001446     0.00001386  0.26D-07  0.42D-08  6  3 18652.40  1426.99
  12      1.53954956    -1.66844829-34592.67862373     0.00000685    -0.00000741  0.34D-08  0.94D-09  6  1 19741.74  1400.46
  13      1.53954434    -1.66845130-34592.67862674    -0.00000301     0.00000554  0.77D-09  0.17D-09  6  5 20660.83  1364.81
  14      1.53954686    -1.66845025-34592.67862569     0.00000104    -0.00000153  0.20D-09  0.57D-10  6  6 22041.38  1368.65
  15      1.53955135    -1.66845011-34592.67862555     0.00000014    -0.00000013  0.56D-10  0.11D-10  6  2 23261.77  1360.30
  16      1.53955275    -1.66844978-34592.67862522     0.00000033    -0.00000054  0.15D-10  0.30D-11  6  4 24417.94  1348.95

 Norm of t1 vector:      0.24106159      S-energy:    -0.00000142      T1 diagnostic:  0.02238201
                                                                       D1 diagnostic:  0.08482982
                                                                       D2 diagnostic:  0.15107396 (internal)

   CPU time for triples:   2582.03 sec for i =  1 -  6 / 29 (~   1.1 % done)
   CPU time for triples:   3745.45 sec for i =  7 - 18 / 29 (~  25.1 % done)
   CPU time for triples:   2904.13 sec for i = 19 - 20 / 29 (~  34.0 % done)
   CPU time for triples:   3358.08 sec for i = 21 - 23 / 29 (~  51.0 % done)
   CPU time for triples:   3158.88 sec for i = 24 - 25 / 29 (~  64.9 % done)
   CPU time for triples:   2806.50 sec for i = 26 - 26 / 29 (~  72.8 % done)
   CPU time for triples:   3165.24 sec for i = 27 - 28 / 29 (~  90.3 % done)
   CPU time for triples:   1979.24 sec for i = 29 - 29 / 29 (  100.0 % done)

 Total CPU time for triples:  23729.88 sec


 RESULTS
 =======

  Reference energy                   -34591.0101754411    

  Correlated core orbitals:            62.1      63.1      64.1      65.1      66.1
  Orbital energies:                    -2.2421   -2.2411   -2.2409   -2.2391   -2.2391

  CCSD core-core energy                -0.031055642365
  CCSD core-valence energy             -0.049011099273
  CCSD valence correlation energy      -1.588383037099

  CCSD singlet pair energy             -1.051972165659
  CCSD triplet pair energy             -0.616476196265
  CCSD correlation energy              -1.668449778738

  Triples (T) contribution             -0.082521725201
  Total correlation energy             -1.750971503939

  CCSD total energy                  -34592.6786252198    
  CCSD[T] energy                     -34592.7739062853    
  CCSD-T energy                      -34592.7574455345    
 !CCSD(T) total energy               -34592.7611469450    

 Timing summary (sec):

 STEP                 CPU(USER)    SYS     CPU(TOT)    WALL
 Transformation       1926.56     90.56   2017.12   2020.05
 CCSD iterations     22520.59    378.67  22899.26  21610.70
 Triples             23729.88    276.38  24006.26  24017.77

 Program statistics:

 Available memory in ccsd:              2499996546
 Min. memory needed in ccsd:             165502844
 Max. memory used in ccsd:               233037029
 Max. memory used in cckext:             224975140 (16 integral passes)



 **********************************************************************************************************************************
 DATASETS  * FILE   NREC   LENGTH (MB)   RECORD NAMES
              1      23     9252.39       500      610      700      900      950      970     1000      129      960     1700   
                                          VAR    BASINP    GEOM    SYMINP    ZMAT    AOBASIS   BASIS     P2S    ABASIS    OPER   
                                         1101     1401     1411     1412     1650     1100     1400     1410     1200     1210   
                                          SR      EKINR    POTR     PVPR    MOLCAS      S      EKIN      POT      H0       H01  
                                         1080     1600     1380   
                                         AOSYM     SMH     JKOP   

              2       6       16.04       500      610      700     1000      520     2100   
                                          VAR    BASINP    GEOM     BASIS   MCVARS     RHF  

 PROGRAMS   *        TOTAL   CCSD(T)    HF-SCF       INT      FILE
 CPU TIMES  *     48176.46  46858.11    937.60    380.49      0.01
 REAL TIME  *     49157.59 SEC
 DISK USED  *        15.75 GB (local),      180.02 GB (total)
 SF USED    *        17.16 GB
 GA USED    *         0.01 MB       (max)       0.00 MB       (current)
 **********************************************************************************************************************************
 SETTING ENERGY_HF(1)   =    -34591.01017544  AU                              
 SETTING CORR_MP2(1)    =        -1.68282649  AU                              
 SETTING CORR_CCSDT(1)  =        -1.75097150  AU                              

 CCSD(T)/PA=CC-PVTZ-DK,O=AUG-CC-PVTZ-DK,H=AUG-CC-PVTZ-DK,I=AUG-CC-PVTZ-DK energy= -34592.761146944998

         CCSD(T)          HF-SCF
 -34592.76114694 -34591.01017544
 **********************************************************************************************************************************
 Molpro calculation terminated
