

 Parallel Execution: Process Information
 ==============================================================================
 Rank   Node Name                              NodeID   MyNodeRank  NodeMaster
    0   u-0-11.local                              0          0          0
    1   u-0-11.local                              0          1         -1
    2   u-0-11.local                              1          0          1
    3   u-0-11.local                              1          1         -1
    4   u-0-11.local                              2          0          2
    5   u-0-11.local                              2          1         -1
    6   u-0-11.local                              3          0          3
    7   u-0-11.local                              3          1         -1
 ==============================================================================


May use up to 31200MB of RAM as shared memory on node 0
May use up to 31250MB of RAM as shared memory on node 2
May use up to 31250MB of RAM as shared memory on node 3
May use up to 31250MB of RAM as shared memory on node 1

 *******************************************************************************
 *                                                                             *
 *  --------------------------------                                           *
 *   Amsterdam Modeling Suite (AMS)              2023.101                      *
 *  --------------------------------                                           *
 *                                               r111868 2023-03-31            *
 *                                                                             *
 *                                                                             *
 *                              =================                              *
 *                              |               |                              *
 *                              |     A M S     |                              *
 *                              |               |                              *
 *                              =================                              *
 *                                                                             *
 *                                                                             *
 *   Online information and documentation:  https://www.scm.com/support/       *
 *   E-mail:  support@scm.com   info@scm.com                                   *
 *                                                                             *
 *   Scientific publications using AMS results must be properly referenced     *
 *   See the User Manuals (or the web site) for recommended citations          *
 *   The terms and conditions of the End User License Agreement apply to       *
 *   the use of AMS, https://www.scm.com/license-terms/                        *
 *                                                                             *
 **********************  x86_64_linux_intel / intelmpi  ************************
 
 Licensed to: Dr. Val?rie Vallet / Laboratoire PhLAM UMR 8523 / Villeneuve d'Ascq Cedex / FRANCE 2023-12-11 15:27:25
 SCM User ID: u10325
  
 AMS 2023.101  RunTime: Jan15-2024 08:55:06  ShM Nodes: 4  Procs: 8

 AMS jobname: pa_oh4_f-newconformer.SO.b3lyp.tz2p.sp-opp-B22-adf
 AMS jobid  : 1143695114

 Start   directory: /home/shaaban/ams/PhD/fluoride/pa_oh4_f/gp/B22/SP-SR-SO/
 Results directory: /home/shaaban/ams/PhD/fluoride/pa_oh4_f/gp/B22/SP-SR-SO/pa_oh4_f-newconformer.SO.b3lyp.tz2p.sp-opp-B22-adf.results/
 Scratch directory: /state/partition2/shaaban/999599.phlam-s-sakura/amstmp_pa_oh4_f-newconformer.SO.b3lyp.tz2p.sp-opp-B22-adf_kid0.1143695114/


 Communication costs MPI_COMM_WORLD:      1.360 usec per message,   0.0168 usec per 8-byte item
 Communication costs for intra-node:      0.385 usec per message,   0.0027 usec per 8-byte item

 RNG seed: 1446574392 -955939270 1092918011 1513792678 -1062413111 -2121468005 -1263853362 -1760390912



                      ************************************************************************
                      *  ADF 2023.101  RunTime: Jan15-2024 08:55:07  ShM Nodes: 4  Procs: 8  *
                      ************************************************************************
  

       ****************************
       * SINGLE POINT CALCULATION *
       ****************************
 
--------
Geometry
--------
Formula: H4FO4Pa
Atoms
  Index Symbol   x (angstrom)   y (angstrom)   z (angstrom)
      1     Pa     0.34601472    -0.07416228     0.03577287
      2      F     1.11622990     1.41137157    -1.21041497
      3      H    -1.96464694     1.85289063     0.46970094
      4      O    -1.31883582     1.14631278     0.42477540
      5      H     2.58473464    -0.23251484     1.96808979
      6      O     0.18639990    -1.35865954    -1.61665480
      7      H     0.15735988    -1.87462938    -2.42324305
      8      O    -0.37137603    -1.54781318     1.33768875
      9      H    -0.97669755    -2.15542285     1.76754294
     10      O     2.10237134     0.07657093     1.19788308
 
Total System Charge             0.00000
Bonding info available!
 
 
----------------
ADF Engine Input
----------------
 
 Basis
 Type TZ2P
 Core None
 End
 XC
 Hybrid B3LYP
 End
 Relativity
 Level Spin-Orbit
 End
 NumericalQuality Good
 

 Title: *** (NO TITLE) ***

 *** adf ***



 ===========================
 A T T A C H E D   F I L E S
 ===========================
  



 ===============================
 M O D E L   P A R A M E T E R S
 ===============================
  
 DENSITY FUNCTIONAL POTENTIAL (scf)
    Hybrid:                            B3LYP                                   == Not Default ==

 SPIN  (restricted / unrestr.)
    Molecule:                          Restricted                               
    Fragments:                         Restricted                               

 OTHER ASPECTS
    Relativistic Corrections:          Spin-Orbit (ZORA,MAPA)                  == Not Default ==

    Nuclear Charge Density Model:      Point Charge Nuclei                      
    Core Treatment:                    Frozen Orbital(s)                        

    Hyperfine or Zeeman Interaction:   ---                                      


 Fragment File(s)
 ----------------
 Pa:
         file : /home/shaaban/ams/PhD/fluoride/pa_oh4_f/gp/B22/SP-SR-SO/pa_oh4_f-newconformer.SO.b3lyp.tz2p.sp-opp-B22-adf.results/t21.376DF1AB.Pa
         jobid: 0
         title: Protactinium (TZ2P, all electron)
 F:
         file : /home/shaaban/ams/PhD/fluoride/pa_oh4_f/gp/B22/SP-SR-SO/pa_oh4_f-newconformer.SO.b3lyp.tz2p.sp-opp-B22-adf.results/t21.5A467146.F
         jobid: 0
         title: Fluorine (TZ2P)
 H:
         file : /home/shaaban/ams/PhD/fluoride/pa_oh4_f/gp/B22/SP-SR-SO/pa_oh4_f-newconformer.SO.b3lyp.tz2p.sp-opp-B22-adf.results/t21.1FC863BF.H
         jobid: 0
         title: Hydrogen (TZ2P)
 O:
         file : /home/shaaban/ams/PhD/fluoride/pa_oh4_f/gp/B22/SP-SR-SO/pa_oh4_f-newconformer.SO.b3lyp.tz2p.sp-opp-B22-adf.results/t21.6BA271D4.O
         jobid: 0
         title: Oxygen (TZ2P)



 ===============
 G E O M E T R Y  ***  3D  Molecule  ***
 ===============
  

 ATOMS
 =====                            X Y Z                    CHARGE
                                (Angstrom)             Nucl     +Core       At.Mass
                       --------------------------    ----------------       -------
    1  Pa              0.3460   -0.0742    0.0358     91.00     91.00      231.0359
    2  F               1.1162    1.4114   -1.2104      9.00      9.00       18.9984
    3  H              -1.9646    1.8529    0.4697      1.00      1.00        1.0078
    4  O              -1.3188    1.1463    0.4248      8.00      8.00       15.9949
    5  H               2.5847   -0.2325    1.9681      1.00      1.00        1.0078
    6  O               0.1864   -1.3587   -1.6167      8.00      8.00       15.9949
    7  H               0.1574   -1.8746   -2.4232      1.00      1.00        1.0078
    8  O              -0.3714   -1.5478    1.3377      8.00      8.00       15.9949
    9  H              -0.9767   -2.1554    1.7675      1.00      1.00        1.0078
   10  O               2.1024    0.0766    1.1979      8.00      8.00       15.9949


 FRAGMENTS
 =========                                     Atoms in this Fragment     Cart. coord.s (Angstrom)
                                               -------------------------------------------------------
    1  Pa                                                1  Pa           0.3460   -0.0742    0.0358
    2  F                                                 2  F            1.1162    1.4114   -1.2104
    3  H                                                 3  H           -1.9646    1.8529    0.4697
    4  H                                                 5  H            2.5847   -0.2325    1.9681
    5  H                                                 7  H            0.1574   -1.8746   -2.4232
    6  H                                                 9  H           -0.9767   -2.1554    1.7675
    7  O                                                 4  O           -1.3188    1.1463    0.4248
    8  O                                                 6  O            0.1864   -1.3587   -1.6167
    9  O                                                 8  O           -0.3714   -1.5478    1.3377
   10  O                                                10  O            2.1024    0.0766    1.1979


 Interatomic Distance Matrix (Angstrom)
 --------------------------------------

   1)     0.000
   2)     2.086   0.000
   3)     3.040   3.537   0.000
   4)     2.101   2.945   0.958   0.000
   5)     2.962   3.868   5.224   4.418   0.000
   6)     2.099   2.950   4.392   3.565   4.458   0.000
   7)     3.054   3.632   5.174   4.406   5.279   0.958   0.000
   8)     2.093   4.179   3.854   2.998   3.296   3.012   3.812   0.000
   9)     3.013   5.096   4.327   3.581   4.052   3.666   4.351   0.959   0.000
  10)     2.111   2.925   4.497   3.667   0.960   3.695   4.550   2.963   3.845   0.000

 Min. Distance =    0.9579
 Max. Distance =    5.2794



 =====================================
 S Y M M E T R Y ,   E L E C T R O N S
 =====================================
  
 Symmetry: NOSYM

 Double Group Irreducible Representations (spinor symmetry)
 -----------------------------------------------------------
 A1/2

 Symmetry is NOT used when fitting density


 Configuration of Valence Electrons
 ==================================
 ( determined in the SCF procedure )

 Total:   136

 Net Charge: 0 (Nuclei minus Electrons)

 Aufbau principle for MO occupations will be applied through SCF cycle no.     150
 Thereafter, the program will assign electrons to MOs that are spatially
 similar to the occupied MOs in a "reference" cycle ("KeepOrbitals").
 The reference cycle is always the PREVIOUS cycle: it will evolve with
 the SCF procedure.
1
 ***************************************************************************************************



                                      ****************************************
                                      *  B U I L D : (Fragments, Functions)  *
                                      ****************************************
  



 =======
 S F O s  ***  (Symmetrized Fragment Orbitals)  ***
 =======
  
 SFOs are linear combinations of (valence) Fragment Orbitals (FOs), such that the SFOs transform as the
 irreducible representations of the (molecular) symmetry group. Each SFO is therefore characterized by
 an irrep of the molecule and by a few (or only one) generating FOs.
 The SFOs constitute a symmetry-adapted basis for the Fock matrix. The MO eigenvector coefficients in
 this basis provide a direct interpretation of the MOs in terms of Frontier Orbital Theory.

 The SFOs are combined with auxiliary Core Functions (CFs) to ensure orthogonalization on the (frozen)
 Core Orbitals (COs). The Core-orthogonalized SFOs (CSFOs) constitute the true Fock basis.

 The FOs, and hence also the (C)SFOs are combinations of the elementary basis functions (BAS). The basis
 functions that participate in the description of the SFOs depend on the irrep. The indices of the
 involved functions are printed below for each irrep.
 (The complete list of primitive basis functions is printed in another section)

 Total nr. of (C)SFOs (summation over all irreps) :   309

 NOTE: a (C)SFO that is defined as a combination of more than one FO is usually NOT normalized.

 NOTE: the (C)SFOs are single group symmetry adapted orbitals.



                                       === A ===
 Nr. of SFOs :  309
 Cartesian basis functions that participate in this irrep (total number =   357) :
      1     2     3     4     5     6     7     8     9    10
     11    12    13    14    15    16    17    20    23    26
     29    32    35    38    41    44    47    50   157    18
     21    24    27    30    33    36    39    42    45    48
     51   158    19    22    25    28    31    34    37    40
     43    46    49    52   159    53    59    65    71    77
     83    89    95   101    54    60    66    72    78    84
     90    96   102    55    61    67    73    79    85    91
     97   103    56    62    68    74    80    86    92    98
    104    57    63    69    75    81    87    93    99   105
     58    64    70    76    82    88    94   100   106   107
    117   127   137   147   108   118   128   138   148   109
    119   129   139   149   110   120   130   140   150   111
    121   131   141   151   112   122   132   142   152   113
    123   133   143   153   114   124   134   144   154   115
    125   135   145   155   116   126   136   146   156   160
    161   162   163   164   165   168   171   166   169   172
    167   170   173   174   175   176   177   178   179   180
    181   182   183   184   185   186   187   188   189   190
    191   192   193   194   195   196   197   198   199   200
    201   202   203   204   205   206   207   208   209   210
    211   212   213   214   215   216   217   218   219   220
    221   222   223   224   225   226   227   228   229   230
    231   232   233   234   235   236   237   238   239   240
    241   242   243   246   249   244   247   250   245   248
    251   252   253   254   255   256   257   258   259   260
    261   262   263   264   265   266   267   268   269   270
    271   272   273   276   279   274   277   280   275   278
    281   282   283   284   285   286   287   288   289   290
    291   292   293   294   295   296   297   298   299   300
    301   302   303   306   309   304   307   310   305   308
    311   312   313   314   315   316   317   318   319   320
    321   322   323   324   325   326   327   328   329   330
    331   332   333   336   339   334   337   340   335   338
    341   342   343   344   345   346   347   348   349   350
    351   352   353   354   355   356   357

    SFO  (index         Fragment          Generating    Expansion in Fragment Orbitals
  indx  incl.CFs)   Occup   Orb.Energy   FragmentType  Coeff.   Orbital     on Fragment
 --------------------------------------------------------------------------------------
     1       1      2.000   -4140.144 au  Pa            1.00      1 S               1
                        ( -112659.040 eV)
     2       2      2.000    -772.390 au  Pa            1.00      2 S               1
                        (  -21017.794 eV)
     3       3      2.000    -195.003 au  Pa            1.00      3 S               1
                        (   -5306.298 eV)
     4       4      2.000     -49.664 au  Pa            1.00      4 S               1
                        (   -1351.436 eV)
     5       5      2.000     -11.057 au  Pa            1.00      5 S               1
                        (    -300.888 eV)
     6       6      2.000      -1.766 au  Pa            1.00      6 S               1
                        (     -48.049 eV)
     7       7      2.000      -0.167 au  Pa            1.00      7 S               1
                        (      -4.550 eV)
     8       8       --         0.031 au  Pa            1.00      8 S               1
                        (       0.841 eV)
     9       9       --         0.336 au  Pa            1.00      9 S               1
                        (       9.133 eV)
    10      10       --         1.674 au  Pa            1.00     10 S               1
                        (      45.549 eV)
    11      11       --         8.680 au  Pa            1.00     11 S               1
                        (     236.196 eV)
    12      12       --        46.308 au  Pa            1.00     12 S               1
                        (    1260.118 eV)
    13      13       --      1052.293 au  Pa            1.00     13 S               1
                        (   28634.347 eV)
    14      14       --      5423.866 au  Pa            1.00     14 S               1
                        (  147590.909 eV)
    15      15       --     16326.809 au  Pa            1.00     15 S               1
                        (  444275.077 eV)
    16      16       --     46434.730 au  Pa            1.00     16 S               1
                        ( 1263553.301 eV)
    17      17      2.000    -644.804 au  Pa            1.00      1 P:x             1
                        (  -17546.004 eV)
    18      18      2.000    -159.382 au  Pa            1.00      2 P:x             1
                        (   -4336.995 eV)
    19      19      2.000     -38.001 au  Pa            1.00      3 P:x             1
                        (   -1034.059 eV)
    20      20      2.000      -7.452 au  Pa            1.00      4 P:x             1
                        (    -202.774 eV)
    21      21      2.000      -0.880 au  Pa            1.00      5 P:x             1
                        (     -23.949 eV)
    22      22       --        -0.008 au  Pa            1.00      6 P:x             1
                        (      -0.215 eV)
    23      23       --         0.404 au  Pa            1.00      7 P:x             1
                        (      10.994 eV)
    24      24       --         1.850 au  Pa            1.00      8 P:x             1
                        (      50.342 eV)
    25      25       --         7.570 au  Pa            1.00      9 P:x             1
                        (     205.994 eV)
    26      26       --        35.931 au  Pa            1.00     10 P:x             1
                        (     977.731 eV)
    27      27       --       178.469 au  Pa            1.00     11 P:x             1
                        (    4856.387 eV)
    28      28       --      1509.400 au  Pa            1.00     12 P:x             1
                        (   41072.871 eV)
    29      29       --     10783.504 au  Pa            1.00     13 P:x             1
                        (  293434.081 eV)
    30      30      2.000    -644.804 au  Pa            1.00      1 P:y             1
                        (  -17546.004 eV)
    31      31      2.000    -159.382 au  Pa            1.00      2 P:y             1
                        (   -4336.995 eV)
    32      32      2.000     -38.001 au  Pa            1.00      3 P:y             1
                        (   -1034.059 eV)
    33      33      2.000      -7.452 au  Pa            1.00      4 P:y             1
                        (    -202.774 eV)
    34      34      2.000      -0.880 au  Pa            1.00      5 P:y             1
                        (     -23.949 eV)
    35      35       --        -0.008 au  Pa            1.00      6 P:y             1
                        (      -0.215 eV)
    36      36       --         0.404 au  Pa            1.00      7 P:y             1
                        (      10.994 eV)
    37      37       --         1.850 au  Pa            1.00      8 P:y             1
                        (      50.342 eV)
    38      38       --         7.570 au  Pa            1.00      9 P:y             1
                        (     205.994 eV)
    39      39       --        35.931 au  Pa            1.00     10 P:y             1
                        (     977.731 eV)
    40      40       --       178.469 au  Pa            1.00     11 P:y             1
                        (    4856.387 eV)
    41      41       --      1509.400 au  Pa            1.00     12 P:y             1
                        (   41072.871 eV)
    42      42       --     10783.504 au  Pa            1.00     13 P:y             1
                        (  293434.081 eV)
    43      43      2.000    -644.804 au  Pa            1.00      1 P:z             1
                        (  -17546.004 eV)
    44      44      2.000    -159.382 au  Pa            1.00      2 P:z             1
                        (   -4336.995 eV)
    45      45      2.000     -38.001 au  Pa            1.00      3 P:z             1
                        (   -1034.059 eV)
    46      46      2.000      -7.452 au  Pa            1.00      4 P:z             1
                        (    -202.774 eV)
    47      47      2.000      -0.880 au  Pa            1.00      5 P:z             1
                        (     -23.949 eV)
    48      48       --        -0.008 au  Pa            1.00      6 P:z             1
                        (      -0.215 eV)
    49      49       --         0.404 au  Pa            1.00      7 P:z             1
                        (      10.994 eV)
    50      50       --         1.850 au  Pa            1.00      8 P:z             1
                        (      50.342 eV)
    51      51       --         7.570 au  Pa            1.00      9 P:z             1
                        (     205.994 eV)
    52      52       --        35.931 au  Pa            1.00     10 P:z             1
                        (     977.731 eV)
    53      53       --       178.469 au  Pa            1.00     11 P:z             1
                        (    4856.387 eV)
    54      54       --      1509.400 au  Pa            1.00     12 P:z             1
                        (   41072.871 eV)
    55      55       --     10783.504 au  Pa            1.00     13 P:z             1
                        (  293434.081 eV)
    56      56      2.000    -127.750 au  Pa            1.00      1 D:z2            1
                        (   -3476.261 eV)
    57      57      2.000     -25.974 au  Pa            1.00      2 D:z2            1
                        (    -706.779 eV)
    58      58      2.000      -3.548 au  Pa            1.00      3 D:z2            1
                        (     -96.540 eV)
    59      59      0.200      -0.066 au  Pa            1.00      4 D:z2            1
                        (      -1.808 eV)
    60      60       --         0.084 au  Pa            1.00      5 D:z2            1
                        (       2.281 eV)
    61      61       --         0.569 au  Pa            1.00      6 D:z2            1
                        (      15.477 eV)
    62      62       --         3.594 au  Pa            1.00      7 D:z2            1
                        (      97.805 eV)
    63      63       --        24.986 au  Pa            1.00      8 D:z2            1
                        (     679.903 eV)
    64      64       --       204.782 au  Pa            1.00      9 D:z2            1
                        (    5572.393 eV)
    65      65      2.000    -127.750 au  Pa            1.00      1 D:x2-y2         1
                        (   -3476.261 eV)
    66      66      2.000     -25.974 au  Pa            1.00      2 D:x2-y2         1
                        (    -706.779 eV)
    67      67      2.000      -3.548 au  Pa            1.00      3 D:x2-y2         1
                        (     -96.540 eV)
    68      68      0.200      -0.066 au  Pa            1.00      4 D:x2-y2         1
                        (      -1.808 eV)
    69      69       --         0.084 au  Pa            1.00      5 D:x2-y2         1
                        (       2.281 eV)
    70      70       --         0.569 au  Pa            1.00      6 D:x2-y2         1
                        (      15.477 eV)
    71      71       --         3.594 au  Pa            1.00      7 D:x2-y2         1
                        (      97.805 eV)
    72      72       --        24.986 au  Pa            1.00      8 D:x2-y2         1
                        (     679.903 eV)
    73      73       --       204.782 au  Pa            1.00      9 D:x2-y2         1
                        (    5572.393 eV)
    74      74      2.000    -127.750 au  Pa            1.00      1 D:xy            1
                        (   -3476.261 eV)
    75      75      2.000     -25.974 au  Pa            1.00      2 D:xy            1
                        (    -706.779 eV)
    76      76      2.000      -3.548 au  Pa            1.00      3 D:xy            1
                        (     -96.540 eV)
    77      77      0.200      -0.066 au  Pa            1.00      4 D:xy            1
                        (      -1.808 eV)
    78      78       --         0.084 au  Pa            1.00      5 D:xy            1
                        (       2.281 eV)
    79      79       --         0.569 au  Pa            1.00      6 D:xy            1
                        (      15.477 eV)
    80      80       --         3.594 au  Pa            1.00      7 D:xy            1
                        (      97.805 eV)
    81      81       --        24.986 au  Pa            1.00      8 D:xy            1
                        (     679.903 eV)
    82      82       --       204.782 au  Pa            1.00      9 D:xy            1
                        (    5572.393 eV)
    83      83      2.000    -127.750 au  Pa            1.00      1 D:xz            1
                        (   -3476.261 eV)
    84      84      2.000     -25.974 au  Pa            1.00      2 D:xz            1
                        (    -706.779 eV)
    85      85      2.000      -3.548 au  Pa            1.00      3 D:xz            1
                        (     -96.540 eV)
    86      86      0.200      -0.066 au  Pa            1.00      4 D:xz            1
                        (      -1.808 eV)
    87      87       --         0.084 au  Pa            1.00      5 D:xz            1
                        (       2.281 eV)
    88      88       --         0.569 au  Pa            1.00      6 D:xz            1
                        (      15.477 eV)
    89      89       --         3.594 au  Pa            1.00      7 D:xz            1
                        (      97.805 eV)
    90      90       --        24.986 au  Pa            1.00      8 D:xz            1
                        (     679.903 eV)
    91      91       --       204.782 au  Pa            1.00      9 D:xz            1
                        (    5572.393 eV)
    92      92      2.000    -127.750 au  Pa            1.00      1 D:yz            1
                        (   -3476.261 eV)
    93      93      2.000     -25.974 au  Pa            1.00      2 D:yz            1
                        (    -706.779 eV)
    94      94      2.000      -3.548 au  Pa            1.00      3 D:yz            1
                        (     -96.540 eV)
    95      95      0.200      -0.066 au  Pa            1.00      4 D:yz            1
                        (      -1.808 eV)
    96      96       --         0.084 au  Pa            1.00      5 D:yz            1
                        (       2.281 eV)
    97      97       --         0.569 au  Pa            1.00      6 D:yz            1
                        (      15.477 eV)
    98      98       --         3.594 au  Pa            1.00      7 D:yz            1
                        (      97.805 eV)
    99      99       --        24.986 au  Pa            1.00      8 D:yz            1
                        (     679.903 eV)
   100     100       --       204.782 au  Pa            1.00      9 D:yz            1
                        (    5572.393 eV)
   101     101      2.000     -13.085 au  Pa            1.00      1 F:z3            1
                        (    -356.050 eV)
   102     102      0.286      -0.042 au  Pa            1.00      2 F:z3            1
                        (      -1.139 eV)
   103     103       --         0.419 au  Pa            1.00      3 F:z3            1
                        (      11.400 eV)
   104     104       --         2.553 au  Pa            1.00      4 F:z3            1
                        (      69.470 eV)
   105     105       --        21.603 au  Pa            1.00      5 F:z3            1
                        (     587.835 eV)
   106     106      2.000     -13.085 au  Pa            1.00      1 F:z             1
                        (    -356.050 eV)
   107     107      0.286      -0.042 au  Pa            1.00      2 F:z             1
                        (      -1.139 eV)
   108     108       --         0.419 au  Pa            1.00      3 F:z             1
                        (      11.400 eV)
   109     109       --         2.553 au  Pa            1.00      4 F:z             1
                        (      69.470 eV)
   110     110       --        21.603 au  Pa            1.00      5 F:z             1
                        (     587.835 eV)
   111     111      2.000     -13.085 au  Pa            1.00      1 F:xyz           1
                        (    -356.050 eV)
   112     112      0.286      -0.042 au  Pa            1.00      2 F:xyz           1
                        (      -1.139 eV)
   113     113       --         0.419 au  Pa            1.00      3 F:xyz           1
                        (      11.400 eV)
   114     114       --         2.553 au  Pa            1.00      4 F:xyz           1
                        (      69.470 eV)
   115     115       --        21.603 au  Pa            1.00      5 F:xyz           1
                        (     587.835 eV)
   116     116      2.000     -13.085 au  Pa            1.00      1 F:z2x           1
                        (    -356.050 eV)
   117     117      0.286      -0.042 au  Pa            1.00      2 F:z2x           1
                        (      -1.139 eV)
   118     118       --         0.419 au  Pa            1.00      3 F:z2x           1
                        (      11.400 eV)
   119     119       --         2.553 au  Pa            1.00      4 F:z2x           1
                        (      69.470 eV)
   120     120       --        21.603 au  Pa            1.00      5 F:z2x           1
                        (     587.835 eV)
   121     121      2.000     -13.085 au  Pa            1.00      1 F:z2y           1
                        (    -356.050 eV)
   122     122      0.286      -0.042 au  Pa            1.00      2 F:z2y           1
                        (      -1.139 eV)
   123     123       --         0.419 au  Pa            1.00      3 F:z2y           1
                        (      11.400 eV)
   124     124       --         2.553 au  Pa            1.00      4 F:z2y           1
                        (      69.470 eV)
   125     125       --        21.603 au  Pa            1.00      5 F:z2y           1
                        (     587.835 eV)
   126     126      2.000     -13.085 au  Pa            1.00      1 F:x             1
                        (    -356.050 eV)
   127     127      0.286      -0.042 au  Pa            1.00      2 F:x             1
                        (      -1.139 eV)
   128     128       --         0.419 au  Pa            1.00      3 F:x             1
                        (      11.400 eV)
   129     129       --         2.553 au  Pa            1.00      4 F:x             1
                        (      69.470 eV)
   130     130       --        21.603 au  Pa            1.00      5 F:x             1
                        (     587.835 eV)
   131     131      2.000     -13.085 au  Pa            1.00      1 F:y             1
                        (    -356.050 eV)
   132     132      0.286      -0.042 au  Pa            1.00      2 F:y             1
                        (      -1.139 eV)
   133     133       --         0.419 au  Pa            1.00      3 F:y             1
                        (      11.400 eV)
   134     134       --         2.553 au  Pa            1.00      4 F:y             1
                        (      69.470 eV)
   135     135       --        21.603 au  Pa            1.00      5 F:y             1
                        (     587.835 eV)
   136     136      2.000     -24.815 au  F             1.00      1 S               2
                        (    -675.259 eV)
   137     137      2.000      -1.207 au  F             1.00      2 S               2
                        (     -32.842 eV)
   138     138       --         0.041 au  F             1.00      3 S               2
                        (       1.110 eV)
   139     139       --         1.641 au  F             1.00      4 S               2
                        (      44.667 eV)
   140     140       --        48.225 au  F             1.00      5 S               2
                        (    1312.256 eV)
   141     141      1.667      -0.462 au  F             1.00      1 P:x             2
                        (     -12.571 eV)
   142     142       --         0.465 au  F             1.00      2 P:x             2
                        (      12.666 eV)
   143     143       --         4.685 au  F             1.00      3 P:x             2
                        (     127.482 eV)
   144     144      1.667      -0.462 au  F             1.00      1 P:y             2
                        (     -12.571 eV)
   145     145       --         0.465 au  F             1.00      2 P:y             2
                        (      12.666 eV)
   146     146       --         4.685 au  F             1.00      3 P:y             2
                        (     127.482 eV)
   147     147      1.667      -0.462 au  F             1.00      1 P:z             2
                        (     -12.571 eV)
   148     148       --         0.465 au  F             1.00      2 P:z             2
                        (      12.666 eV)
   149     149       --         4.685 au  F             1.00      3 P:z             2
                        (     127.482 eV)
   150     150       --         1.165 au  F             1.00      1 D:z2            2
                        (      31.709 eV)
   151     151       --         1.165 au  F             1.00      1 D:x2-y2         2
                        (      31.709 eV)
   152     152       --         1.165 au  F             1.00      1 D:xy            2
                        (      31.709 eV)
   153     153       --         1.165 au  F             1.00      1 D:xz            2
                        (      31.709 eV)
   154     154       --         1.165 au  F             1.00      1 D:yz            2
                        (      31.709 eV)
   155     155       --         3.493 au  F             1.00      1 F:z3            2
                        (      95.037 eV)
   156     156       --         3.493 au  F             1.00      1 F:z             2
                        (      95.037 eV)
   157     157       --         3.493 au  F             1.00      1 F:xyz           2
                        (      95.037 eV)
   158     158       --         3.493 au  F             1.00      1 F:z2x           2
                        (      95.037 eV)
   159     159       --         3.493 au  F             1.00      1 F:z2y           2
                        (      95.037 eV)
   160     160       --         3.493 au  F             1.00      1 F:x             2
                        (      95.037 eV)
   161     161       --         3.493 au  F             1.00      1 F:y             2
                        (      95.037 eV)
   162     162      1.000      -0.244 au  H             1.00      1 S               3
                        (      -6.641 eV)
   163     163       --         0.104 au  H             1.00      2 S               3
                        (       2.836 eV)
   164     164       --         1.564 au  H             1.00      3 S               3
                        (      42.560 eV)
   165     165       --         0.436 au  H             1.00      1 P:x             3
                        (      11.864 eV)
   166     166       --         0.436 au  H             1.00      1 P:y             3
                        (      11.864 eV)
   167     167       --         0.436 au  H             1.00      1 P:z             3
                        (      11.864 eV)
   168     168       --         2.617 au  H             1.00      1 D:z2            3
                        (      71.221 eV)
   169     169       --         2.617 au  H             1.00      1 D:x2-y2         3
                        (      71.221 eV)
   170     170       --         2.617 au  H             1.00      1 D:xy            3
                        (      71.221 eV)
   171     171       --         2.617 au  H             1.00      1 D:xz            3
                        (      71.221 eV)
   172     172       --         2.617 au  H             1.00      1 D:yz            3
                        (      71.221 eV)
   173     173      1.000      -0.244 au  H             1.00      1 S               4
                        (      -6.641 eV)
   174     174       --         0.104 au  H             1.00      2 S               4
                        (       2.836 eV)
   175     175       --         1.564 au  H             1.00      3 S               4
                        (      42.560 eV)
   176     176       --         0.436 au  H             1.00      1 P:x             4
                        (      11.864 eV)
   177     177       --         0.436 au  H             1.00      1 P:y             4
                        (      11.864 eV)
   178     178       --         0.436 au  H             1.00      1 P:z             4
                        (      11.864 eV)
   179     179       --         2.617 au  H             1.00      1 D:z2            4
                        (      71.221 eV)
   180     180       --         2.617 au  H             1.00      1 D:x2-y2         4
                        (      71.221 eV)
   181     181       --         2.617 au  H             1.00      1 D:xy            4
                        (      71.221 eV)
   182     182       --         2.617 au  H             1.00      1 D:xz            4
                        (      71.221 eV)
   183     183       --         2.617 au  H             1.00      1 D:yz            4
                        (      71.221 eV)
   184     184      1.000      -0.244 au  H             1.00      1 S               5
                        (      -6.641 eV)
   185     185       --         0.104 au  H             1.00      2 S               5
                        (       2.836 eV)
   186     186       --         1.564 au  H             1.00      3 S               5
                        (      42.560 eV)
   187     187       --         0.436 au  H             1.00      1 P:x             5
                        (      11.864 eV)
   188     188       --         0.436 au  H             1.00      1 P:y             5
                        (      11.864 eV)
   189     189       --         0.436 au  H             1.00      1 P:z             5
                        (      11.864 eV)
   190     190       --         2.617 au  H             1.00      1 D:z2            5
                        (      71.221 eV)
   191     191       --         2.617 au  H             1.00      1 D:x2-y2         5
                        (      71.221 eV)
   192     192       --         2.617 au  H             1.00      1 D:xy            5
                        (      71.221 eV)
   193     193       --         2.617 au  H             1.00      1 D:xz            5
                        (      71.221 eV)
   194     194       --         2.617 au  H             1.00      1 D:yz            5
                        (      71.221 eV)
   195     195      1.000      -0.244 au  H             1.00      1 S               6
                        (      -6.641 eV)
   196     196       --         0.104 au  H             1.00      2 S               6
                        (       2.836 eV)
   197     197       --         1.564 au  H             1.00      3 S               6
                        (      42.560 eV)
   198     198       --         0.436 au  H             1.00      1 P:x             6
                        (      11.864 eV)
   199     199       --         0.436 au  H             1.00      1 P:y             6
                        (      11.864 eV)
   200     200       --         0.436 au  H             1.00      1 P:z             6
                        (      11.864 eV)
   201     201       --         2.617 au  H             1.00      1 D:z2            6
                        (      71.221 eV)
   202     202       --         2.617 au  H             1.00      1 D:x2-y2         6
                        (      71.221 eV)
   203     203       --         2.617 au  H             1.00      1 D:xy            6
                        (      71.221 eV)
   204     204       --         2.617 au  H             1.00      1 D:xz            6
                        (      71.221 eV)
   205     205       --         2.617 au  H             1.00      1 D:yz            6
                        (      71.221 eV)
   206     206      2.000     -19.315 au  O             1.00      1 S               7
                        (    -525.599 eV)
   207     207      2.000      -0.972 au  O             1.00      2 S               7
                        (     -26.457 eV)
   208     208       --         0.838 au  O             1.00      3 S               7
                        (      22.795 eV)
   209     209       --        13.598 au  O             1.00      4 S               7
                        (     370.019 eV)
   210     210       --       122.184 au  O             1.00      5 S               7
                        (    3324.790 eV)
   211     211      1.333      -0.361 au  O             1.00      1 P:x             7
                        (      -9.818 eV)
   212     212       --         0.380 au  O             1.00      2 P:x             7
                        (      10.337 eV)
   213     213       --         3.931 au  O             1.00      3 P:x             7
                        (     106.958 eV)
   214     214      1.333      -0.361 au  O             1.00      1 P:y             7
                        (      -9.818 eV)
   215     215       --         0.380 au  O             1.00      2 P:y             7
                        (      10.337 eV)
   216     216       --         3.931 au  O             1.00      3 P:y             7
                        (     106.958 eV)
   217     217      1.333      -0.361 au  O             1.00      1 P:z             7
                        (      -9.818 eV)
   218     218       --         0.380 au  O             1.00      2 P:z             7
                        (      10.337 eV)
   219     219       --         3.931 au  O             1.00      3 P:z             7
                        (     106.958 eV)
   220     220       --         1.117 au  O             1.00      1 D:z2            7
                        (      30.399 eV)
   221     221       --         1.117 au  O             1.00      1 D:x2-y2         7
                        (      30.399 eV)
   222     222       --         1.117 au  O             1.00      1 D:xy            7
                        (      30.399 eV)
   223     223       --         1.117 au  O             1.00      1 D:xz            7
                        (      30.399 eV)
   224     224       --         1.117 au  O             1.00      1 D:yz            7
                        (      30.399 eV)
   225     225       --         3.432 au  O             1.00      1 F:z3            7
                        (      93.382 eV)
   226     226       --         3.432 au  O             1.00      1 F:z             7
                        (      93.382 eV)
   227     227       --         3.432 au  O             1.00      1 F:xyz           7
                        (      93.382 eV)
   228     228       --         3.432 au  O             1.00      1 F:z2x           7
                        (      93.382 eV)
   229     229       --         3.432 au  O             1.00      1 F:z2y           7
                        (      93.382 eV)
   230     230       --         3.432 au  O             1.00      1 F:x             7
                        (      93.382 eV)
   231     231       --         3.432 au  O             1.00      1 F:y             7
                        (      93.382 eV)
   232     232      2.000     -19.315 au  O             1.00      1 S               8
                        (    -525.599 eV)
   233     233      2.000      -0.972 au  O             1.00      2 S               8
                        (     -26.457 eV)
   234     234       --         0.838 au  O             1.00      3 S               8
                        (      22.795 eV)
   235     235       --        13.598 au  O             1.00      4 S               8
                        (     370.019 eV)
   236     236       --       122.184 au  O             1.00      5 S               8
                        (    3324.790 eV)
   237     237      1.333      -0.361 au  O             1.00      1 P:x             8
                        (      -9.818 eV)
   238     238       --         0.380 au  O             1.00      2 P:x             8
                        (      10.337 eV)
   239     239       --         3.931 au  O             1.00      3 P:x             8
                        (     106.958 eV)
   240     240      1.333      -0.361 au  O             1.00      1 P:y             8
                        (      -9.818 eV)
   241     241       --         0.380 au  O             1.00      2 P:y             8
                        (      10.337 eV)
   242     242       --         3.931 au  O             1.00      3 P:y             8
                        (     106.958 eV)
   243     243      1.333      -0.361 au  O             1.00      1 P:z             8
                        (      -9.818 eV)
   244     244       --         0.380 au  O             1.00      2 P:z             8
                        (      10.337 eV)
   245     245       --         3.931 au  O             1.00      3 P:z             8
                        (     106.958 eV)
   246     246       --         1.117 au  O             1.00      1 D:z2            8
                        (      30.399 eV)
   247     247       --         1.117 au  O             1.00      1 D:x2-y2         8
                        (      30.399 eV)
   248     248       --         1.117 au  O             1.00      1 D:xy            8
                        (      30.399 eV)
   249     249       --         1.117 au  O             1.00      1 D:xz            8
                        (      30.399 eV)
   250     250       --         1.117 au  O             1.00      1 D:yz            8
                        (      30.399 eV)
   251     251       --         3.432 au  O             1.00      1 F:z3            8
                        (      93.382 eV)
   252     252       --         3.432 au  O             1.00      1 F:z             8
                        (      93.382 eV)
   253     253       --         3.432 au  O             1.00      1 F:xyz           8
                        (      93.382 eV)
   254     254       --         3.432 au  O             1.00      1 F:z2x           8
                        (      93.382 eV)
   255     255       --         3.432 au  O             1.00      1 F:z2y           8
                        (      93.382 eV)
   256     256       --         3.432 au  O             1.00      1 F:x             8
                        (      93.382 eV)
   257     257       --         3.432 au  O             1.00      1 F:y             8
                        (      93.382 eV)
   258     258      2.000     -19.315 au  O             1.00      1 S               9
                        (    -525.599 eV)
   259     259      2.000      -0.972 au  O             1.00      2 S               9
                        (     -26.457 eV)
   260     260       --         0.838 au  O             1.00      3 S               9
                        (      22.795 eV)
   261     261       --        13.598 au  O             1.00      4 S               9
                        (     370.019 eV)
   262     262       --       122.184 au  O             1.00      5 S               9
                        (    3324.790 eV)
   263     263      1.333      -0.361 au  O             1.00      1 P:x             9
                        (      -9.818 eV)
   264     264       --         0.380 au  O             1.00      2 P:x             9
                        (      10.337 eV)
   265     265       --         3.931 au  O             1.00      3 P:x             9
                        (     106.958 eV)
   266     266      1.333      -0.361 au  O             1.00      1 P:y             9
                        (      -9.818 eV)
   267     267       --         0.380 au  O             1.00      2 P:y             9
                        (      10.337 eV)
   268     268       --         3.931 au  O             1.00      3 P:y             9
                        (     106.958 eV)
   269     269      1.333      -0.361 au  O             1.00      1 P:z             9
                        (      -9.818 eV)
   270     270       --         0.380 au  O             1.00      2 P:z             9
                        (      10.337 eV)
   271     271       --         3.931 au  O             1.00      3 P:z             9
                        (     106.958 eV)
   272     272       --         1.117 au  O             1.00      1 D:z2            9
                        (      30.399 eV)
   273     273       --         1.117 au  O             1.00      1 D:x2-y2         9
                        (      30.399 eV)
   274     274       --         1.117 au  O             1.00      1 D:xy            9
                        (      30.399 eV)
   275     275       --         1.117 au  O             1.00      1 D:xz            9
                        (      30.399 eV)
   276     276       --         1.117 au  O             1.00      1 D:yz            9
                        (      30.399 eV)
   277     277       --         3.432 au  O             1.00      1 F:z3            9
                        (      93.382 eV)
   278     278       --         3.432 au  O             1.00      1 F:z             9
                        (      93.382 eV)
   279     279       --         3.432 au  O             1.00      1 F:xyz           9
                        (      93.382 eV)
   280     280       --         3.432 au  O             1.00      1 F:z2x           9
                        (      93.382 eV)
   281     281       --         3.432 au  O             1.00      1 F:z2y           9
                        (      93.382 eV)
   282     282       --         3.432 au  O             1.00      1 F:x             9
                        (      93.382 eV)
   283     283       --         3.432 au  O             1.00      1 F:y             9
                        (      93.382 eV)
   284     284      2.000     -19.315 au  O             1.00      1 S              10
                        (    -525.599 eV)
   285     285      2.000      -0.972 au  O             1.00      2 S              10
                        (     -26.457 eV)
   286     286       --         0.838 au  O             1.00      3 S              10
                        (      22.795 eV)
   287     287       --        13.598 au  O             1.00      4 S              10
                        (     370.019 eV)
   288     288       --       122.184 au  O             1.00      5 S              10
                        (    3324.790 eV)
   289     289      1.333      -0.361 au  O             1.00      1 P:x            10
                        (      -9.818 eV)
   290     290       --         0.380 au  O             1.00      2 P:x            10
                        (      10.337 eV)
   291     291       --         3.931 au  O             1.00      3 P:x            10
                        (     106.958 eV)
   292     292      1.333      -0.361 au  O             1.00      1 P:y            10
                        (      -9.818 eV)
   293     293       --         0.380 au  O             1.00      2 P:y            10
                        (      10.337 eV)
   294     294       --         3.931 au  O             1.00      3 P:y            10
                        (     106.958 eV)
   295     295      1.333      -0.361 au  O             1.00      1 P:z            10
                        (      -9.818 eV)
   296     296       --         0.380 au  O             1.00      2 P:z            10
                        (      10.337 eV)
   297     297       --         3.931 au  O             1.00      3 P:z            10
                        (     106.958 eV)
   298     298       --         1.117 au  O             1.00      1 D:z2           10
                        (      30.399 eV)
   299     299       --         1.117 au  O             1.00      1 D:x2-y2        10
                        (      30.399 eV)
   300     300       --         1.117 au  O             1.00      1 D:xy           10
                        (      30.399 eV)
   301     301       --         1.117 au  O             1.00      1 D:xz           10
                        (      30.399 eV)
   302     302       --         1.117 au  O             1.00      1 D:yz           10
                        (      30.399 eV)
   303     303       --         3.432 au  O             1.00      1 F:z3           10
                        (      93.382 eV)
   304     304       --         3.432 au  O             1.00      1 F:z            10
                        (      93.382 eV)
   305     305       --         3.432 au  O             1.00      1 F:xyz          10
                        (      93.382 eV)
   306     306       --         3.432 au  O             1.00      1 F:z2x          10
                        (      93.382 eV)
   307     307       --         3.432 au  O             1.00      1 F:z2y          10
                        (      93.382 eV)
   308     308       --         3.432 au  O             1.00      1 F:x            10
                        (      93.382 eV)
   309     309       --         3.432 au  O             1.00      1 F:y            10
                        (      93.382 eV)



 ================================
 (Slater-type)  F U N C T I O N S  ***  (Basis and Fit)  ***
 ================================
  

 Atom Type    1  (Pa)
 ==============

 Valence Basis Sets:  43
 -----------------------
   1 S 1028.000000
   1 S  240.000000
   1 S  107.000000
   2 S  131.500000
   2 S   46.500000
   3 S   59.100000
   3 S   25.450000
   4 S   15.550000
   4 S   11.050000
   5 S   10.200000
   5 S    7.100000
   6 S    4.950000
   6 S    3.250000
   7 S    2.350000
   7 S    1.550000
   7 S    1.020000
   2 P  240.000000
   2 P   84.000000
   2 P   43.600000
   3 P   24.750000
   3 P   17.850000
   4 P   17.650000
   4 P   12.100000
   5 P    8.500000
   5 P    5.900000
   6 P    4.400000
   6 P    3.000000
   6 P    2.100000
   3 D   33.750000
   3 D   21.750000
   4 D   15.300000
   4 D   10.450000
   5 D    7.150000
   5 D    4.600000
   6 D    3.000000
   6 D    1.700000
   6 D    0.980000
   4 F   17.100000
   4 F    9.350000
   5 F    5.850000
   5 F    3.150000
   5 F    1.550000
   7 P    1.550000

 Charge Fitting Sets (for the computation of the Coulomb Potential):  87
 -----------------------------------------------------------------------
   1 S 2056.000000
   1 S 1549.519000
   1 S 1167.806000
   1 S  880.126000
   1 S  663.313000
   1 S  499.911000
   1 S  376.761000
   1 S  283.949000
   1 S  214.000000
   1 S  127.280000
   2 S  140.220000
   2 S   93.850000
   3 S   92.230000
   3 S   65.710000
   4 S   61.900000
   4 S   45.910000
   5 S   42.420000
   5 S   32.370000
   6 S   29.610000
   6 S   23.090000
   7 S   21.000000
   7 S   16.670000
   8 S   15.120000
   8 S   12.170000
   9 S   11.020000
   9 S    8.970000
  10 S    8.120000
  10 S    6.680000
  11 S    6.050000
  11 S    5.020000
  12 S    4.550000
  12 S    3.800000
  12 S    3.180000
  13 S    2.880000
  13 S    2.420000
  13 S    2.040000
   2 P  150.600000
   3 P  125.870000
   4 P  103.260000
   5 P   84.350000
   6 P   68.960000
   7 P   56.560000
   7 P   40.600000
   8 P   33.430000
   8 P   24.490000
   9 P   20.250000
   9 P   15.090000
  10 P   12.530000
  10 P    9.470000
  11 P    7.900000
  11 P    6.040000
  12 P    5.060000
  12 P    3.910000
  13 P    3.290000
  13 P    2.570000
   3 D  128.750000
   4 D   91.090000
   5 D   65.210000
   6 D   47.270000
   7 D   34.690000
   8 D   25.740000
   9 D   19.290000
   9 D   13.060000
  10 D    9.880000
  10 D    6.820000
  11 D    5.210000
  11 D    3.650000
  12 D    2.810000
  12 D    2.000000
   4 F  116.350000
   5 F   72.360000
   6 F   46.140000
   7 F   30.070000
   8 F   19.970000
   9 F   13.480000
  10 F    9.240000
  10 F    5.790000
  11 F    4.020000
  11 F    2.570000
   5 G   52.950000
   6 G   31.380000
   7 G   19.110000
   8 G   11.920000
   9 G    7.580000
  10 G    4.910000
  11 G    3.230000
  11 G    1.960000

 Atom Type    2  (F)
 ==============

 Valence Basis Sets:  10
 -----------------------
   1 S   10.880000
   1 S    7.700000
   2 S    3.240000
   2 S    1.940000
   2 S    0.740000
   2 P    4.540000
   2 P    2.300000
   2 P    1.240000
   3 D    2.000000
   4 F    3.000000

 Charge Fitting Sets (for the computation of the Coulomb Potential):  23
 -----------------------------------------------------------------------
   1 S   21.760000
   2 S   24.390000
   2 S   16.560000
   2 S   11.240000
   2 S    7.630000
   3 S    7.600000
   3 S    5.480000
   3 S    3.950000
   3 S    2.850000
   3 S    2.050000
   3 S    1.480000
   2 P   14.400000
   2 P    7.530000
   3 P    5.900000
   3 P    3.420000
   3 P    1.980000
   3 D    9.700000
   3 D    6.160000
   3 D    3.910000
   3 D    2.480000
   4 F    6.500000
   4 F    3.750000
   5 G    4.500000

 Atom Type    3  (H)
 ==============

 Valence Basis Sets:   5
 -----------------------
   1 S    0.690000
   1 S    0.920000
   1 S    1.580000
   2 P    1.250000
   3 D    2.500000

 Charge Fitting Sets (for the computation of the Coulomb Potential):  11
 -----------------------------------------------------------------------
   1 S    3.160000
   1 S    2.090000
   1 S    1.380000
   2 S    1.500000
   2 P    4.000000
   2 P    2.650000
   2 P    1.750000
   3 D    4.000000
   3 D    2.500000
   4 F    3.000000
   5 G    4.000000

 Atom Type    4  (O)
 ==============

 Valence Basis Sets:  10
 -----------------------
   1 S    9.800000
   1 S    6.800000
   2 S    7.580000
   2 S    2.880000
   2 S    1.720000
   2 P    4.080000
   2 P    2.080000
   2 P    1.120000
   3 D    2.000000
   4 F    3.000000

 Charge Fitting Sets (for the computation of the Coulomb Potential):  22
 -----------------------------------------------------------------------
   1 S   19.600000
   2 S   22.600000
   2 S   15.680000
   2 S   10.890000
   2 S    7.560000
   3 S    7.690000
   3 S    5.650000
   3 S    4.150000
   3 S    3.050000
   3 S    2.240000
   2 P   12.860000
   2 P    7.680000
   3 P    6.780000
   3 P    4.390000
   3 P    2.840000
   3 D    8.800000
   3 D    5.580000
   3 D    3.530000
   3 D    2.240000
   4 F    6.200000
   4 F    3.700000
   5 G    4.500000


 BAS: List of all Elementary Cartesian Basis Functions
 =====================================================

 The numbering in the list below (to the right of the function characteristics) is referred
 to in print-outs of MO eigenvectors and Mulliken populations in the BAS representation
 (as contrasted to the SFO representation).

 Notes:
 1. The functions are characterized by a polynomial prefactor (powers of x,y,z and r) and
    an exponential decay factor alpha.
 2. Since the basis sets are specific for an atom TYPE, the individual functions occur on
    all atoms of that type.
 3. The word 'Core' in the left margin signals that it is a Core Function (CF) : not a
    degree of freedom in the valence set, but only used to ensure orthogonalization of
    the other valence basis functions on the frozen Core Orbitals.


 (power of) X  Y  Z  R     Alpha  on Atom
            ==========     =====     ==========

 Pa                                   1
                                  ---------------------------------------------------------------------------
            0  0  0  0  1028.000      1
            0  0  0  0   240.000      2
            0  0  0  0   107.000      3
            0  0  0  1   131.500      4
            0  0  0  1    46.500      5
            0  0  0  2    59.100      6
            0  0  0  2    25.450      7
            0  0  0  3    15.550      8
            0  0  0  3    11.050      9
            0  0  0  4    10.200     10
            0  0  0  4     7.100     11
            0  0  0  5     4.950     12
            0  0  0  5     3.250     13
            0  0  0  6     2.350     14
            0  0  0  6     1.550     15
            0  0  0  6     1.020     16
            1  0  0  0   240.000     17
            0  1  0  0   240.000     18
            0  0  1  0   240.000     19
            1  0  0  0    84.000     20
            0  1  0  0    84.000     21
            0  0  1  0    84.000     22
            1  0  0  0    43.600     23
            0  1  0  0    43.600     24
            0  0  1  0    43.600     25
            1  0  0  1    24.750     26
            0  1  0  1    24.750     27
            0  0  1  1    24.750     28
            1  0  0  1    17.850     29
            0  1  0  1    17.850     30
            0  0  1  1    17.850     31
            1  0  0  2    17.650     32
            0  1  0  2    17.650     33
            0  0  1  2    17.650     34
            1  0  0  2    12.100     35
            0  1  0  2    12.100     36
            0  0  1  2    12.100     37
            1  0  0  3     8.500     38
            0  1  0  3     8.500     39
            0  0  1  3     8.500     40
            1  0  0  3     5.900     41
            0  1  0  3     5.900     42
            0  0  1  3     5.900     43
            1  0  0  4     4.400     44
            0  1  0  4     4.400     45
            0  0  1  4     4.400     46
            1  0  0  4     3.000     47
            0  1  0  4     3.000     48
            0  0  1  4     3.000     49
            1  0  0  4     2.100     50
            0  1  0  4     2.100     51
            0  0  1  4     2.100     52
            2  0  0  0    33.750     53
            1  1  0  0    33.750     54
            1  0  1  0    33.750     55
            0  2  0  0    33.750     56
            0  1  1  0    33.750     57
            0  0  2  0    33.750     58
            2  0  0  0    21.750     59
            1  1  0  0    21.750     60
            1  0  1  0    21.750     61
            0  2  0  0    21.750     62
            0  1  1  0    21.750     63
            0  0  2  0    21.750     64
            2  0  0  1    15.300     65
            1  1  0  1    15.300     66
            1  0  1  1    15.300     67
            0  2  0  1    15.300     68
            0  1  1  1    15.300     69
            0  0  2  1    15.300     70
            2  0  0  1    10.450     71
            1  1  0  1    10.450     72
            1  0  1  1    10.450     73
            0  2  0  1    10.450     74
            0  1  1  1    10.450     75
            0  0  2  1    10.450     76
            2  0  0  2     7.150     77
            1  1  0  2     7.150     78
            1  0  1  2     7.150     79
            0  2  0  2     7.150     80
            0  1  1  2     7.150     81
            0  0  2  2     7.150     82
            2  0  0  2     4.600     83
            1  1  0  2     4.600     84
            1  0  1  2     4.600     85
            0  2  0  2     4.600     86
            0  1  1  2     4.600     87
            0  0  2  2     4.600     88
            2  0  0  3     3.000     89
            1  1  0  3     3.000     90
            1  0  1  3     3.000     91
            0  2  0  3     3.000     92
            0  1  1  3     3.000     93
            0  0  2  3     3.000     94
            2  0  0  3     1.700     95
            1  1  0  3     1.700     96
            1  0  1  3     1.700     97
            0  2  0  3     1.700     98
            0  1  1  3     1.700     99
            0  0  2  3     1.700    100
            2  0  0  3     0.980    101
            1  1  0  3     0.980    102
            1  0  1  3     0.980    103
            0  2  0  3     0.980    104
            0  1  1  3     0.980    105
            0  0  2  3     0.980    106
            3  0  0  0    17.100    107
            2  1  0  0    17.100    108
            2  0  1  0    17.100    109
            1  2  0  0    17.100    110
            1  1  1  0    17.100    111
            1  0  2  0    17.100    112
            0  3  0  0    17.100    113
            0  2  1  0    17.100    114
            0  1  2  0    17.100    115
            0  0  3  0    17.100    116
            3  0  0  0     9.350    117
            2  1  0  0     9.350    118
            2  0  1  0     9.350    119
            1  2  0  0     9.350    120
            1  1  1  0     9.350    121
            1  0  2  0     9.350    122
            0  3  0  0     9.350    123
            0  2  1  0     9.350    124
            0  1  2  0     9.350    125
            0  0  3  0     9.350    126
            3  0  0  1     5.850    127
            2  1  0  1     5.850    128
            2  0  1  1     5.850    129
            1  2  0  1     5.850    130
            1  1  1  1     5.850    131
            1  0  2  1     5.850    132
            0  3  0  1     5.850    133
            0  2  1  1     5.850    134
            0  1  2  1     5.850    135
            0  0  3  1     5.850    136
            3  0  0  1     3.150    137
            2  1  0  1     3.150    138
            2  0  1  1     3.150    139
            1  2  0  1     3.150    140
            1  1  1  1     3.150    141
            1  0  2  1     3.150    142
            0  3  0  1     3.150    143
            0  2  1  1     3.150    144
            0  1  2  1     3.150    145
            0  0  3  1     3.150    146
            3  0  0  1     1.550    147
            2  1  0  1     1.550    148
            2  0  1  1     1.550    149
            1  2  0  1     1.550    150
            1  1  1  1     1.550    151
            1  0  2  1     1.550    152
            0  3  0  1     1.550    153
            0  2  1  1     1.550    154
            0  1  2  1     1.550    155
            0  0  3  1     1.550    156
            1  0  0  5     1.550    157
            0  1  0  5     1.550    158
            0  0  1  5     1.550    159

 F                                    2
                                  ---------------------------------------------------------------------------
            0  0  0  0    10.880    160
            0  0  0  0     7.700    161
            0  0  0  1     3.240    162
            0  0  0  1     1.940    163
            0  0  0  1     0.740    164
            1  0  0  0     4.540    165
            0  1  0  0     4.540    166
            0  0  1  0     4.540    167
            1  0  0  0     2.300    168
            0  1  0  0     2.300    169
            0  0  1  0     2.300    170
            1  0  0  0     1.240    171
            0  1  0  0     1.240    172
            0  0  1  0     1.240    173
            2  0  0  0     2.000    174
            1  1  0  0     2.000    175
            1  0  1  0     2.000    176
            0  2  0  0     2.000    177
            0  1  1  0     2.000    178
            0  0  2  0     2.000    179
            3  0  0  0     3.000    180
            2  1  0  0     3.000    181
            2  0  1  0     3.000    182
            1  2  0  0     3.000    183
            1  1  1  0     3.000    184
            1  0  2  0     3.000    185
            0  3  0  0     3.000    186
            0  2  1  0     3.000    187
            0  1  2  0     3.000    188
            0  0  3  0     3.000    189

 H                                    3    4    5    6
                                  ---------------------------------------------------------------------------
            0  0  0  0     0.690    190  202  214  226
            0  0  0  0     0.920    191  203  215  227
            0  0  0  0     1.580    192  204  216  228
            1  0  0  0     1.250    193  205  217  229
            0  1  0  0     1.250    194  206  218  230
            0  0  1  0     1.250    195  207  219  231
            2  0  0  0     2.500    196  208  220  232
            1  1  0  0     2.500    197  209  221  233
            1  0  1  0     2.500    198  210  222  234
            0  2  0  0     2.500    199  211  223  235
            0  1  1  0     2.500    200  212  224  236
            0  0  2  0     2.500    201  213  225  237

 O                                    7    8    9   10
                                  ---------------------------------------------------------------------------
            0  0  0  0     9.800    238  268  298  328
            0  0  0  0     6.800    239  269  299  329
            0  0  0  1     7.580    240  270  300  330
            0  0  0  1     2.880    241  271  301  331
            0  0  0  1     1.720    242  272  302  332
            1  0  0  0     4.080    243  273  303  333
            0  1  0  0     4.080    244  274  304  334
            0  0  1  0     4.080    245  275  305  335
            1  0  0  0     2.080    246  276  306  336
            0  1  0  0     2.080    247  277  307  337
            0  0  1  0     2.080    248  278  308  338
            1  0  0  0     1.120    249  279  309  339
            0  1  0  0     1.120    250  280  310  340
            0  0  1  0     1.120    251  281  311  341
            2  0  0  0     2.000    252  282  312  342
            1  1  0  0     2.000    253  283  313  343
            1  0  1  0     2.000    254  284  314  344
            0  2  0  0     2.000    255  285  315  345
            0  1  1  0     2.000    256  286  316  346
            0  0  2  0     2.000    257  287  317  347
            3  0  0  0     3.000    258  288  318  348
            2  1  0  0     3.000    259  289  319  349
            2  0  1  0     3.000    260  290  320  350
            1  2  0  0     3.000    261  291  321  351
            1  1  1  0     3.000    262  292  322  352
            1  0  2  0     3.000    263  293  323  353
            0  3  0  0     3.000    264  294  324  354
            0  2  1  0     3.000    265  295  325  355
            0  1  2  0     3.000    266  296  326  356
            0  0  3  0     3.000    267  297  327  357

 Total number of charge fitting functions (nprimf)      1018
 Total number of Cartesian basis functions (naos)        357
 Total number of Cartesian core functions  (ncos)          0

1
 ***************************************************************************************************



                                              ***********************
                                              *  T E C H N I C A L  *
                                              ***********************
  



 =============================================================
 P A R A L L E L I Z A T I O N  and  V E C T O R I Z A T I O N
 =============================================================
  
 Nr of parallel processes:                                8
 Maximum vector length in NumInt loops:                 128



 =====================
 S C F   U P D A T E S
 =====================
  
 Max. nr. of cycles:                               300
 Convergence criterion:                              0.0000010000
   secondary criterion:                              0.0010000000

 Mix parameter (when DIIS does not apply):           0.2000000000
 Mixed ADIIS+SDIIS will be used                  
    Max number of expansion vectors:                10
    Pure ADIIS when Max([F,P]) is above              0.1000000000
    Pure SDIIS when Max([F,P]) is below              0.0010000000
 Automatic ElectronSmearing (in case of problematic SCF convergence) disabled



 =================
 P R E C I S I O N  ***  (General: NumInt, NeglectFunctionTails, ...)  ***
 =================
  

 NumInt:           Target precision:                 6.0000000000
 -------           Initial precision:                6.0000000000
                   Min. precision (optimization):    6.0000000000

 Neglect Functions:          Basis functions:        0.1000000000E-07
 ------------------          Fit functions:          0.1000000000E-07



 ===========================
 L I N E A R   S C A L I N G
 ===========================
  

 Cut-off radii density fit:                        0.1000000000E-09
 Overlap cut-off criterion AO matrix elements:     0.1000000000E-07
 Cut-offs for Coulomb potential and fitted density:0.1000000000E-09
 Cut-off criterion for Coulomb multipole terms:    0.1000000000E-09
 Progressive Convergence parameter:                 0.000000000    
1
 ***************************************************************************************************



                                            ***************************
                                            *  C O M P U T A T I O N  *
                                            ***************************
  



 ==============================
 Double group spinor symmetries  ***  (Spin-Orbit)  ***
 ==============================
  

 The double group Lowdins are spinors adapted to the irreducible representations
 of the double group. These double group Lowdins are linear combinations of
 products of the single group Lowdins and the spinfunctions. The single group
 Lowdins are  orthonormalized symmetrized fragment orbitals (SFOs).
 The complex coefficients that are used in the linear combinations are also
 known as Clebsch-Gordan coefficients.
 The spin functions (alpha,beta) span irrep e1/2


          A * e 1/2 :      A1/2

  A1/2:1 = A.alpha
  A1/2:1 = A.beta

 The table summarizes which one-electron orbital irreps (single group) couple
 with spin to which spinor irreps (double group).
 The Clebsch-Gordan series for each direct product: orbital irrep times e1/2.
                  A
            -------
  A1/2           X


 dimension (equal to the max. nr. of electrons per spinor) of the double group irreps
 ------------------------------------------------------------------------------------
  A1/2           1

 Number of elements of the density matrix on this node (used, total):     12720     63903



 ===========================================
 Numerical Integration : Fuzzy Cells (Becke)
 ===========================================
  
 Becke grid quality: GOOD           
  
 Lebedev angular grid order:             min:  11 max:  35
 Nr. of radial points:                   min:  54 max: 196

 Total nr. of points:     161533
 Nr. of blocks:             1262
 Block length:               128
 Nr. of dummy points:          3


 Test of Precision of the Numerical Integration Grid
 ===================================================

 Integral of the Total Core Density:                   0.00000000000000



 ========================
 Density Fitting (zlmFit)
 ========================
  
 ZlmFit Fit Quality: GOOD           
  
 Max L-expansion:                        min:   8 max:  10
 Nr. of radial interpolation points:     min:  78 max: 324



 ======================
 RI Hartree-Fock Scheme
 ======================
  
 Fit Set Quality     : GOOD
 Threshold Quality   : GOOD
 Integration Quality : GOOD
 Fit Generation Method : AUTO
 Response Quality    : DEFAULT
 Is Range Separated  :  F
 
 RIHartreeFock Dependency: number of modified vectors:           4



 =====
 S C F  ***  ScaSCF  ***
 =====
  
 Initial density matrix is calculated as sum of fragments

 CYCLE    1
 SCF Error: norm([F,P])=   1343.921996735175, max([F,P])=    306.504151756718
 orbitals (Q,E):
 ---------------
 A1/2 :127...146     ( 1.00    -0.5027)  ( 1.00    -0.5027)  ( 1.00    -0.4964)  ( 1.00    -0.4964)
                     ( 1.00    -0.4944)  ( 1.00    -0.4944)  ( 1.00    -0.4780)  ( 1.00    -0.4780)
                     ( 1.00    -0.4662)  ( 1.00    -0.4662)  ( 0.00    -0.1101)  ( 0.00    -0.1101)
                     ( 0.00    -0.0687)  ( 0.00    -0.0687)  ( 0.00    -0.0605)  ( 0.00    -0.0605)
                     ( 0.00    -0.0557)  ( 0.00    -0.0557)  ( 0.00    -0.0488)  ( 0.00    -0.0488)

 CYCLE    2
   MIX coefficients:  0.8000  0.2000
 SCF Error: norm([F,P])=      2.778379630187, max([F,P])=      0.481832987011
 orbitals (Q,E):
 ---------------
 A1/2 :127...146     ( 1.00    -0.4220)  ( 1.00    -0.4220)  ( 1.00    -0.4132)  ( 1.00    -0.4132)
                     ( 1.00    -0.4085)  ( 1.00    -0.4085)  ( 1.00    -0.4013)  ( 1.00    -0.4013)
                     ( 1.00    -0.3949)  ( 1.00    -0.3949)  ( 0.00    -0.1362)  ( 0.00    -0.1362)
                     ( 0.00    -0.1276)  ( 0.00    -0.1276)  ( 0.00    -0.1106)  ( 0.00    -0.1106)
                     ( 0.00    -0.1090)  ( 0.00    -0.1090)  ( 0.00    -0.0970)  ( 0.00    -0.0970)

 CYCLE    3
  SDIIS (wt  0.000): -1.4183  2.4183
 A-DIIS (wt  1.000):  0.0000  1.0000
  DIIS coefficients:  0.0000  1.0000
 SCF Error: norm([F,P])=      1.952174235380, max([F,P])=      0.383699714837
 orbitals (Q,E):
 ---------------
 A1/2 :127...146     ( 1.00    -0.2670)  ( 1.00    -0.2670)  ( 1.00    -0.2605)  ( 1.00    -0.2605)
                     ( 1.00    -0.2489)  ( 1.00    -0.2489)  ( 1.00    -0.2375)  ( 1.00    -0.2375)
                     ( 1.00    -0.2281)  ( 1.00    -0.2281)  ( 0.00    -0.2246)  ( 0.00    -0.2246)
                     ( 0.00    -0.2006)  ( 0.00    -0.2006)  ( 0.00    -0.1875)  ( 0.00    -0.1875)
                     ( 0.00    -0.1650)  ( 0.00    -0.1650)  ( 0.00    -0.1573)  ( 0.00    -0.1573)

 CYCLE    4
  SDIIS (wt  0.000): -1.3971  2.3927  0.0044
 A-DIIS (wt  1.000):  0.0000  0.9608  0.0392
  DIIS coefficients:  0.0000  0.9608  0.0392
 SCF Error: norm([F,P])=      7.712792031916, max([F,P])=      0.874068658777
 orbitals (Q,E):
 ---------------
 A1/2 :127...146     ( 1.00    -0.2553)  ( 1.00    -0.2553)  ( 1.00    -0.2451)  ( 1.00    -0.2451)
                     ( 1.00    -0.2331)  ( 1.00    -0.2331)  ( 1.00    -0.2289)  ( 1.00    -0.2289)
                     ( 1.00    -0.2247)  ( 1.00    -0.2247)  ( 0.00    -0.1318)  ( 0.00    -0.1318)
                     ( 0.00    -0.1272)  ( 0.00    -0.1272)  ( 0.00    -0.1088)  ( 0.00    -0.1088)
                     ( 0.00    -0.0976)  ( 0.00    -0.0976)  ( 0.00    -0.0869)  ( 0.00    -0.0869)

 CYCLE    5
  SDIIS (wt  0.000):  0.9219 -0.8937 -0.1592  1.1310
 A-DIIS (wt  1.000):  0.0000  0.7464  0.0000  0.2536
  DIIS coefficients:  0.0000  0.7464  0.0000  0.2536
 SCF Error: norm([F,P])=      1.791220244969, max([F,P])=      0.181883002551
 orbitals (Q,E):
 ---------------
 A1/2 :127...146     ( 1.00    -0.3020)  ( 1.00    -0.3020)  ( 1.00    -0.2926)  ( 1.00    -0.2926)
                     ( 1.00    -0.2843)  ( 1.00    -0.2843)  ( 1.00    -0.2790)  ( 1.00    -0.2790)
                     ( 1.00    -0.2742)  ( 1.00    -0.2742)  ( 0.00    -0.0806)  ( 0.00    -0.0806)
                     ( 0.00    -0.0772)  ( 0.00    -0.0772)  ( 0.00    -0.0574)  ( 0.00    -0.0574)
[...]
  Spin-Orbit:                         -196.635175703358243      -5350.7154       -123390.45       -516265.58
                                      --------------------     -----------       ----------      -----------
  Total Bonding Energy:                -87.877224456887092      -2391.2609        -55143.80       -230721.62


Correction terms (incorporated in energies above; only for test purposes):

1. Indication of fit-quality: 1st-order fit-correction used in the energy (hartree):   0.0000932351
2. Electrostatic (Fit correction):   0.0000000000

Scaled ZORA energy correction, not included in bonding energy (hartree):            3.3854378602
 NOTE: This scaled ZORA energy correction should only be used to compare two calculations
 in which the only difference in the calculation is the electron configuration.
 Then the difference in energy of this term should be added to the difference in energy of
 the two electron configurations.
 This term should not be used otherwise.
 In practice it is useful only for core excitation energy calculations.



 =======================================================================
 Electrostatic potential at the Nuclei due to electrons and other nuclei
 =======================================================================
  
         Atom                  Potential
         ----                  ---------
     1)   Pa                791.38061560
     2)   F                  26.70091069
     3)   H                   0.98200092
     4)   O                  22.40019881
     5)   H                   0.98785996
     6)   O                  22.39988086
     7)   H                   0.98153464
     8)   O                  22.39989204
     9)   H                   0.98135713
    10)   O                  22.40438646
 Mulliken charges used for AMS results%charges...


    =====================
     CALCULATION RESULTS
    =====================

Energy (hartree)           -87.87722446


--------------
Atomic charges
--------------
  Index   Atom    Charge
      1     Pa    2.9097
      2      F   -0.6384
      3      H    0.0280
      4      O   -0.6086
      5      H    0.0738
      6      O   -0.6031
      7      H    0.0163
      8      O   -0.5789
      9      H    0.0214
     10      O   -0.6201


Dipole moment vector    (Debye):    -1.66264193   -1.98799990    1.28122170
              magnitude (Debye):     2.89102937


-----------------------
Molecular orbitals info
-----------------------
n orbitals:              618
n spin:                    1

Note: only printing virtual orbitals with
      energy smaller than HOMO + 100. eV

HOMO (eV):              -8.4208
LUMO (eV):              -2.6370
HOMO-LUMO gap (eV):      5.7838

   Index   Energy (eV)    Occupation
     384       90.8173         0.000       
     383       90.8173         0.000       
     382       88.2330         0.000       
     381       88.2330         0.000       
     380       85.1133         0.000       
     379       85.1133         0.000       
     378       80.8102         0.000       
     377       80.8102         0.000       
     376       80.2096         0.000       
     375       80.2096         0.000       
     374       78.5721         0.000       
     373       78.5721         0.000       
     372       78.3696         0.000       
     371       78.3696         0.000       
     370       76.8114         0.000       
     369       76.8114         0.000       
     368       76.4911         0.000       
     367       76.4911         0.000       
     366       76.1200         0.000       
     365       76.1200         0.000       
     364       75.1521         0.000       
     363       75.1521         0.000       
     362       74.9485         0.000       
     361       74.9485         0.000       
     360       73.9371         0.000       
     359       73.9371         0.000       
     358       73.5957         0.000       
     357       73.5957         0.000       
     356       73.1586         0.000       
     355       73.1586         0.000       
     354       72.7533         0.000       
     353       72.7533         0.000       
     352       72.5308         0.000       
     351       72.5308         0.000       
     350       72.1553         0.000       
     349       72.1553         0.000       
     348       70.0126         0.000       
     347       70.0126         0.000       
     346       67.9311         0.000       
     345       67.9311         0.000       
     344       66.1871         0.000       
     343       66.1871         0.000       
     342       62.5744         0.000       
     341       62.5744         0.000       
     340       61.5310         0.000       
     339       61.5310         0.000       
     338       60.2694         0.000       
     337       60.2694         0.000       
     336       59.1082         0.000       
     335       59.1082         0.000       
     334       57.8023         0.000       
     333       57.8023         0.000       
     332       55.9247         0.000       
     331       55.9247         0.000       
     330       54.7486         0.000       
     329       54.7486         0.000       
     328       54.4542         0.000       
     327       54.4542         0.000       
     326       53.8819         0.000       
     325       53.8819         0.000       
     324       52.8529         0.000       
     323       52.8529         0.000       
     322       51.5589         0.000       
     321       51.5589         0.000       
     320       49.8301         0.000       
     319       49.8301         0.000       
     318       48.1733         0.000       
     317       48.1733         0.000       
     316       47.4938         0.000       
     315       47.4938         0.000       
     314       46.6736         0.000       
     313       46.6736         0.000       
     312       45.6196         0.000       
     311       45.6196         0.000       
     310       44.6919         0.000       
     309       44.6919         0.000       
     308       43.7647         0.000       
     307       43.7647         0.000       
     306       41.7352         0.000       
     305       41.7352         0.000       
     304       41.2968         0.000       
     303       41.2968         0.000       
     302       40.4334         0.000       
     301       40.4334         0.000       
     300       39.3602         0.000       
     299       39.3602         0.000       
     298       38.9773         0.000       
     297       38.9773         0.000       
     296       38.2146         0.000       
     295       38.2146         0.000       
     294       37.5844         0.000       
     293       37.5844         0.000       
     292       37.4755         0.000       
     291       37.4755         0.000       
     290       36.6871         0.000       
     289       36.6871         0.000       
     288       35.9967         0.000       
     287       35.9967         0.000       
     286       35.6219         0.000       
     285       35.6219         0.000       
     284       35.3695         0.000       
     283       35.3695         0.000       
     282       34.5304         0.000       
     281       34.5304         0.000       
     280       34.1554         0.000       
     279       34.1554         0.000       
     278       33.7288         0.000       
     277       33.7288         0.000       
     276       33.6498         0.000       
     275       33.6498         0.000       
     274       32.8755         0.000       
     273       32.8755         0.000       
     272       32.0833         0.000       
     271       32.0833         0.000       
     270       31.5048         0.000       
     269       31.5048         0.000       
     268       30.7770         0.000       
     267       30.7770         0.000       
     266       30.4921         0.000       
     265       30.4921         0.000       
     264       30.0927         0.000       
     263       30.0927         0.000       
     262       28.4946         0.000       
     261       28.4946         0.000       
     260       27.4977         0.000       
     259       27.4977         0.000       
     258       27.3178         0.000       
     257       27.3178         0.000       
     256       26.9989         0.000       
     255       26.9989         0.000       
     254       26.1758         0.000       
     253       26.1758         0.000       
     252       24.9971         0.000       
     251       24.9971         0.000       
     250       22.9012         0.000       
     249       22.9012         0.000       
     248       22.4648         0.000       
     247       22.4648         0.000       
     246       20.7940         0.000       
     245       20.7940         0.000       
     244       19.9170         0.000       
     243       19.9170         0.000       
     242       19.0725         0.000       
     241       19.0725         0.000       
     240       18.4540         0.000       
     239       18.4540         0.000       
     238       17.4256         0.000       
     237       17.4256         0.000       
     236       16.8503         0.000       
     235       16.8503         0.000       
     234       16.5721         0.000       
     233       16.5721         0.000       
     232       16.2564         0.000       
     231       16.2564         0.000       
     230       15.8667         0.000       
     229       15.8667         0.000       
     228       15.5967         0.000       
     227       15.5967         0.000       
     226       15.5223         0.000       
     225       15.5223         0.000       
     224       15.4578         0.000       
     223       15.4578         0.000       
     222       15.1176         0.000       
     221       15.1176         0.000       
     220       14.7734         0.000       
     219       14.7734         0.000       
     218       14.4437         0.000       
     217       14.4437         0.000       
     216       14.3173         0.000       
     215       14.3173         0.000       
     214       14.0056         0.000       
     213       14.0056         0.000       
     212       13.7158         0.000       
     211       13.7158         0.000       
     210       13.2449         0.000       
     209       13.2449         0.000       
     208       12.7729         0.000       
     207       12.7729         0.000       
     206       12.5315         0.000       
     205       12.5315         0.000       
     204       12.1332         0.000       
     203       12.1332         0.000       
     202       12.0408         0.000       
     201       12.0408         0.000       
     200       11.7696         0.000       
     199       11.7696         0.000       
     198       10.5338         0.000       
     197       10.5338         0.000       
     196       10.1328         0.000       
     195       10.1328         0.000       
     194        8.3744         0.000       
     193        8.3744         0.000       
     192        8.0741         0.000       
     191        8.0741         0.000       
     190        6.9437         0.000       
     189        6.9437         0.000       
     188        6.1138         0.000       
     187        6.1138         0.000       
     186        6.0153         0.000       
     185        6.0153         0.000       
     184        5.9319         0.000       
     183        5.9319         0.000       
     182        4.3294         0.000       
     181        4.3294         0.000       
     180        3.6762         0.000       
     179        3.6762         0.000       
     178        3.0486         0.000       
     177        3.0486         0.000       
     176        3.0124         0.000       
     175        3.0124         0.000       
     174        2.9111         0.000       
     173        2.9111         0.000       
     172        2.3717         0.000       
     171        2.3717         0.000       
     170        2.3484         0.000       
     169        2.3484         0.000       
     168        2.0121         0.000       
     167        2.0121         0.000       
     166        1.7946         0.000       
     165        1.7946         0.000       
     164        1.5523         0.000       
     163        1.5523         0.000       
     162        1.4485         0.000       
     161        1.4485         0.000       
     160        1.3432         0.000       
     159        1.3432         0.000       
     158        0.5888         0.000       
     157        0.5888         0.000       
     156        0.4671         0.000       
     155        0.4671         0.000       
     154        0.4248         0.000       
     153        0.4248         0.000       
     152       -0.4282         0.000       
     151       -0.4282         0.000       
     150       -1.0726         0.000       
     149       -1.0726         0.000       
     148       -1.5536         0.000       
     147       -1.5536         0.000       
     146       -1.6943         0.000       
     145       -1.6943         0.000       
     144       -1.9892         0.000       
     143       -1.9892         0.000       
     142       -2.0352         0.000       
     141       -2.0352         0.000       
     140       -2.5633         0.000       
     139       -2.5633         0.000       
     138       -2.6370         0.000       
     137       -2.6370         0.000 < LUMO
     136       -8.4208         1.000 < HOMO
     135       -8.4208         1.000       
     134       -8.5605         1.000       
     133       -8.5605         1.000       
     132       -8.7138         1.000       
     131       -8.7138         1.000       
     130       -8.9018         1.000       
     129       -8.9018         1.000       
     128       -9.1440         1.000       
     127       -9.1440         1.000       
     126       -9.2566         1.000       
     125       -9.2566         1.000       
     124       -9.6070         1.000       
     123       -9.6070         1.000       
     122       -9.6700         1.000       
     121       -9.6700         1.000       
     120      -10.6462         1.000       
     119      -10.6462         1.000       
     118      -10.8789         1.000       
     117      -10.8789         1.000       
     116      -10.9717         1.000       
     115      -10.9717         1.000       
     114      -12.5602         1.000       
     113      -12.5602         1.000       
     112      -12.9586         1.000       
     111      -12.9586         1.000       
     110      -13.3692         1.000       
     109      -13.3692         1.000       
     108      -14.1087         1.000       
     107      -14.1087         1.000       
     106      -22.2294         1.000       
     105      -22.2294         1.000       
     104      -22.4035         1.000       
     103      -22.4035         1.000       
     102      -25.8277         1.000       
     101      -25.8277         1.000       
     100      -26.4309         1.000       
      99      -26.4309         1.000       
      98      -27.2657         1.000       
      97      -27.2657         1.000       
      96      -27.5998         1.000       
      95      -27.5998         1.000       
      94      -30.4212         1.000       
      93      -30.4212         1.000       
      92      -32.5574         1.000       
      91      -32.5574         1.000       
      90      -49.8390         1.000       
      89      -49.8390         1.000       
      88      -96.6005         1.000       
      87      -96.6005         1.000       
      86      -96.6157         1.000       
      85      -96.6157         1.000       
      84      -96.6447         1.000       
      83      -96.6447         1.000       
      82     -104.0195         1.000       
      81     -104.0195         1.000       
      80     -104.0502         1.000       
      79     -104.0502         1.000       
      78     -193.5869         1.000       
      77     -193.5869         1.000       
      76     -193.6294         1.000       
      75     -193.6294         1.000       
      74     -241.9236         1.000       
      73     -241.9236         1.000       
      72     -304.0487         1.000       
      71     -304.0487         1.000       
      70     -354.5714         1.000       
      69     -354.5714         1.000       
      68     -354.5965         1.000       
      67     -354.5965         1.000       
      66     -354.6289         1.000       
      65     -354.6289         1.000       
      64     -354.6473         1.000       
      63     -354.6473         1.000       
      62     -364.3299         1.000       
      61     -364.3299         1.000       
      60     -364.3686         1.000       
      59     -364.3686         1.000       
      58     -364.3969         1.000       
      57     -364.3969         1.000       
      56     -520.6209         1.000       
      55     -520.6209         1.000       
      54     -520.7118         1.000       
      53     -520.7118         1.000       
      52     -520.7189         1.000       
      51     -520.7189         1.000       
      50     -520.7441         1.000       
      49     -520.7441         1.000       
      48     -670.7830         1.000       
      47     -670.7830         1.000       
      46     -693.8443         1.000       
      45     -693.8443         1.000       
      44     -693.8898         1.000       
      43     -693.8898         1.000       
      42     -693.9153         1.000       
      41     -693.9153         1.000       
      40     -733.1676         1.000       
      39     -733.1676         1.000       
      38     -733.2184         1.000       
      37     -733.2184         1.000       
      36     -983.1259         1.000       
      35     -983.1259         1.000       
      34     -983.1762         1.000       
      33     -983.1762         1.000       
      32    -1189.9216         1.000       
      31    -1189.9216         1.000       
      30    -1353.0803         1.000       
      29    -1353.0803         1.000       
      28    -3410.0629         1.000       
      27    -3410.0629         1.000       
      26    -3410.0822         1.000       
      25    -3410.0822         1.000       
      24    -3410.0944         1.000       
      23    -3410.0944         1.000       
      22    -3576.8584         1.000       
      21    -3576.8584         1.000       
      20    -3576.8791         1.000       
      19    -3576.8791         1.000       
      18    -4130.7675         1.000       
      17    -4130.7675         1.000       
      16    -4130.7934         1.000       
      15    -4130.7934         1.000       
      14    -4926.5279         1.000       
      13    -4926.5279         1.000       
      12    -5303.3557         1.000       
      11    -5303.3557         1.000       
      10   -16648.9891         1.000       
       9   -16648.9891         1.000       
       8   -16648.9906         1.000       
       7   -16648.9906         1.000       
       6   -20126.6408         1.000       
       5   -20126.6408         1.000       
       4   -21000.2457         1.000       
       3   -21000.2457         1.000       
       2  -112595.4442         1.000       
       1  -112595.4442         1.000       

AMS application finished. Exiting.
NORMAL TERMINATION
     Total cpu time:    1131.44
  Total system time:    1857.93
 Total elapsed time:    3259.15
 WARNING: total system time is high compared to CPU time. 
 Make sure the machine is not oversubscribed and has enough memory, SCM_TMPDIR p
 oints to a fast file system, and the network is fast enough.
