
 Working directory              : /state/partition2/shaaban/972138.phlam-s-sakura/molpro.3Jw8Jz5gBo/
 Global scratch directory       : /state/partition2/shaaban/972138.phlam-s-sakura/molpro.3Jw8Jz5gBo/
 Wavefunction directory         : /home/shaaban/wfu/
 Main file repository           : /state/partition2/shaaban/972138.phlam-s-sakura/molpro.3Jw8Jz5gBo/

 id        : lill

 Nodes       nprocs
 u-0-13.local    8
 GA implementation: MPI file
 GA implementation (serial work in mppx): MPI file

 Using customized tuning parameters: mindgm=1; mindgv=20; mindgc=4; mindgr=1; noblas=0; minvec=7
 default implementation of scratch files=sf  


 Variables initialized (1025), CPU time= 0.01 sec
 ***,Pa(OH)4(SO4) - MP2 and CCSD(T)
 memory,5000, m;
 file, 1, pa_oh4_so4.ccsd-tx.int, new;
 file, 2, pa_oh4_so4.ccsd-tx.wfu, new;
 
 gprint, basis;
 gprint, orbital=10;
 
 nosym;
 
 geomtyp=xyz;
 
 geometry={
 Including file /home/shaaban/molpro/PhD/sulfate/pa_oh4_so4/pa_oh4_so4-B21-solvent.xyz
 }
 
 charge=-1;
 
                                                                                 ! Select X2C SR Hamiltonian
 SET,DKHO=101
 
                                                                                 ! Calculation with VTZ basis set
 basis={
 Pa=cc-pVTZ-X2C;
 O=aug-cc-pVTZ-X2C;
 H=aug-cc-pVTZ-X2C;
 S=aug-cc-pVTZ-X2C;
 }
 
                                                                                 ! Hartree-Fock calculation
 {hf;}
 
                                                                                 ! MP2 and CCSD(T) calculation
 {ccsd(t);}
 
                                                                  ! Save HF energy and CCSD(T) correlation energy for VTZ basis set
 energy_hf(1) = energr(1);
 corr_mp2(1) = EMP2-energr(1);
 corr_ccsdt(1) = ENERGT(1)-energr(1);
 
 Commands initialized (840), CPU time= 0.01 sec, 684 directives.
 Default parameters read. Elapsed time= 0.16 sec

 Checking input...
 Passed
1


                                         ***  PROGRAM SYSTEM MOLPRO  ***
                                       Copyright, TTI GmbH Stuttgart, 2015
                                    Version 2022.3 linked Wed Nov 30 12:40:34 2022


 **********************************************************************************************************************************
 LABEL *   Pa(OH) MP2 and                                                                
  64 bit mpp version                                                                     DATE: 27-Jun-23          TIME: 17:46:51  
 **********************************************************************************************************************************

 SHA1:             e31ec9a5ea85254ab76f59d122cbdd51c71cf98b
 **********************************************************************************************************************************

 Memory per process:      5000 MW
 Total memory per node:  40000 MW

 GA preallocation disabled
 GA check disabled

 Variable memory set to 5000.0 MW



 Permanent file  1  pa_oh4_so4.ccsd-tx.int           assigned.  Implementation=df  
 Permanent file  2  pa_oh4_so4.ccsd-tx.wfu           assigned.  Implementation=df  



 **********************************************************************************************************************************
 DATASETS  * FILE   NREC   LENGTH (MB)   RECORD NAMES
              1       1        0.03       500   
                                          VAR  

              2       1        0.03       500   
                                          VAR  

 PROGRAMS   *        TOTAL      FILE
 CPU TIMES  *         0.21      0.02
 REAL TIME  *         0.30 SEC
 DISK USED  *         0.10 MB (local),        0.81 MB (total)
 **********************************************************************************************************************************


 SETTING GEOMTYP        =    XYZ
 ZSYMEL=NOSYM

 SETTING CHARGE         =        -1.00000000                                  
 SETTING DKHO           =       101.00000000                                  
 SETTING BASIS          =    PA=CC-PVTZ-X2C,O=AUG-CC-PVTZ-X2C,H=AUG-CC-PVTZ-X2C,S=AUG-CC-PVTZ-X2C


 Recomputing integrals since basis changed


 Using spherical harmonics

 Library entry PA     S cc-pVTZ-X2C          selected for orbital group  1
 Library entry PA     P cc-pVTZ-X2C          selected for orbital group  1
 Library entry PA     D cc-pVTZ-X2C          selected for orbital group  1
 Library entry PA     F cc-pVTZ-X2C          selected for orbital group  1
 Library entry PA     G cc-pVTZ-X2C          selected for orbital group  1
 Library entry PA     H cc-pVTZ-X2C          selected for orbital group  1
 Library entry O      S aug-cc-pVTZ-X2C      selected for orbital group  2
 Library entry O      P aug-cc-pVTZ-X2C      selected for orbital group  2
 Library entry O      D aug-cc-pVTZ-X2C      selected for orbital group  2
 Library entry O      F aug-cc-pVTZ-X2C      selected for orbital group  2
 Library entry H      S aug-cc-pVTZ-X2C      selected for orbital group  3
 Library entry H      P aug-cc-pVTZ-X2C      selected for orbital group  3
 Library entry H      D aug-cc-pVTZ-X2C      selected for orbital group  3
 Library entry S      S aug-cc-pVTZ-X2C      selected for orbital group 11
 Library entry S      P aug-cc-pVTZ-X2C      selected for orbital group 11
 Library entry S      D aug-cc-pVTZ-X2C      selected for orbital group 11
 Library entry S      F aug-cc-pVTZ-X2C      selected for orbital group 11


 PROGRAM * SEWARD (Integral evaluation for generally contracted gaussian basis sets)     Author: Roland Lindh, 1990

 Geometry written to block  1 of record 700


 Point group  C1  



 ATOMIC COORDINATES

 NR  ATOM    CHARGE       X              Y              Z

   1  PA     91.00    0.793487494   -0.278805872   -0.415393585
   2  O       8.00    1.937663397    2.575217409   -2.962818610
   3  H       1.00    2.746563253    4.208443401   -2.894014808
   4  O       8.00   -2.053650040    2.126507073    1.148120288
   5  H       1.00   -2.567294777    3.818323200    0.704404121
   6  O       8.00   -0.793010489   -2.316387851   -3.511482310
   7  H       1.00   -1.615349733   -3.936064444   -3.657065618
   8  O       8.00   -0.312333505   -3.124499658    2.159935085
   9  H       1.00    0.052951270   -4.882594739    2.479646685
  10  O       8.00    4.393655194    0.622603402    2.150272675
  11  O       8.00    4.748060321   -2.452468176   -1.039333284
  12  S      16.00    6.352413496   -1.202694383    1.024278023
  13  O       8.00    8.443088853    0.199019891   -0.088510402
  14  O       8.00    7.130413512   -3.056139779    2.904131061

 Bond lengths in Bohr (Angstrom)

 1-2  3.992989061  1-3  5.485751919  1-4  4.041818667  1-5  5.416204484  1-6  4.031684706
     ( 2.112998815)     ( 2.902934900)     ( 2.138838329)     ( 2.866131982)     ( 2.133475668)

  1- 7  5.448529584   1- 8  3.994137074   1- 9  5.488581238   1-10  4.511805570   1-11  4.555519159
       ( 2.883237689)       ( 2.113606317)       ( 2.904432111)       ( 2.387544688)       ( 2.410676923)

  1-12  5.816174224   2- 3  1.823864052   4- 5  1.822897901   6- 7  1.822303103   8- 9  1.823882340
       ( 3.077786854)       ( 0.965147292)       ( 0.964636027)       ( 0.964321273)       ( 0.965156970)

 10-12  2.904532672  11-12  2.897304829  12-13  2.752094554  12-14  2.752161206
       ( 1.537012498)       ( 1.533187688)       ( 1.456345720)       ( 1.456380991)

 Bond angles

  1-2-3  137.99339566   1-3-2   29.15090942   1-4-5  131.04413019   1-5-4   34.25114450

  1-6-7  133.48166692   1-7-6   32.47351824   1-8-9  138.10277382   1-9-8   29.07586478

  1-10-12  101.07617058   1-11-12  100.21359856   1-12-10   49.57755715   1-12-11   50.42923506

  1-12-13  123.02979337   1-12-14  123.10902286   2- 1- 3   12.85569492   2- 1- 4   91.33406183

  2-1-5   76.64520768   2-1-6   89.08700448   2-1-7  103.11381931   2-1-8  179.30928273

  2- 1- 9  167.08603984   2- 1-10   89.50377822   2- 1-11   90.28196190   2- 1-12   89.86151065

  3-1-4   86.49065063   3-1-5   72.27569516   3-1-6  101.91873563   3-1-7  115.95350746

  3- 1- 8  166.57758945   3- 1- 9  166.52691608   3- 1-10   79.01347090   3- 1-11   91.10899230

  3- 1-12   84.34695566   4- 1- 5   14.70472530   4- 1- 6  108.70120574   4- 1- 7  108.55292136

  4- 1- 8   88.82798424   4- 1- 9  101.54206991   4- 1-10  102.89800035   4- 1-11  161.51964117

  4- 1-12  132.22489893   5- 1- 6  107.27183285   5- 1- 7  110.88178806   5- 1- 8  103.52387709

  5- 1- 9  116.21484283   5- 1-10  103.08679833   5- 1-11  158.11144153   5- 1-12  131.45607185

  6- 1- 7   14.04481485   6- 1- 8   91.49714848   6- 1- 9   85.87392865   6- 1-10  148.39290947

  6- 1-11   89.72901228   6- 1-12  119.07206323   7- 1- 8   77.46598295   7- 1- 9   72.00957530

  7- 1-10  145.61002893   7- 1-11   88.96964797   7- 1-12  117.59373088   8- 1- 9   12.82136140

  8- 1-10   89.80555183   8- 1-11   89.35232289   8- 1-12   89.53247953   9- 1-10   88.58442279

  9- 1-11   77.82714237   9- 1-12   82.25013766  10- 1-11   58.70343117  10- 1-12   29.34627226

 10-12-11  100.00677639  10-12-13  110.42484055  10-12-14  110.42985936  11- 1-12   29.35716638

 11-12-13  110.63209155  11-12-14  110.64263075  13-12-14  113.85621707


 BASIS DATA

   Nr Sym  Nuc  Type         Exponents   Contraction coefficients

    1.1 A     1  1s    57606659.000000     0.002669    0.000875   -0.001011   -0.000162    0.000138   -0.000062
                                           0.000029    0.000051   -0.000067   -0.000085    0.000000
    2.1 A              15333099.000000     0.001763    0.000577   -0.000669   -0.000107    0.000091   -0.000041
                                           0.000019    0.000034   -0.000045   -0.000056    0.000000
    3.1 A               5244434.800000     0.005688    0.001860   -0.002159   -0.000346    0.000294   -0.000133
                                           0.000061    0.000110   -0.000144   -0.000182    0.000000
    4.1 A               1993947.300000     0.005833    0.001897   -0.002226   -0.000357    0.000304   -0.000137
                                           0.000063    0.000114   -0.000148   -0.000188    0.000000
    5.1 A                831464.670000     0.012471    0.004046   -0.004768   -0.000766    0.000651   -0.000294
                                           0.000135    0.000243   -0.000318   -0.000402    0.000000
    6.1 A                367473.800000     0.015337    0.004923   -0.005922   -0.000954    0.000810   -0.000366
                                           0.000168    0.000303   -0.000396   -0.000502    0.000000
    7.1 A                170948.980000     0.027802    0.008860   -0.010807   -0.001745    0.001481   -0.000669
                                           0.000307    0.000553   -0.000723   -0.000913    0.000000
    8.1 A                 82498.208000     0.037893    0.011845   -0.014983   -0.002432    0.002060   -0.000931
                                           0.000428    0.000771   -0.001008   -0.001281    0.000000
    9.1 A                 41068.557000     0.063446    0.019489   -0.025472   -0.004156    0.003514   -0.001588
                                           0.000730    0.001312   -0.001713   -0.002158    0.000000
   10.1 A                 20931.097000     0.090970    0.026964   -0.037612   -0.006192    0.005220   -0.002360
                                           0.001084    0.001959   -0.002562   -0.003271    0.000000
   11.1 A                 10881.858000     0.141353    0.040137   -0.060450   -0.010069    0.008456   -0.003823
                                           0.001756    0.003150   -0.004109   -0.005142    0.000000
                           5751.850200     0.192150    0.050328   -0.087023   -0.014758    0.012320   -0.005570
                                           0.002559    0.004641   -0.006081   -0.007843    0.000000
                           3085.413800     0.245625    0.057494   -0.119370   -0.020746    0.017180   -0.007769
                                           0.003568    0.006365   -0.008281   -0.010186    0.000000
                           1676.302600     0.236828    0.048791   -0.122988   -0.021795    0.017936   -0.008112
                                           0.003728    0.006861   -0.009046   -0.012129    0.000000
                            920.364860     0.144288    0.051386   -0.045258   -0.005640    0.005268   -0.002373
                                           0.001085    0.001652   -0.001974   -0.001042    0.000000
                            507.302700    -0.025759    0.115725    0.203246    0.056561   -0.041187    0.018724
                                          -0.008598   -0.014902    0.019190    0.021482    0.000000
                            285.301180    -0.127248    0.207489    0.548666    0.172341   -0.122683    0.055908
                                          -0.025737   -0.047910    0.063712    0.088054    0.000000
                            162.083520    -0.106345    0.166212    0.606264    0.222723   -0.155054    0.070944
                                          -0.032607   -0.056240    0.072273    0.078654    0.000000
                             92.502257    -0.075897    0.111536    0.036795   -0.036386    0.019294   -0.009062
                                           0.004086    0.001475    0.001168    0.030443    0.000000
                             54.996696    -0.159518    0.199400   -0.676887   -0.645265    0.447335   -0.211910
                                           0.098395    0.193270   -0.267108   -0.419400    0.000000
                             32.498055    -0.126680    0.162427   -0.590845   -0.685716    0.477369   -0.227312
                                           0.105023    0.171409   -0.214999   -0.161690    0.000000
                             19.139224    -0.031866    0.038627   -0.102127    0.187644   -0.152132    0.072681
                                          -0.032972   -0.027495    0.028200   -0.136514    0.000000
                             11.382710     0.001867    0.000895    0.103491    0.862021   -0.976205    0.547811
                                          -0.263192   -0.581563    0.872312    1.708580    0.000000
                              6.786052     0.000710   -0.001446    0.057992    0.445035   -0.716251    0.417708
                                          -0.198179   -0.257965    0.233684   -0.803168    0.000000
                              4.149622     0.000624    0.000224    0.007493    0.066545    0.448492   -0.350229
                                           0.170540    0.219139   -0.310498    1.111350    0.000000
                              2.398648    -0.000456    0.000036    0.000333    0.014140    0.872214   -0.849732
                                           0.456257    1.306370   -2.312230   -7.677220    0.000000
                              1.389239     0.000090    0.000196   -0.000539    0.002102    0.319316   -0.431871
                                           0.230358    0.273179    0.312923   10.897300    0.000000
                              0.799685    -0.000092   -0.000045    0.000120    0.000488    0.047531    0.436228
                                          -0.277578   -1.772950    4.829150   -2.756210    0.000000
                              0.427327     0.000032    0.000027   -0.000069   -0.000720    0.030738    0.715435
                                          -0.561943   -0.897998   -3.625440   -6.603630    0.000000
                              0.220940    -0.000014   -0.000008    0.000023   -0.000086    0.010089    0.233487
                                          -0.326569    1.531090   -1.220420    6.760400    0.000000
                              0.086038     0.000004    0.000003   -0.000008   -0.000060    0.001152    0.063336
                                           0.301677    1.025940    2.677810   -2.145480    0.000000
                              0.041219    -0.000002   -0.000001    0.000004   -0.000044    0.001537    0.118995
                                           0.692734   -0.772162   -0.536170   -1.021350    0.000000
                              0.018781     0.000001    0.000000   -0.000001   -0.000024    0.000590    0.043903
                                           0.253879   -0.484754   -0.805222    1.252960    1.000000
   12.1 A     1  2px   52575799.000000     0.000013
                       15301659.000000     0.000017
                        4822461.600000     0.000052
                        1632045.600000     0.000107
                         584338.640000     0.000256
                         219508.320000     0.000572
                          86085.039000     0.001336
                          35172.956000     0.003129
                          14975.745000     0.007503
                           6652.821900     0.017986
                           3084.270200     0.042103
                           1489.211300     0.090969
                            745.288670     0.167976
                            384.521300     0.234709
                            203.927220     0.220200
                            110.523340     0.174708
                             61.345569     0.190642
                             34.404375     0.137246
                             19.094147     0.033402
                             10.684628    -0.000867
                              5.931463    -0.000935
                              3.230992    -0.000009
                              1.730655     0.000164
                              0.869483     0.000022
                              0.440589     0.000009
                              0.215859    -0.000000
                              0.091015     0.000001
                              0.040174    -0.000000
                              0.017215     0.000000
   13.1 A     1  2py   52575799.000000     0.000013
                       15301659.000000     0.000017
                        4822461.600000     0.000052
                        1632045.600000     0.000107
                         584338.640000     0.000256
                         219508.320000     0.000572
                          86085.039000     0.001336
                          35172.956000     0.003129
                          14975.745000     0.007503
                           6652.821900     0.017986
                           3084.270200     0.042103
                           1489.211300     0.090969
                            745.288670     0.167976
                            384.521300     0.234709
                            203.927220     0.220200
                            110.523340     0.174708
                             61.345569     0.190642
                             34.404375     0.137246
                             19.094147     0.033402
                             10.684628    -0.000867
                              5.931463    -0.000935
                              3.230992    -0.000009
                              1.730655     0.000164
                              0.869483     0.000022
                              0.440589     0.000009
                              0.215859    -0.000000
                              0.091015     0.000001
                              0.040174    -0.000000
                              0.017215     0.000000
   14.1 A     1  2pz   52575799.000000     0.000013
                       15301659.000000     0.000017
                        4822461.600000     0.000052
                        1632045.600000     0.000107
                         584338.640000     0.000256
                         219508.320000     0.000572
                          86085.039000     0.001336
                          35172.956000     0.003129
                          14975.745000     0.007503
                           6652.821900     0.017986
                           3084.270200     0.042103
                           1489.211300     0.090969
                            745.288670     0.167976
                            384.521300     0.234709
                            203.927220     0.220200
                            110.523340     0.174708
                             61.345569     0.190642
                             34.404375     0.137246
                             19.094147     0.033402
                             10.684628    -0.000867
                              5.931463    -0.000935
                              3.230992    -0.000009
                              1.730655     0.000164
                              0.869483     0.000022
                              0.440589     0.000009
                              0.215859    -0.000000
                              0.091015     0.000001
                              0.040174    -0.000000
                              0.017215     0.000000
   15.1 A     1  2px   52575799.000000    -0.000015
                       15301659.000000    -0.000020
                        4822461.600000    -0.000063
                        1632045.600000    -0.000128
                         584338.640000    -0.000307
                         219508.320000    -0.000688
                          86085.039000    -0.001611
                          35172.956000    -0.003789
                          14975.745000    -0.009145
                           6652.821900    -0.022135
                           3084.270200    -0.052666
                           1489.211300    -0.116756
                            745.288670    -0.223673
                            384.521300    -0.322150
                            203.927220    -0.236330
                            110.523340     0.145050
                             61.345569     0.527334
                             34.404375     0.400957
                             19.094147     0.019469
                             10.684628    -0.122609
                              5.931463    -0.050931
                              3.230992    -0.002720
                              1.730655     0.002231
                              0.869483     0.000423
                              0.440589     0.000084
                              0.215859     0.000018
                              0.091015     0.000006
                              0.040174    -0.000002
                              0.017215     0.000001
   16.1 A     1  2py   52575799.000000    -0.000015
                       15301659.000000    -0.000020
                        4822461.600000    -0.000063
                        1632045.600000    -0.000128
                         584338.640000    -0.000307
                         219508.320000    -0.000688
                          86085.039000    -0.001611
                          35172.956000    -0.003789
                          14975.745000    -0.009145
                           6652.821900    -0.022135
                           3084.270200    -0.052666
                           1489.211300    -0.116756
                            745.288670    -0.223673
                            384.521300    -0.322150
                            203.927220    -0.236330
                            110.523340     0.145050
                             61.345569     0.527334
                             34.404375     0.400957
                             19.094147     0.019469
                             10.684628    -0.122609
                              5.931463    -0.050931
                              3.230992    -0.002720
                              1.730655     0.002231
                              0.869483     0.000423
                              0.440589     0.000084
                              0.215859     0.000018
                              0.091015     0.000006
                              0.040174    -0.000002
                              0.017215     0.000001
   17.1 A     1  2pz   52575799.000000    -0.000015
                       15301659.000000    -0.000020
                        4822461.600000    -0.000063
                        1632045.600000    -0.000128
                         584338.640000    -0.000307
                         219508.320000    -0.000688
                          86085.039000    -0.001611
                          35172.956000    -0.003789
                          14975.745000    -0.009145
                           6652.821900    -0.022135
                           3084.270200    -0.052666
                           1489.211300    -0.116756
                            745.288670    -0.223673
                            384.521300    -0.322150
                            203.927220    -0.236330
                            110.523340     0.145050
                             61.345569     0.527334
                             34.404375     0.400957
                             19.094147     0.019469
                             10.684628    -0.122609
                              5.931463    -0.050931
                              3.230992    -0.002720
                              1.730655     0.002231
                              0.869483     0.000423
                              0.440589     0.000084
                              0.215859     0.000018
                              0.091015     0.000006
                              0.040174    -0.000002
                              0.017215     0.000001
   18.1 A     1  2px   52575799.000000     0.000002
                       15301659.000000     0.000002
                        4822461.600000     0.000007
                        1632045.600000     0.000015
                         584338.640000     0.000036
                         219508.320000     0.000081
                          86085.039000     0.000191
                          35172.956000     0.000452
                          14975.745000     0.001103
                           6652.821900     0.002719
                           3084.270200     0.006655
                           1489.211300     0.015415
                            745.288670     0.031304
                            384.521300     0.047289
                            203.927220     0.017930
                            110.523340    -0.123036
                             61.345569    -0.327485
                             34.404375    -0.190153
                             19.094147     0.365341
                             10.684628     0.614487
                              5.931463     0.253665
                              3.230992     0.025247
                              1.730655     0.001457
                              0.869483    -0.000189
                              0.440589     0.000178
                              0.215859    -0.000001
                              0.091015     0.000034
                              0.040174    -0.000010
                              0.017215     0.000003
   19.1 A     1  2py   52575799.000000     0.000002
                       15301659.000000     0.000002
                        4822461.600000     0.000007
                        1632045.600000     0.000015
                         584338.640000     0.000036
                         219508.320000     0.000081
                          86085.039000     0.000191
                          35172.956000     0.000452
                          14975.745000     0.001103
                           6652.821900     0.002719
                           3084.270200     0.006655
                           1489.211300     0.015415
                            745.288670     0.031304
                            384.521300     0.047289
                            203.927220     0.017930
                            110.523340    -0.123036
                             61.345569    -0.327485
                             34.404375    -0.190153
                             19.094147     0.365341
                             10.684628     0.614487
                              5.931463     0.253665
                              3.230992     0.025247
                              1.730655     0.001457
                              0.869483    -0.000189
                              0.440589     0.000178
                              0.215859    -0.000001
                              0.091015     0.000034
                              0.040174    -0.000010
                              0.017215     0.000003
   20.1 A     1  2pz   52575799.000000     0.000002
                       15301659.000000     0.000002
                        4822461.600000     0.000007
                        1632045.600000     0.000015
                         584338.640000     0.000036
                         219508.320000     0.000081
                          86085.039000     0.000191
                          35172.956000     0.000452
                          14975.745000     0.001103
                           6652.821900     0.002719
                           3084.270200     0.006655
                           1489.211300     0.015415
                            745.288670     0.031304
                            384.521300     0.047289
                            203.927220     0.017930
                            110.523340    -0.123036
                             61.345569    -0.327485
                             34.404375    -0.190153
                             19.094147     0.365341
                             10.684628     0.614487
                              5.931463     0.253665
                              3.230992     0.025247
                              1.730655     0.001457
                              0.869483    -0.000189
                              0.440589     0.000178
                              0.215859    -0.000001
                              0.091015     0.000034
                              0.040174    -0.000010
                              0.017215     0.000003
   21.1 A     1  2px   52575799.000000    -0.000002
                       15301659.000000    -0.000003
                        4822461.600000    -0.000009
                        1632045.600000    -0.000018
                         584338.640000    -0.000043
                         219508.320000    -0.000097
                          86085.039000    -0.000228
                          35172.956000    -0.000537
                          14975.745000    -0.001302
                           6652.821900    -0.003177
                           3084.270200    -0.007652
                           1489.211300    -0.017311
                            745.288670    -0.034068
                            384.521300    -0.050256
                            203.927220    -0.027762
                            110.523340     0.078094
                             61.345569     0.225253
                             34.404375     0.124053
                             19.094147    -0.273486
                             10.684628    -0.553839
                              5.931463    -0.065277
                              3.230992     0.618524
                              1.730655     0.501044
                              0.869483     0.107343
                              0.440589     0.023201
                              0.215859     0.014691
                              0.091015     0.001511
                              0.040174     0.000132
                              0.017215    -0.000015
   22.1 A     1  2py   52575799.000000    -0.000002
                       15301659.000000    -0.000003
                        4822461.600000    -0.000009
                        1632045.600000    -0.000018
                         584338.640000    -0.000043
                         219508.320000    -0.000097
                          86085.039000    -0.000228
                          35172.956000    -0.000537
                          14975.745000    -0.001302
                           6652.821900    -0.003177
                           3084.270200    -0.007652
                           1489.211300    -0.017311
                            745.288670    -0.034068
                            384.521300    -0.050256
                            203.927220    -0.027762
                            110.523340     0.078094
                             61.345569     0.225253
                             34.404375     0.124053
                             19.094147    -0.273486
                             10.684628    -0.553839
                              5.931463    -0.065277
                              3.230992     0.618524
                              1.730655     0.501044
                              0.869483     0.107343
                              0.440589     0.023201
                              0.215859     0.014691
                              0.091015     0.001511
                              0.040174     0.000132
                              0.017215    -0.000015
   23.1 A     1  2pz   52575799.000000    -0.000002
                       15301659.000000    -0.000003
                        4822461.600000    -0.000009
                        1632045.600000    -0.000018
                         584338.640000    -0.000043
                         219508.320000    -0.000097
                          86085.039000    -0.000228
                          35172.956000    -0.000537
                          14975.745000    -0.001302
                           6652.821900    -0.003177
                           3084.270200    -0.007652
                           1489.211300    -0.017311
                            745.288670    -0.034068
                            384.521300    -0.050256
                            203.927220    -0.027762
                            110.523340     0.078094
                             61.345569     0.225253
                             34.404375     0.124053
                             19.094147    -0.273486
                             10.684628    -0.553839
                              5.931463    -0.065277
                              3.230992     0.618524
                              1.730655     0.501044
                              0.869483     0.107343
                              0.440589     0.023201
                              0.215859     0.014691
                              0.091015     0.001511
                              0.040174     0.000132
                              0.017215    -0.000015
   24.1 A     1  2px   52575799.000000     0.000001
                       15301659.000000     0.000001
                        4822461.600000     0.000004
                        1632045.600000     0.000008
                         584338.640000     0.000019
                         219508.320000     0.000043
                          86085.039000     0.000102
                          35172.956000     0.000240
                          14975.745000     0.000583
                           6652.821900     0.001422
                           3084.270200     0.003426
                           1489.211300     0.007745
                            745.288670     0.015249
                            384.521300     0.022470
                            203.927220     0.012451
                            110.523340    -0.035134
                             61.345569    -0.101385
                             34.404375    -0.055104
                             19.094147     0.131617
                             10.684628     0.274237
                              5.931463     0.008683
                              3.230992    -0.421618
                              1.730655    -0.381893
                              0.869483     0.226214
                              0.440589     0.602150
                              0.215859     0.367232
                              0.091015     0.055939
                              0.040174    -0.001129
                              0.017215     0.001121
   25.1 A     1  2py   52575799.000000     0.000001
                       15301659.000000     0.000001
                        4822461.600000     0.000004
                        1632045.600000     0.000008
                         584338.640000     0.000019
                         219508.320000     0.000043
                          86085.039000     0.000102
                          35172.956000     0.000240
                          14975.745000     0.000583
                           6652.821900     0.001422
                           3084.270200     0.003426
                           1489.211300     0.007745
                            745.288670     0.015249
                            384.521300     0.022470
                            203.927220     0.012451
                            110.523340    -0.035134
                             61.345569    -0.101385
                             34.404375    -0.055104
                             19.094147     0.131617
                             10.684628     0.274237
                              5.931463     0.008683
                              3.230992    -0.421618
                              1.730655    -0.381893
                              0.869483     0.226214
                              0.440589     0.602150
                              0.215859     0.367232
                              0.091015     0.055939
                              0.040174    -0.001129
                              0.017215     0.001121
   26.1 A     1  2pz   52575799.000000     0.000001
                       15301659.000000     0.000001
                        4822461.600000     0.000004
                        1632045.600000     0.000008
                         584338.640000     0.000019
                         219508.320000     0.000043
                          86085.039000     0.000102
                          35172.956000     0.000240
                          14975.745000     0.000583
                           6652.821900     0.001422
                           3084.270200     0.003426
                           1489.211300     0.007745
                            745.288670     0.015249
                            384.521300     0.022470
                            203.927220     0.012451
                            110.523340    -0.035134
                             61.345569    -0.101385
                             34.404375    -0.055104
                             19.094147     0.131617
                             10.684628     0.274237
                              5.931463     0.008683
                              3.230992    -0.421618
                              1.730655    -0.381893
                              0.869483     0.226214
                              0.440589     0.602150
                              0.215859     0.367232
                              0.091015     0.055939
                              0.040174    -0.001129
                              0.017215     0.001121
   27.1 A     1  2px   52575799.000000    -0.000000
                       15301659.000000    -0.000000
                        4822461.600000    -0.000001
                        1632045.600000    -0.000002
                         584338.640000    -0.000005
                         219508.320000    -0.000010
                          86085.039000    -0.000024
                          35172.956000    -0.000058
                          14975.745000    -0.000140
                           6652.821900    -0.000342
                           3084.270200    -0.000823
                           1489.211300    -0.001861
                            745.288670    -0.003664
                            384.521300    -0.005398
                            203.927220    -0.002991
                            110.523340     0.008482
                             61.345569     0.024454
                             34.404375     0.013272
                             19.094147    -0.032305
                             10.684628    -0.067432
                              5.931463    -0.001366
                              3.230992     0.110673
                              1.730655     0.103187
                              0.869483    -0.077840
                              0.440589    -0.217735
                              0.215859    -0.188345
                              0.091015     0.201020
                              0.040174     0.637069
                              0.017215     0.326669
   28.1 A     1  2py   52575799.000000    -0.000000
                       15301659.000000    -0.000000
                        4822461.600000    -0.000001
                        1632045.600000    -0.000002
                         584338.640000    -0.000005
                         219508.320000    -0.000010
                          86085.039000    -0.000024
                          35172.956000    -0.000058
                          14975.745000    -0.000140
                           6652.821900    -0.000342
                           3084.270200    -0.000823
                           1489.211300    -0.001861
                            745.288670    -0.003664
                            384.521300    -0.005398
                            203.927220    -0.002991
                            110.523340     0.008482
                             61.345569     0.024454
                             34.404375     0.013272
                             19.094147    -0.032305
                             10.684628    -0.067432
                              5.931463    -0.001366
                              3.230992     0.110673
                              1.730655     0.103187
                              0.869483    -0.077840
                              0.440589    -0.217735
                              0.215859    -0.188345
                              0.091015     0.201020
                              0.040174     0.637069
                              0.017215     0.326669
   29.1 A     1  2pz   52575799.000000    -0.000000
                       15301659.000000    -0.000000
                        4822461.600000    -0.000001
                        1632045.600000    -0.000002
                         584338.640000    -0.000005
                         219508.320000    -0.000010
                          86085.039000    -0.000024
                          35172.956000    -0.000058
                          14975.745000    -0.000140
                           6652.821900    -0.000342
                           3084.270200    -0.000823
                           1489.211300    -0.001861
                            745.288670    -0.003664
                            384.521300    -0.005398
                            203.927220    -0.002991
                            110.523340     0.008482
                             61.345569     0.024454
                             34.404375     0.013272
                             19.094147    -0.032305
                             10.684628    -0.067432
                              5.931463    -0.001366
                              3.230992     0.110673
                              1.730655     0.103187
                              0.869483    -0.077840
                              0.440589    -0.217735
                              0.215859    -0.188345
                              0.091015     0.201020
                              0.040174     0.637069
                              0.017215     0.326669
   30.1 A     1  2px   52575799.000000    -0.000001
                       15301659.000000    -0.000001
                        4822461.600000    -0.000003
                        1632045.600000    -0.000005
                         584338.640000    -0.000013
                         219508.320000    -0.000028
                          86085.039000    -0.000066
                          35172.956000    -0.000156
                          14975.745000    -0.000379
                           6652.821900    -0.000925
                           3084.270200    -0.002224
                           1489.211300    -0.005040
                            745.288670    -0.009895
                            384.521300    -0.014653
                            203.927220    -0.007970
                            110.523340     0.022757
                             61.345569     0.067049
                             34.404375     0.034635
                             19.094147    -0.086605
                             10.684628    -0.190567
                              5.931463     0.011210
                              3.230992     0.295370
                              1.730655     0.357708
                              0.869483    -0.483437
                              0.440589    -0.603385
                              0.215859     0.215887
                              0.091015     0.715465
                              0.040174     0.271767
                              0.017215     0.004114
   31.1 A     1  2py   52575799.000000    -0.000001
                       15301659.000000    -0.000001
                        4822461.600000    -0.000003
                        1632045.600000    -0.000005
                         584338.640000    -0.000013
                         219508.320000    -0.000028
                          86085.039000    -0.000066
                          35172.956000    -0.000156
                          14975.745000    -0.000379
                           6652.821900    -0.000925
                           3084.270200    -0.002224
                           1489.211300    -0.005040
                            745.288670    -0.009895
                            384.521300    -0.014653
                            203.927220    -0.007970
                            110.523340     0.022757
                             61.345569     0.067049
                             34.404375     0.034635
                             19.094147    -0.086605
                             10.684628    -0.190567
                              5.931463     0.011210
                              3.230992     0.295370
                              1.730655     0.357708
                              0.869483    -0.483437
                              0.440589    -0.603385
                              0.215859     0.215887
                              0.091015     0.715465
                              0.040174     0.271767
                              0.017215     0.004114
   32.1 A     1  2pz   52575799.000000    -0.000001
                       15301659.000000    -0.000001
                        4822461.600000    -0.000003
                        1632045.600000    -0.000005
                         584338.640000    -0.000013
                         219508.320000    -0.000028
                          86085.039000    -0.000066
                          35172.956000    -0.000156
                          14975.745000    -0.000379
                           6652.821900    -0.000925
                           3084.270200    -0.002224
                           1489.211300    -0.005040
                            745.288670    -0.009895
                            384.521300    -0.014653
                            203.927220    -0.007970
                            110.523340     0.022757
                             61.345569     0.067049
                             34.404375     0.034635
                             19.094147    -0.086605
                             10.684628    -0.190567
                              5.931463     0.011210
                              3.230992     0.295370
                              1.730655     0.357708
                              0.869483    -0.483437
                              0.440589    -0.603385
                              0.215859     0.215887
                              0.091015     0.715465
                              0.040174     0.271767
                              0.017215     0.004114
   33.1 A     1  2px   52575799.000000    -0.000001
                       15301659.000000    -0.000001
                        4822461.600000    -0.000004
                        1632045.600000    -0.000009
                         584338.640000    -0.000021
                         219508.320000    -0.000047
                          86085.039000    -0.000111
                          35172.956000    -0.000263
                          14975.745000    -0.000636
                           6652.821900    -0.001554
                           3084.270200    -0.003739
                           1489.211300    -0.008475
                            745.288670    -0.016642
                            384.521300    -0.024644
                            203.927220    -0.013367
                            110.523340     0.038637
                             61.345569     0.114090
                             34.404375     0.057493
                             19.094147    -0.152735
                             10.684628    -0.335275
                              5.931463     0.054116
                              3.230992     0.556566
                              1.730655     0.705542
                              0.869483    -1.835570
                              0.440589    -0.012121
                              0.215859     1.665730
                              0.091015    -0.585220
                              0.040174    -0.541179
                              0.017215     0.007323
   34.1 A     1  2py   52575799.000000    -0.000001
                       15301659.000000    -0.000001
                        4822461.600000    -0.000004
                        1632045.600000    -0.000009
                         584338.640000    -0.000021
                         219508.320000    -0.000047
                          86085.039000    -0.000111
                          35172.956000    -0.000263
                          14975.745000    -0.000636
                           6652.821900    -0.001554
                           3084.270200    -0.003739
                           1489.211300    -0.008475
                            745.288670    -0.016642
                            384.521300    -0.024644
                            203.927220    -0.013367
                            110.523340     0.038637
                             61.345569     0.114090
                             34.404375     0.057493
                             19.094147    -0.152735
                             10.684628    -0.335275
                              5.931463     0.054116
                              3.230992     0.556566
                              1.730655     0.705542
                              0.869483    -1.835570
                              0.440589    -0.012121
                              0.215859     1.665730
                              0.091015    -0.585220
                              0.040174    -0.541179
                              0.017215     0.007323
   35.1 A     1  2pz   52575799.000000    -0.000001
                       15301659.000000    -0.000001
                        4822461.600000    -0.000004
                        1632045.600000    -0.000009
                         584338.640000    -0.000021
                         219508.320000    -0.000047
                          86085.039000    -0.000111
                          35172.956000    -0.000263
                          14975.745000    -0.000636
                           6652.821900    -0.001554
                           3084.270200    -0.003739
                           1489.211300    -0.008475
                            745.288670    -0.016642
                            384.521300    -0.024644
                            203.927220    -0.013367
                            110.523340     0.038637
                             61.345569     0.114090
                             34.404375     0.057493
                             19.094147    -0.152735
                             10.684628    -0.335275
                              5.931463     0.054116
                              3.230992     0.556566
                              1.730655     0.705542
                              0.869483    -1.835570
                              0.440589    -0.012121
                              0.215859     1.665730
                              0.091015    -0.585220
                              0.040174    -0.541179
                              0.017215     0.007323
   36.1 A     1  2px   52575799.000000    -0.000001
                       15301659.000000    -0.000002
                        4822461.600000    -0.000006
                        1632045.600000    -0.000012
                         584338.640000    -0.000030
                         219508.320000    -0.000066
                          86085.039000    -0.000157
                          35172.956000    -0.000360
                          14975.745000    -0.000908
                           6652.821900    -0.002110
                           3084.270200    -0.005394
                           1489.211300    -0.011352
                            745.288670    -0.024563
                            384.521300    -0.031084
                            203.927220    -0.026677
                            110.523340     0.074398
                             61.345569     0.122621
                             34.404375     0.158055
                             19.094147    -0.396610
                             10.684628    -0.217370
                              5.931463    -0.310283
                              3.230992     1.975310
                              1.730655    -0.901781
                              0.869483    -2.796670
                              0.440589     4.376690
                              0.215859    -2.312120
                              0.091015    -0.328877
                              0.040174     0.867979
                              0.017215    -0.037454
   37.1 A     1  2py   52575799.000000    -0.000001
                       15301659.000000    -0.000002
                        4822461.600000    -0.000006
                        1632045.600000    -0.000012
                         584338.640000    -0.000030
                         219508.320000    -0.000066
                          86085.039000    -0.000157
                          35172.956000    -0.000360
                          14975.745000    -0.000908
                           6652.821900    -0.002110
                           3084.270200    -0.005394
                           1489.211300    -0.011352
                            745.288670    -0.024563
                            384.521300    -0.031084
                            203.927220    -0.026677
                            110.523340     0.074398
                             61.345569     0.122621
                             34.404375     0.158055
                             19.094147    -0.396610
                             10.684628    -0.217370
                              5.931463    -0.310283
                              3.230992     1.975310
                              1.730655    -0.901781
                              0.869483    -2.796670
                              0.440589     4.376690
                              0.215859    -2.312120
                              0.091015    -0.328877
                              0.040174     0.867979
                              0.017215    -0.037454
   38.1 A     1  2pz   52575799.000000    -0.000001
                       15301659.000000    -0.000002
                        4822461.600000    -0.000006
                        1632045.600000    -0.000012
                         584338.640000    -0.000030
                         219508.320000    -0.000066
                          86085.039000    -0.000157
                          35172.956000    -0.000360
                          14975.745000    -0.000908
                           6652.821900    -0.002110
                           3084.270200    -0.005394
                           1489.211300    -0.011352
                            745.288670    -0.024563
                            384.521300    -0.031084
                            203.927220    -0.026677
                            110.523340     0.074398
                             61.345569     0.122621
                             34.404375     0.158055
                             19.094147    -0.396610
                             10.684628    -0.217370
                              5.931463    -0.310283
                              3.230992     1.975310
                              1.730655    -0.901781
                              0.869483    -2.796670
                              0.440589     4.376690
                              0.215859    -2.312120
                              0.091015    -0.328877
                              0.040174     0.867979
                              0.017215    -0.037454
   39.1 A     1  2px   52575799.000000     0.000000
                       15301659.000000     0.000000
                        4822461.600000     0.000000
                        1632045.600000     0.000000
                         584338.640000     0.000000
                         219508.320000     0.000000
                          86085.039000     0.000000
                          35172.956000     0.000000
                          14975.745000     0.000000
                           6652.821900     0.000000
                           3084.270200     0.000000
                           1489.211300     0.000000
                            745.288670     0.000000
                            384.521300     0.000000
                            203.927220     0.000000
                            110.523340     0.000000
                             61.345569     0.000000
                             34.404375     0.000000
                             19.094147     0.000000
                             10.684628     0.000000
                              5.931463     0.000000
                              3.230992     0.000000
                              1.730655     0.000000
                              0.869483     0.000000
                              0.440589     0.000000
                              0.215859     0.000000
                              0.091015     0.000000
                              0.040174     0.000000
                              0.017215     1.000000
   40.1 A     1  2py   52575799.000000     0.000000
                       15301659.000000     0.000000
                        4822461.600000     0.000000
                        1632045.600000     0.000000
                         584338.640000     0.000000
                         219508.320000     0.000000
                          86085.039000     0.000000
                          35172.956000     0.000000
                          14975.745000     0.000000
                           6652.821900     0.000000
                           3084.270200     0.000000
                           1489.211300     0.000000
                            745.288670     0.000000
                            384.521300     0.000000
                            203.927220     0.000000
                            110.523340     0.000000
                             61.345569     0.000000
                             34.404375     0.000000
                             19.094147     0.000000
                             10.684628     0.000000
                              5.931463     0.000000
                              3.230992     0.000000
                              1.730655     0.000000
                              0.869483     0.000000
                              0.440589     0.000000
                              0.215859     0.000000
                              0.091015     0.000000
                              0.040174     0.000000
                              0.017215     1.000000
   41.1 A     1  2pz   52575799.000000     0.000000
                       15301659.000000     0.000000
                        4822461.600000     0.000000
                        1632045.600000     0.000000
                         584338.640000     0.000000
                         219508.320000     0.000000
                          86085.039000     0.000000
                          35172.956000     0.000000
                          14975.745000     0.000000
                           6652.821900     0.000000
                           3084.270200     0.000000
                           1489.211300     0.000000
                            745.288670     0.000000
                            384.521300     0.000000
                            203.927220     0.000000
                            110.523340     0.000000
                             61.345569     0.000000
                             34.404375     0.000000
                             19.094147     0.000000
                             10.684628     0.000000
                              5.931463     0.000000
                              3.230992     0.000000
                              1.730655     0.000000
                              0.869483     0.000000
                              0.440589     0.000000
                              0.215859     0.000000
                              0.091015     0.000000
                              0.040174     0.000000
                              0.017215     1.000000
   42.1 A     1  3d0     105911.200000     0.000020
                          24974.572000     0.000129
                           8108.852700     0.000677
                           3150.520500     0.003052
                           1380.647900     0.011950
                            658.188950     0.039706
                            332.909040     0.108875
                            176.023220     0.231727
                             95.780704     0.354949
                             53.337287     0.336096
                             29.864821     0.140603
                             16.526778    -0.033742
                              9.155323    -0.064042
                              4.984876    -0.024095
                              2.636633    -0.002233
                              1.354062     0.000305
                              0.656031     0.000103
                              0.269853     0.000008
                              0.103443     0.000000
                              0.036685     0.000000
   43.1 A     1  3d2-    105911.200000     0.000020
                          24974.572000     0.000129
                           8108.852700     0.000677
                           3150.520500     0.003052
                           1380.647900     0.011950
                            658.188950     0.039706
                            332.909040     0.108875
                            176.023220     0.231727
                             95.780704     0.354949
                             53.337287     0.336096
                             29.864821     0.140603
                             16.526778    -0.033742
                              9.155323    -0.064042
                              4.984876    -0.024095
                              2.636633    -0.002233
                              1.354062     0.000305
                              0.656031     0.000103
                              0.269853     0.000008
                              0.103443     0.000000
                              0.036685     0.000000
   44.1 A     1  3d1+    105911.200000     0.000020
                          24974.572000     0.000129
                           8108.852700     0.000677
                           3150.520500     0.003052
                           1380.647900     0.011950
                            658.188950     0.039706
                            332.909040     0.108875
                            176.023220     0.231727
                             95.780704     0.354949
                             53.337287     0.336096
                             29.864821     0.140603
                             16.526778    -0.033742
                              9.155323    -0.064042
                              4.984876    -0.024095
                              2.636633    -0.002233
                              1.354062     0.000305
                              0.656031     0.000103
                              0.269853     0.000008
                              0.103443     0.000000
                              0.036685     0.000000
   45.1 A     1  3d2+    105911.200000     0.000020
                          24974.572000     0.000129
                           8108.852700     0.000677
                           3150.520500     0.003052
                           1380.647900     0.011950
                            658.188950     0.039706
                            332.909040     0.108875
                            176.023220     0.231727
                             95.780704     0.354949
                             53.337287     0.336096
                             29.864821     0.140603
                             16.526778    -0.033742
                              9.155323    -0.064042
                              4.984876    -0.024095
                              2.636633    -0.002233
                              1.354062     0.000305
                              0.656031     0.000103
                              0.269853     0.000008
                              0.103443     0.000000
                              0.036685     0.000000
   46.1 A     1  3d1-    105911.200000     0.000020
                          24974.572000     0.000129
                           8108.852700     0.000677
                           3150.520500     0.003052
                           1380.647900     0.011950
                            658.188950     0.039706
                            332.909040     0.108875
                            176.023220     0.231727
                             95.780704     0.354949
                             53.337287     0.336096
                             29.864821     0.140603
                             16.526778    -0.033742
                              9.155323    -0.064042
                              4.984876    -0.024095
                              2.636633    -0.002233
                              1.354062     0.000305
                              0.656031     0.000103
                              0.269853     0.000008
                              0.103443     0.000000
                              0.036685     0.000000
   47.1 A     1  3d0     105911.200000    -0.000007
                          24974.572000    -0.000047
                           8108.852700    -0.000246
                           3150.520500    -0.001113
                           1380.647900    -0.004403
                            658.188950    -0.014782
                            332.909040    -0.041545
                            176.023220    -0.089264
                             95.780704    -0.132364
                             53.337287    -0.078125
                             29.864821     0.163137
                             16.526778     0.427766
                              9.155323     0.404323
                              4.984876     0.149842
                              2.636633     0.013528
                              1.354062    -0.001244
                              0.656031    -0.000625
                              0.269853    -0.000007
                              0.103443    -0.000015
                              0.036685     0.000003
   48.1 A     1  3d2-    105911.200000    -0.000007
                          24974.572000    -0.000047
                           8108.852700    -0.000246
                           3150.520500    -0.001113
                           1380.647900    -0.004403
                            658.188950    -0.014782
                            332.909040    -0.041545
                            176.023220    -0.089264
                             95.780704    -0.132364
                             53.337287    -0.078125
                             29.864821     0.163137
                             16.526778     0.427766
                              9.155323     0.404323
                              4.984876     0.149842
                              2.636633     0.013528
                              1.354062    -0.001244
                              0.656031    -0.000625
                              0.269853    -0.000007
                              0.103443    -0.000015
                              0.036685     0.000003
   49.1 A     1  3d1+    105911.200000    -0.000007
                          24974.572000    -0.000047
                           8108.852700    -0.000246
                           3150.520500    -0.001113
                           1380.647900    -0.004403
                            658.188950    -0.014782
                            332.909040    -0.041545
                            176.023220    -0.089264
                             95.780704    -0.132364
                             53.337287    -0.078125
                             29.864821     0.163137
                             16.526778     0.427766
                              9.155323     0.404323
                              4.984876     0.149842
                              2.636633     0.013528
                              1.354062    -0.001244
                              0.656031    -0.000625
                              0.269853    -0.000007
                              0.103443    -0.000015
                              0.036685     0.000003
   50.1 A     1  3d2+    105911.200000    -0.000007
                          24974.572000    -0.000047
                           8108.852700    -0.000246
                           3150.520500    -0.001113
                           1380.647900    -0.004403
                            658.188950    -0.014782
                            332.909040    -0.041545
                            176.023220    -0.089264
                             95.780704    -0.132364
                             53.337287    -0.078125
                             29.864821     0.163137
                             16.526778     0.427766
                              9.155323     0.404323
                              4.984876     0.149842
                              2.636633     0.013528
                              1.354062    -0.001244
                              0.656031    -0.000625
                              0.269853    -0.000007
                              0.103443    -0.000015
                              0.036685     0.000003
   51.1 A     1  3d1-    105911.200000    -0.000007
                          24974.572000    -0.000047
                           8108.852700    -0.000246
                           3150.520500    -0.001113
                           1380.647900    -0.004403
                            658.188950    -0.014782
                            332.909040    -0.041545
                            176.023220    -0.089264
                             95.780704    -0.132364
                             53.337287    -0.078125
                             29.864821     0.163137
                             16.526778     0.427766
                              9.155323     0.404323
                              4.984876     0.149842
                              2.636633     0.013528
                              1.354062    -0.001244
                              0.656031    -0.000625
                              0.269853    -0.000007
                              0.103443    -0.000015
                              0.036685     0.000003
   52.1 A     1  3d0     105911.200000     0.000004
                          24974.572000     0.000029
                           8108.852700     0.000151
                           3150.520500     0.000680
                           1380.647900     0.002694
                            658.188950     0.009015
                            332.909040     0.025311
                            176.023220     0.054175
                             95.780704     0.081018
                             53.337287     0.048855
                             29.864821    -0.090265
                             16.526778    -0.246113
                              9.155323    -0.206236
                              4.984876     0.172306
                              2.636633     0.505507
                              1.354062     0.395599
                              0.656031     0.111489
                              0.269853     0.006247
                              0.103443    -0.000029
                              0.036685    -0.000036
   53.1 A     1  3d2-    105911.200000     0.000004
                          24974.572000     0.000029
                           8108.852700     0.000151
                           3150.520500     0.000680
                           1380.647900     0.002694
                            658.188950     0.009015
                            332.909040     0.025311
                            176.023220     0.054175
                             95.780704     0.081018
                             53.337287     0.048855
                             29.864821    -0.090265
                             16.526778    -0.246113
                              9.155323    -0.206236
                              4.984876     0.172306
                              2.636633     0.505507
                              1.354062     0.395599
                              0.656031     0.111489
                              0.269853     0.006247
                              0.103443    -0.000029
                              0.036685    -0.000036
   54.1 A     1  3d1+    105911.200000     0.000004
                          24974.572000     0.000029
                           8108.852700     0.000151
                           3150.520500     0.000680
                           1380.647900     0.002694
                            658.188950     0.009015
                            332.909040     0.025311
                            176.023220     0.054175
                             95.780704     0.081018
                             53.337287     0.048855
                             29.864821    -0.090265
                             16.526778    -0.246113
                              9.155323    -0.206236
                              4.984876     0.172306
                              2.636633     0.505507
                              1.354062     0.395599
                              0.656031     0.111489
                              0.269853     0.006247
                              0.103443    -0.000029
                              0.036685    -0.000036
   55.1 A     1  3d2+    105911.200000     0.000004
                          24974.572000     0.000029
                           8108.852700     0.000151
                           3150.520500     0.000680
                           1380.647900     0.002694
                            658.188950     0.009015
                            332.909040     0.025311
                            176.023220     0.054175
                             95.780704     0.081018
                             53.337287     0.048855
                             29.864821    -0.090265
                             16.526778    -0.246113
                              9.155323    -0.206236
                              4.984876     0.172306
                              2.636633     0.505507
                              1.354062     0.395599
                              0.656031     0.111489
                              0.269853     0.006247
                              0.103443    -0.000029
                              0.036685    -0.000036
   56.1 A     1  3d1-    105911.200000     0.000004
                          24974.572000     0.000029
                           8108.852700     0.000151
                           3150.520500     0.000680
                           1380.647900     0.002694
                            658.188950     0.009015
                            332.909040     0.025311
                            176.023220     0.054175
                             95.780704     0.081018
                             53.337287     0.048855
                             29.864821    -0.090265
                             16.526778    -0.246113
                              9.155323    -0.206236
                              4.984876     0.172306
                              2.636633     0.505507
                              1.354062     0.395599
                              0.656031     0.111489
                              0.269853     0.006247
                              0.103443    -0.000029
                              0.036685    -0.000036
   57.1 A     1  3d0     105911.200000    -0.000001
                          24974.572000    -0.000008
                           8108.852700    -0.000042
                           3150.520500    -0.000189
                           1380.647900    -0.000746
                            658.188950    -0.002504
                            332.909040    -0.007016
                            176.023220    -0.015063
                             95.780704    -0.022420
                             53.337287    -0.013378
                             29.864821     0.026555
                             16.526778     0.070496
                              9.155323     0.058301
                              4.984876    -0.065834
                              2.636633    -0.177473
                              1.354062    -0.127085
                              0.656031     0.181760
                              0.269853     0.495490
                              0.103443     0.447072
                              0.036685     0.116353
   58.1 A     1  3d2-    105911.200000    -0.000001
                          24974.572000    -0.000008
                           8108.852700    -0.000042
                           3150.520500    -0.000189
                           1380.647900    -0.000746
                            658.188950    -0.002504
                            332.909040    -0.007016
                            176.023220    -0.015063
                             95.780704    -0.022420
                             53.337287    -0.013378
                             29.864821     0.026555
                             16.526778     0.070496
                              9.155323     0.058301
                              4.984876    -0.065834
                              2.636633    -0.177473
                              1.354062    -0.127085
                              0.656031     0.181760
                              0.269853     0.495490
                              0.103443     0.447072
                              0.036685     0.116353
   59.1 A     1  3d1+    105911.200000    -0.000001
                          24974.572000    -0.000008
                           8108.852700    -0.000042
                           3150.520500    -0.000189
                           1380.647900    -0.000746
                            658.188950    -0.002504
                            332.909040    -0.007016
                            176.023220    -0.015063
                             95.780704    -0.022420
                             53.337287    -0.013378
                             29.864821     0.026555
                             16.526778     0.070496
                              9.155323     0.058301
[...]
                                    1  5  d1-  0.34316    1  8  d2-  0.37916    1  8  d1- -1.14008    2  5  s   -1.95948
                                    2  4  px   0.36048    2  4  py   0.83790    2  4  pz  -0.63296    3  4  s   -2.35308
                                    4  5  s   -0.92188    4  4  px   0.44560    4  4  py  -0.70149    5  3  s    1.03948
                                    5  4  s    3.19427    5  3  py  -0.25358    6  5  s   -0.30308    6  3  py   0.27635
                                    6  4  px   0.57589    6  4  py   0.86461    7  3  s    1.19263    7  4  s    4.28422
                                    8  5  s   -1.41817    8  4  py  -0.80288    8  4  pz   0.54435    9  4  s   -1.45454
                                   10  4  px  -0.34595   11  4  px  -0.65094   12  5  s   -0.30661   12  6  s   -0.78607
                                   12  5  px  -0.56290   12  5  pz  -0.27482   13  5  s    0.77994   14  5  s    0.58189
   94.1     0.00000     0.13949     1  6  s    0.41036    1  7  s    0.60379    1 11  s   -3.17827    1  5  px  -0.48785
                                    1  5  pz   0.26237    1  6  px  -2.13479    1  6  py   1.85354    1  6  pz   0.76248
                                    1  7  px   0.42004    1  7  py  -0.74174    1 10  px   1.87592    1 10  py  -5.27533
                                    1 10  pz  -2.23225    1  4  d2-  0.35253    1  4  d1+  0.36444    1  8  d0   0.84717
                                    1  8  d2-  1.03582    1  8  d1+  0.99556    1  8  d1-  0.28043    1  6  f3-  0.27522
                                    2  5  s    0.78521    2  4  pz   0.28231    3  4  s    1.27596    4  4  s   -0.26427
                                    4  5  s   -1.35278    4  3  py  -0.30099    4  4  py  -0.99028    4  4  pz   0.28577
                                    5  3  s    1.34637    5  4  s    5.51617    6  5  s   -0.30338    6  4  px  -0.33310
                                    6  4  py  -0.73385    7  3  s   -0.62727    7  4  s   -3.41199    8  5  s   -1.21553
                                    8  4  px  -0.28862    9  3  s    0.59353   10  5  s   -2.49895   10  4  px   0.26357
                                   10  4  pz   0.37255   11  5  s    3.00609   11  4  px  -0.60970   11  4  py   0.27611
                                   12  6  s    0.69464   12  4  py   0.49881   12  4  pz   0.52113   12  5  px  -0.25839
                                   12  5  py   0.71015   12  3  d1+ -0.31981
   95.1     0.00000     0.15381     1  5  s    0.38047    1  6  s    1.38701    1  7  s    1.94634    1 11  s   -5.83477
                                    1  5  px  -0.73113    1  5  py  -0.55187    1  5  pz   0.26812    1  6  px  -2.93663
                                    1  6  py   1.04220    1  7  px   0.57001    1  7  py  -1.32594    1  7  pz   0.44608
                                    1  8  py   0.30557    1 10  px  -0.39508    1 10  py  -6.70234    1 10  pz   2.53326
                                    1  8  d0   0.41763    1  8  d2+ -0.33216    2  4  s   -0.45686    2  5  s   -2.15922
                                    2  3  py  -0.49166    2  4  px  -0.52139    2  4  py  -1.55971    3  2  s    0.32365
                                    3  3  s    2.12583    3  4  s    7.19956    3  3  px  -0.27183    3  3  py  -0.42211
                                    4  5  s   -0.41782    4  4  px   0.31603    4  4  py  -0.48725    5  3  s    0.35705
                                    5  4  s    2.63357    6  5  s   -1.79381    6  4  px  -0.30946    6  4  pz  -0.43637
                                    7  3  s    0.63211    7  4  s   -0.31742    8  4  s    0.34036    8  5  s    0.94912
                                    8  3  py  -0.42379    8  4  py  -1.73400    8  4  pz   0.57172    9  2  s   -0.25034
                                    9  3  s   -1.62432    9  4  s   -5.55609    9  3  py  -0.30743   10  5  s   -1.78319
                                   10  4  px  -0.48631   10  4  py   0.55040   10  4  pz   0.34301   11  5  s   -0.70089
                                   11  4  px  -0.43585   11  4  pz  -0.28203   12  5  s    0.82191   12  6  s    6.53556
                                   12  5  px  -0.76014   12  5  py   0.77322   12  5  pz  -0.46990   13  5  s   -1.38215
                                   13  4  px   0.39231   14  5  s   -1.06832   14  4  py  -0.30180   14  4  pz   0.26797
   96.1     0.00000     0.15599     1  4  s   -0.28815    1  5  s   -0.91102    1  6  s   -3.34312    1  7  s   -4.73382
                                    1  8  s    0.34688    1 11  s   14.15281    1  5  px   0.83629    1  5  py  -0.38660
                                    1  5  pz   0.61593    1  6  px   5.74397    1  6  py  -0.64635    1  6  pz   2.14814
                                    1  7  px  -1.93184    1  7  pz  -0.28728    1  8  px   0.51865    1 10  px  -1.86123
                                    1 10  py  -3.49270    1  8  d0  -0.51079    1  8  d2- -0.25740    1  8  d1+  0.75941
                                    2  5  s    1.23029    2  4  px  -0.38128    2  4  py  -0.58126    2  4  pz   0.34322
                                    3  4  s    0.44921    4  5  s    1.92058    4  4  px   0.36289    4  4  py  -0.36216
                                    5  3  s   -0.63252    5  4  s   -0.79316    6  5  s    2.25950    6  4  py  -0.37729
                                    7  3  s   -1.16694    7  4  s   -3.74088    8  4  s    0.30142    8  5  s    1.72157
                                    8  3  py  -0.31661    8  4  py  -0.75480    9  3  s   -1.34406    9  4  s   -5.11927
                                    9  3  py  -0.31512   10  5  s    3.11392   10  4  px   1.16605   10  4  py  -0.93937
                                   10  4  pz  -0.56559   11  5  s    4.25301   11  3  pz   0.27839   11  4  px   0.95718
                                   11  4  py   0.84909   11  4  pz   1.26714   12  5  s   -2.42107   12  6  s  -17.06090
                                   12  5  px   2.32415   12  5  pz   0.60086   13  4  s    0.30166   13  5  s    3.20150
                                   13  3  px  -0.25403   13  4  px  -0.86711   13  4  py  -0.38842   13  4  pz   0.27001
                                   14  4  s    0.29843   14  5  s    3.39637   14  4  px  -0.55357   14  4  py   0.51308
                                   14  4  pz  -0.64052
   97.1     0.00000     0.19777     1  4  s    0.31499    1  5  s    1.03016    1  6  s    4.26426    1  7  s    6.92813
                                    1  8  s   -0.98278    1  9  s   -0.48262    1 11  s   -5.98896    1  4  px   0.41711
                                    1  5  px   2.38505    1  5  py  -0.93225    1  5  pz   0.32403    1  6  px   7.52687
                                    1  6  py  -2.56964    1  6  pz   1.30154    1  7  px  -0.61120    1 10  px  -2.37620
                                    1 10  py   1.24557    1 10  pz  -0.36235    1  4  d0  -0.64249    1  4  d1+  0.34931
                                    1  4  d2+  0.48881    1  4  d1- -0.30255    1  5  d0   0.39266    1  5  d2+ -0.28626
                                    1  8  d0  -1.04418    1  8  d2- -0.26143    1  8  d1+  0.84978    1  8  d2+  1.76978
                                    1  6  f3+  0.37292    1  6  f2- -0.32013    2  5  s    1.14081    2  4  pz  -0.36403
                                    3  3  s   -0.37950    3  4  s    0.64832    4  5  s    1.98975    4  4  px   0.61852
                                    5  3  s   -0.70662    5  4  s    0.86799    6  5  s    0.39184    6  4  px   0.39098
                                    7  4  s    1.05256    8  5  s    0.47197    8  4  pz   0.47226    9  4  s    1.01173
                                   10  5  s    1.48340   10  4  px  -0.53116   11  5  s    1.09642   11  3  px   0.31890
                                   11  4  px   0.36515   11  4  py  -0.60393   11  4  pz  -0.41662   12  6  s  -11.78706
                                   12  4  px   1.66154   12  4  pz   0.57292   12  5  px   5.24641   12  5  pz   1.85432
                                   13  5  s    1.34793   13  4  px  -1.23464   13  4  pz  -0.34846   14  5  s    1.54199
                                   14  4  px  -1.17761   14  4  pz  -0.48679
   98.1     0.00000     0.20409     1  6  s   -0.45988    1  7  s   -0.74300    1 11  s    0.81977    1  5  px  -0.49345
                                    1  5  py  -1.20689    1  5  pz   0.79076    1  6  px  -0.83225    1  6  py  -2.61349
                                    1  6  pz   1.39423    1  7  px  -0.27864    1  7  py  -0.37051    1  7  pz   0.42291
                                    1 10  px   0.81085    1 10  py   2.31463    1 10  pz  -1.74145    1  4  d2-  0.45129
                                    1  4  d1-  0.25935    1  5  d2- -0.30033    1  8  d0  -1.07918    1  8  d2-  2.39551
                                    1  8  d1+ -1.23890    1  8  d2+  0.81296    1  8  d1-  1.15900    1  6  f1+ -0.34536
                                    1  6  f1- -0.31589    1  6  f2-  0.42745    2  4  s    0.27595    2  5  s    2.52331
                                    2  4  px  -1.39521    2  4  py  -0.50857    3  4  s   -1.59568    4  5  s    0.61332
                                    4  4  py   0.47755    5  4  s    0.33398    6  5  s   -0.91365    6  4  py   0.80376
                                    6  4  pz  -0.43865    7  3  s    0.37927    7  4  s   -0.64360    8  5  s   -2.26018
                                    8  4  px   0.97668    8  4  py  -0.63166    8  4  pz   0.85256    9  4  s    1.43412
                                   10  4  py  -1.18366   10  4  pz   0.91112   11  5  s   -0.31015   11  4  px  -0.44236
                                   11  4  py  -0.77660   11  4  pz   0.77892   12  6  s    0.59573   12  4  py   0.63384
                                   12  4  pz  -0.81228   12  5  px   0.31230   12  5  py   1.33824   12  5  pz  -1.92801
                                   13  4  s   -0.30328   13  5  s   -1.80147   13  4  pz   0.36433   14  4  s    0.34805
                                   14  5  s    1.64000


 HOMO     88.1    -0.274682 =      -7.4745eV
 LUMO     89.1     0.104921 =       2.8550eV
 LUMO-HOMO         0.379603 =      10.3295eV

 Orbitals saved in record  2100.2


 **********************************************************************************************************************************
 DATASETS  * FILE   NREC   LENGTH (MB)   RECORD NAMES
              1      22       64.69       500      610      700      900      950      970     1000      129      960     1700   
                                          VAR    BASINP    GEOM    SYMINP    ZMAT    AOBASIS   BASIS     P2S    ABASIS    OPER   
                                         1101     1401     1411     1412     1650     1100     1400     1410     1200     1210   
                                          SR      EKINR    POTR     PVPR    MOLCAS      S      EKIN      POT      H0       H01  
                                         1080     1600   
                                         AOSYM     SMH  

              2       6       19.07       500      610      700     1000      520     2100   
                                          VAR    BASINP    GEOM     BASIS   MCVARS     RHF  

 PROGRAMS   *        TOTAL    HF-SCF       INT      FILE
 CPU TIMES  *      1774.08    918.59    855.28      0.02
 REAL TIME  *      1948.73 SEC
 DISK USED  *       114.90 MB (local),      284.80 GB (total)
 GA USED    *         0.01 MB       (max)       0.00 MB       (current)
 **********************************************************************************************************************************


 PROGRAM * CCSD (Closed-shell coupled cluster)     Authors: C. Hampel, H.-J. Werner, 1991, M. Deegan, P.J. Knowles, 1992


 Convergence thresholds:  THRVAR = 1.00D-08  THRDEN = 1.00D-06

 CCSD(T)     terms to be evaluated (factor= 1.000)


 Number of core orbitals:          52 (  52 )
 Number of closed-shell orbitals:  36 (  36 )
 Number of external orbitals:     583 ( 583 )

 Molecular orbitals read from record     2100.2  Type=RHF/CANONICAL  

 Number of N-1 electron functions:              36
 Number of N-2 electron functions:             666
 Number of singly external CSFs:             20988
 Number of doubly external CSFs:         220258566
 Total number of CSFs:                   220279555

 Length of J-op  integral file:               0.00 MB
 Length of K-op  integral file:              30.92 MB
 Length of 3-ext integral record:             0.00 MB

 For full I/O caching in triples, increase memory by 3126.01 Mwords to 8126.06 Mwords.

 Multipassing necessary in transformation. To avoid, increase memory by 1076.93 Mwords.

 Integral transformation finished. Total CPU:3761.75 sec, npass=  2  Memory used:4863.89 MW

 Reference energy:                 -28221.95132527

 MP2 singlet pair energy:              -1.55133493
 MP2 triplet pair energy:              -1.06546404
 MP2 correlation energy:               -2.61679897
 MP2 total energy:                 -28224.56812424

 SCS-MP2 correlation energy:           -2.52455732   (PS=  1.200000  PT=  0.333333)
 SCS-MP2 total energy:             -28224.47588259

 ITER.      SQ.NORM     CORR.ENERGY   TOTAL ENERGY   ENERGY CHANGE        DEN1      VAR(S)    VAR(P)  DIIS     TIME  TIME/IT
   1      1.64175933    -2.60087581-28224.55220108     0.01592316     0.10849597  0.37D-01  0.17D-01  1  1  6338.64  2587.35
   2      1.68999194    -2.58979969-28224.54112496     0.01107612    -0.06570041  0.55D-03  0.28D-02  2  2  9608.24  3027.11
   3      1.71762548    -2.59244564-28224.54377091    -0.00264594    -0.00813131  0.15D-02  0.19D-03  3  3 12530.40  3046.21
   4      1.73209197    -2.59075282-28224.54207809     0.00169281    -0.00499721  0.20D-03  0.46D-04  4  4 15590.13  3092.75
   5      1.74274946    -2.59013598-28224.54146125     0.00061684    -0.00227744  0.50D-04  0.64D-05  5  5 18365.47  3057.52
   6      1.74594807    -2.58996029-28224.54128556     0.00017569    -0.00029381  0.86D-05  0.23D-05  6  6 21264.16  3054.33
   7      1.74743687    -2.58983163-28224.54115690     0.00012865    -0.00004725  0.24D-05  0.52D-06  6  1 23709.03  2987.81
   8      1.74797628    -2.58980876-28224.54113403     0.00002288    -0.00007238  0.63D-06  0.13D-06  6  2 26197.18  2942.07
   9      1.74803015    -2.58982775-28224.54115302    -0.00001899     0.00003613  0.13D-06  0.44D-07  6  3 29025.86  2945.94
  10      1.74814716    -2.58980826-28224.54113353     0.00001949    -0.00002882  0.52D-07  0.97D-08  6  4 31679.75  2927.20
  11      1.74811198    -2.58982010-28224.54114537    -0.00001184     0.00000893  0.12D-07  0.42D-08  6  5 34131.08  2894.65
  12      1.74814503    -2.58981632-28224.54114159     0.00000378    -0.00000672  0.38D-08  0.80D-09  6  6 37113.01  2912.44
  13      1.74815125    -2.58981625-28224.54114152     0.00000007    -0.00000105  0.93D-09  0.36D-09  6  3 39546.03  2884.53
  14      1.74815967    -2.58981526-28224.54114053     0.00000100    -0.00000099  0.15D-09  0.58D-10  6  1 42192.32  2876.00

 Norm of t1 vector:      0.26647694      S-energy:     0.00000009      T1 diagnostic:  0.02220641
                                                                       D1 diagnostic:  0.07410627
                                                                       D2 diagnostic:  0.14133059 (internal)

   CPU time for triples:   2766.61 sec for i =  1 -  5 / 36 (~   0.4 % done)
   CPU time for triples:   1864.55 sec for i =  6 -  6 / 36 (~   0.6 % done)
   CPU time for triples:   2784.87 sec for i =  7 -  7 / 36 (~   0.9 % done)
   CPU time for triples:   3399.74 sec for i =  8 -  8 / 36 (~   1.3 % done)
   CPU time for triples:  10571.14 sec for i =  9 - 18 / 36 (~  13.4 % done)
   CPU time for triples:   3210.57 sec for i = 19 - 19 / 36 (~  15.6 % done)
   CPU time for triples:  12607.21 sec for i = 20 - 23 / 36 (~  27.1 % done)
   CPU time for triples:  13213.22 sec for i = 24 - 26 / 36 (~  38.7 % done)
   CPU time for triples:   5899.91 sec for i = 27 - 29 / 36 (~  53.2 % done)
   CPU time for triples:   5888.87 sec for i = 30 - 30 / 36 (~  58.7 % done)
   CPU time for triples:   5869.98 sec for i = 31 - 31 / 36 (~  64.6 % done)
   CPU time for triples:   5872.58 sec for i = 32 - 32 / 36 (~  70.9 % done)
   CPU time for triples:   8872.38 sec for i = 33 - 33 / 36 (~  77.5 % done)
   CPU time for triples:   5921.62 sec for i = 34 - 34 / 36 (~  84.6 % done)
   CPU time for triples:   8887.47 sec for i = 35 - 35 / 36 (~  92.1 % done)
   CPU time for triples:   7853.10 sec for i = 36 - 36 / 36 (  100.0 % done)

 Total CPU time for triples: 105593.54 sec


 RESULTS
 =======

  Reference energy                   -28221.9513252698    
  CCSD singlet pair energy             -1.653890096008
  CCSD triplet pair energy             -0.935925248463
  CCSD correlation energy              -2.589815257100

  Triples (T) contribution             -0.127032399588
  Total correlation energy             -2.716847656687

  CCSD total energy                  -28224.5411405269    
  CCSD[T] energy                     -28224.6817140489    
  CCSD-T energy                      -28224.6633209408    
 !CCSD(T) total energy               -28224.6681729265    

 Timing summary (sec):

 STEP                 CPU(USER)    SYS     CPU(TOT)    WALL
 Transformation       3772.06    129.33   3901.39   3922.13
 CCSD iterations     38493.45    523.66  39017.11  40333.93
 Triples            105593.54    982.14 106575.68 106733.32

 Program statistics:

 Available memory in ccsd:              4999994728
 Min. memory needed in ccsd:             488706660
 Max. memory used in ccsd:               698885046
 Max. memory used in cckext:             605554779 (14 integral passes)



 **********************************************************************************************************************************
 DATASETS  * FILE   NREC   LENGTH (MB)   RECORD NAMES
              1      23    30764.08       500      610      700      900      950      970     1000      129      960     1700   
                                          VAR    BASINP    GEOM    SYMINP    ZMAT    AOBASIS   BASIS     P2S    ABASIS    OPER   
                                         1101     1401     1411     1412     1650     1100     1400     1410     1200     1210   
                                          SR      EKINR    POTR     PVPR    MOLCAS      S      EKIN      POT      H0       H01  
                                         1080     1600     1380   
                                         AOSYM     SMH     JKOP   

              2       6       19.07       500      610      700     1000      520     2100   
                                          VAR    BASINP    GEOM     BASIS   MCVARS     RHF  

 PROGRAMS   *        TOTAL   CCSD(T)    HF-SCF       INT      FILE
 CPU TIMES  *    149633.40 147859.22    918.59    855.28      0.02
 REAL TIME  *    152943.17 SEC
 DISK USED  *        50.30 GB (local),      544.63 GB (total)
 SF USED    *        51.82 GB
 GA USED    *         0.01 MB       (max)       0.00 MB       (current)
 **********************************************************************************************************************************
 SETTING ENERGY_HF(1)   =    -28221.95132527  AU                              
 SETTING CORR_MP2(1)    =        -2.61679897  AU                              
 SETTING CORR_CCSDT(1)  =        -2.71684766  AU                              

 CCSD(T)/PA=CC-PVTZ-X2C,O=AUG-CC-PVTZ-X2C,H=AUG-CC-PVTZ-X2C,S=AUG-CC-PVTZ-X2C energy= -28224.668172926482

         CCSD(T)          HF-SCF
 -28224.66817293 -28221.95132527
 **********************************************************************************************************************************
 Molpro calculation terminated
