
 Working directory              : /state/partition2/shaaban/918270.phlam-s-sakura/molpro.mzegDFlFYp/
 Global scratch directory       : /state/partition2/shaaban/918270.phlam-s-sakura/molpro.mzegDFlFYp/
 Wavefunction directory         : /home/shaaban/wfu/
 Main file repository           : /state/partition2/shaaban/918270.phlam-s-sakura/molpro.mzegDFlFYp/

 id        : lill

 Nodes      nprocs
 u-0-9.local    8
 GA implementation: MPI file
 GA implementation (serial work in mppx): MPI file

 Using customized tuning parameters: mindgm=1; mindgv=20; mindgc=4; mindgr=1; noblas=0; minvec=7
 default implementation of scratch files=sf  


 Variables initialized (1015), CPU time= 0.01 sec
 ***,PaO(OH)2(NCS)(H2O) - MP2 and CCSD(T)
 memory,2500, m;
 file, 1, pao_oh2_N_h2o.ccsd-tx.int, new;
 file, 2, pao_oh2_N_h2o.ccsd-tx.wfu, new;
 
 gprint, basis;
 gprint, orbital=10;
 
 nosym;
 
 geomtyp=xyz;
 
 geometry={
 Including file /home/shaaban/molpro/thiocyanate/N/pao_oh2_N_h2o/pao_oh2_N_h2o.SR.b3lyp.tz2p.xyz
 }
 
 charge=0;
 
                                                                                 ! Select X2C SR Hamiltonian
 SET,DKHO=101
 
                                                                                 ! Calculation with VTZ basis set
 basis={
 Pa=cc-pVTZ-X2C;
 O=aug-cc-pVTZ-X2C;
 H=aug-cc-pVTZ-X2C;
 N=aug-cc-pVTZ-X2C;
 C=aug-cc-pVTZ-X2C;
 S=aug-cc-pVTZ-X2C;
 }
 
                                                                                 ! Hartree-Fock calculation
 {hf;}
 
                                                                                 ! MP2 and CCSD(T) calculation
 {ccsd(t);}
 
                                                                  ! Save HF energy and CCSD(T) correlation energy for VTZ basis set
 energy_hf(1) = energr(1);
 corr_mp2(1) = EMP2-energr(1);
 corr_ccsdt(1) = ENERGT(1)-energr(1);
 
 Commands initialized (834), CPU time= 0.00 sec, 672 directives.
 Default parameters read. Elapsed time= 2.01 sec

 Checking input...
 Passed
1


                                         ***  PROGRAM SYSTEM MOLPRO  ***
                                       Copyright, TTI GmbH Stuttgart, 2015
                                    Version 2022.2 linked Thu Sep 29 12:37:28 2022


 **********************************************************************************************************************************
 LABEL *   PaO(OH)2(NCS)(H2O) - MP2 and CCSD(T)                                          
  64 bit mpp version                                                                     DATE: 11-Jan-23          TIME: 11:53:34  
 **********************************************************************************************************************************

 SHA1:             51306cdc306ce2a111a2867affebcb289530e0a7
 **********************************************************************************************************************************

 Memory per process:      2500 MW
 Total memory per node:  20000 MW

 GA preallocation disabled
 GA check disabled

 Variable memory set to 2500.0 MW



 Permanent file  1  pao_oh2_n_h2o.ccsd-tx.int        assigned.  Implementation=df  
 Permanent file  2  pao_oh2_n_h2o.ccsd-tx.wfu        assigned.  Implementation=df  



 **********************************************************************************************************************************
 DATASETS  * FILE   NREC   LENGTH (MB)   RECORD NAMES
              1       1        0.03       500   
                                          VAR  

              2       1        0.03       500   
                                          VAR  

 PROGRAMS   *        TOTAL      FILE
 CPU TIMES  *         0.45      0.01
 REAL TIME  *         2.20 SEC
 DISK USED  *         0.10 MB (local),        0.81 MB (total)
 **********************************************************************************************************************************


 SETTING GEOMTYP        =    XYZ
 ZSYMEL=NOSYM

 SETTING CHARGE         =      0.0000000D+00                                  
 SETTING DKHO           =       101.00000000                                  
 SETTING BASIS          =    PA=CC-PVTZ-X2C,O=AUG-CC-PVTZ-X2C,H=AUG-CC-PVTZ-X2C,N=AUG-CC-PVTZ-X2C,C=AUG-CC-PVTZ-X2C,S=AUG-CC-PVTZ-X2C


 Recomputing integrals since basis changed


 Using spherical harmonics

 Library entry PA     S cc-pVTZ-X2C          selected for orbital group  1
 Library entry PA     P cc-pVTZ-X2C          selected for orbital group  1
 Library entry PA     D cc-pVTZ-X2C          selected for orbital group  1
 Library entry PA     F cc-pVTZ-X2C          selected for orbital group  1
 Library entry PA     G cc-pVTZ-X2C          selected for orbital group  1
 Library entry PA     H cc-pVTZ-X2C          selected for orbital group  1
 Library entry O      S aug-cc-pVTZ-X2C      selected for orbital group  2
 Library entry O      P aug-cc-pVTZ-X2C      selected for orbital group  2
 Library entry O      D aug-cc-pVTZ-X2C      selected for orbital group  2
 Library entry O      F aug-cc-pVTZ-X2C      selected for orbital group  2
 Library entry H      S aug-cc-pVTZ-X2C      selected for orbital group  3
 Library entry H      P aug-cc-pVTZ-X2C      selected for orbital group  3
 Library entry H      D aug-cc-pVTZ-X2C      selected for orbital group  3
 Library entry N      S aug-cc-pVTZ-X2C      selected for orbital group 10
 Library entry N      P aug-cc-pVTZ-X2C      selected for orbital group 10
 Library entry N      D aug-cc-pVTZ-X2C      selected for orbital group 10
 Library entry N      F aug-cc-pVTZ-X2C      selected for orbital group 10
 Library entry C      S aug-cc-pVTZ-X2C      selected for orbital group 11
 Library entry C      P aug-cc-pVTZ-X2C      selected for orbital group 11
 Library entry C      D aug-cc-pVTZ-X2C      selected for orbital group 11
 Library entry C      F aug-cc-pVTZ-X2C      selected for orbital group 11
 Library entry S      S aug-cc-pVTZ-X2C      selected for orbital group 12
 Library entry S      P aug-cc-pVTZ-X2C      selected for orbital group 12
 Library entry S      D aug-cc-pVTZ-X2C      selected for orbital group 12
 Library entry S      F aug-cc-pVTZ-X2C      selected for orbital group 12


 PROGRAM * SEWARD (Integral evaluation for generally contracted gaussian basis sets)     Author: Roland Lindh, 1990

 Geometry written to block  1 of record 700


 Point group  C1  



 ATOMIC COORDINATES

 NR  ATOM    CHARGE       X              Y              Z

   1  PA     91.00    1.088665990   -0.560015066   -0.363411663
   2  O       8.00    1.419052605    2.293189238   -3.148275139
   3  H       1.00    1.642189750    4.063861061   -3.475858509
   4  O       8.00    0.786992205    1.392596833    2.505443216
   5  H       1.00   -3.222266952   -4.454781190    1.457610849
   6  O       8.00   -0.508106367   -3.141208850   -2.997878335
   7  H       1.00   -0.637722634   -3.446946619   -4.786311520
   8  O       8.00   -2.226083469   -3.088195974    2.136648133
   9  H       1.00   -2.837733047   -2.656826527    3.797827165
  10  N       7.00    5.041806574   -2.432074953    0.043191160
  11  C       6.00    7.080571957   -3.363241470    0.265900457
  12  S      16.00    9.796059599   -4.614246069    0.566600836

 Bond lengths in Bohr (Angstrom)

 1-2  4.000674280  1-3  5.601244893  1-4  3.483393262  1-5  6.088470168  1-6  4.019036944
     ( 2.117065657)     ( 2.964051150)     ( 1.843332331)     ( 3.221879662)     ( 2.126782760)

  1- 7  5.556692777   1- 8  4.861024755   1- 9  6.093368222   1-10  4.392864049   1-11  6.645077059
       ( 2.940475185)       ( 2.572343522)       ( 3.224471601)       ( 2.324603545)       ( 3.516423345)

  2- 3  1.814491597   5- 8  1.822368875   6- 7  1.819002259   8- 9  1.822007295  10-11  2.252384248
       ( 0.960187603)       ( 0.964356079)       ( 0.962574542)       ( 0.964164738)       ( 1.191910414)

 11-12  3.004880424
       ( 1.590114242)

 Bond angles

  1-2-3  146.28253560   1-3-2   23.35813917   1-5-8   40.94775526   1-6-7  141.32833863

  1-7-6   26.86856664   1-8-5  124.82936573   1-8-9  125.07796245   1-9-8   40.75763738

  1-10-11  179.13104329   1-11-10    0.57442920   1-11-12  179.54419272   2- 1- 3   10.35932523

  2-1-4  100.40893196   2-1-5  136.29357734   2-1-6   91.98021597   2-1-7   80.91603854

  2- 1- 8  141.74303603   2- 1- 9  140.71480991   2- 1-10  107.10017156   2- 1-11  106.99648519

  3-1-4   90.19823541   3-1-5  139.83960731   3-1-6  101.84108195   3-1-7   90.99111590

  3- 1- 8  141.49121379   3- 1- 9  136.65394341   3- 1-10  108.31864526   3- 1-11  108.16513907

  4-1-5   92.91952955   4-1-6  149.93467141   4-1-7  156.90535120   4-1-8   78.98351078

  4- 1- 9   64.82743444   4- 1-10  103.92119185   4- 1-11  103.68374035   5- 1- 6   60.25811850

  5- 1- 7   71.68367467   5- 1- 8   14.22287901   5- 1- 9   28.28156446   5- 1-10  109.68672571

  5- 1-11  109.89338219   5- 8- 9  109.49685735   6- 1- 7   11.80309474   6- 1- 8   74.46541923

  6- 1- 9   88.31711819   6- 1-10   98.30878019   6- 1-11   98.59203493   7- 1- 8   85.83091650

  7- 1- 9   99.47350693   7- 1-10   97.57669964   7- 1-11   97.83722954   8- 1- 9   14.16440017

  8- 1-10  110.14510885   8- 1-11  110.28980748   9- 1-10  111.71645632   9- 1-11  111.78939343

 10- 1-11    0.29452751  10-11-12  179.80114106


 BASIS DATA

   Nr Sym  Nuc  Type         Exponents   Contraction coefficients

    1.1 A     1  1s    57606659.000000     0.002669    0.000875   -0.001011   -0.000162    0.000138   -0.000062
                                           0.000029    0.000051   -0.000067   -0.000085    0.000000
    2.1 A              15333099.000000     0.001763    0.000577   -0.000669   -0.000107    0.000091   -0.000041
                                           0.000019    0.000034   -0.000045   -0.000056    0.000000
    3.1 A               5244434.800000     0.005688    0.001860   -0.002159   -0.000346    0.000294   -0.000133
                                           0.000061    0.000110   -0.000144   -0.000182    0.000000
    4.1 A               1993947.300000     0.005833    0.001897   -0.002226   -0.000357    0.000304   -0.000137
                                           0.000063    0.000114   -0.000148   -0.000188    0.000000
    5.1 A                831464.670000     0.012471    0.004046   -0.004768   -0.000766    0.000651   -0.000294
                                           0.000135    0.000243   -0.000318   -0.000402    0.000000
    6.1 A                367473.800000     0.015337    0.004923   -0.005922   -0.000954    0.000810   -0.000366
                                           0.000168    0.000303   -0.000396   -0.000502    0.000000
    7.1 A                170948.980000     0.027802    0.008860   -0.010807   -0.001745    0.001481   -0.000669
                                           0.000307    0.000553   -0.000723   -0.000913    0.000000
    8.1 A                 82498.208000     0.037893    0.011845   -0.014983   -0.002432    0.002060   -0.000931
                                           0.000428    0.000771   -0.001008   -0.001281    0.000000
    9.1 A                 41068.557000     0.063446    0.019489   -0.025472   -0.004156    0.003514   -0.001588
                                           0.000730    0.001312   -0.001713   -0.002158    0.000000
   10.1 A                 20931.097000     0.090970    0.026964   -0.037612   -0.006192    0.005220   -0.002360
                                           0.001084    0.001959   -0.002562   -0.003271    0.000000
   11.1 A                 10881.858000     0.141353    0.040137   -0.060450   -0.010069    0.008456   -0.003823
                                           0.001756    0.003150   -0.004109   -0.005142    0.000000
                           5751.850200     0.192150    0.050328   -0.087023   -0.014758    0.012320   -0.005570
                                           0.002559    0.004641   -0.006081   -0.007843    0.000000
                           3085.413800     0.245625    0.057494   -0.119370   -0.020746    0.017180   -0.007769
                                           0.003568    0.006365   -0.008281   -0.010186    0.000000
                           1676.302600     0.236828    0.048791   -0.122988   -0.021795    0.017936   -0.008112
                                           0.003728    0.006861   -0.009046   -0.012129    0.000000
                            920.364860     0.144288    0.051386   -0.045258   -0.005640    0.005268   -0.002373
                                           0.001085    0.001652   -0.001974   -0.001042    0.000000
                            507.302700    -0.025759    0.115725    0.203246    0.056561   -0.041187    0.018724
                                          -0.008598   -0.014902    0.019190    0.021482    0.000000
                            285.301180    -0.127248    0.207489    0.548666    0.172341   -0.122683    0.055908
                                          -0.025737   -0.047910    0.063712    0.088054    0.000000
                            162.083520    -0.106345    0.166212    0.606264    0.222723   -0.155054    0.070944
                                          -0.032607   -0.056240    0.072273    0.078654    0.000000
                             92.502257    -0.075897    0.111536    0.036795   -0.036386    0.019294   -0.009062
                                           0.004086    0.001475    0.001168    0.030443    0.000000
                             54.996696    -0.159518    0.199400   -0.676887   -0.645265    0.447335   -0.211910
                                           0.098395    0.193270   -0.267108   -0.419400    0.000000
                             32.498055    -0.126680    0.162427   -0.590845   -0.685716    0.477369   -0.227312
                                           0.105023    0.171409   -0.214999   -0.161690    0.000000
                             19.139224    -0.031866    0.038627   -0.102127    0.187644   -0.152132    0.072681
                                          -0.032972   -0.027495    0.028200   -0.136514    0.000000
                             11.382710     0.001867    0.000895    0.103491    0.862021   -0.976205    0.547811
                                          -0.263192   -0.581563    0.872312    1.708580    0.000000
                              6.786052     0.000710   -0.001446    0.057992    0.445035   -0.716251    0.417708
                                          -0.198179   -0.257965    0.233684   -0.803168    0.000000
                              4.149622     0.000624    0.000224    0.007493    0.066545    0.448492   -0.350229
                                           0.170540    0.219139   -0.310498    1.111350    0.000000
                              2.398648    -0.000456    0.000036    0.000333    0.014140    0.872214   -0.849732
                                           0.456257    1.306370   -2.312230   -7.677220    0.000000
                              1.389239     0.000090    0.000196   -0.000539    0.002102    0.319316   -0.431871
                                           0.230358    0.273179    0.312923   10.897300    0.000000
                              0.799685    -0.000092   -0.000045    0.000120    0.000488    0.047531    0.436228
                                          -0.277578   -1.772950    4.829150   -2.756210    0.000000
                              0.427327     0.000032    0.000027   -0.000069   -0.000720    0.030738    0.715435
                                          -0.561943   -0.897998   -3.625440   -6.603630    0.000000
                              0.220940    -0.000014   -0.000008    0.000023   -0.000086    0.010089    0.233487
                                          -0.326569    1.531090   -1.220420    6.760400    0.000000
                              0.086038     0.000004    0.000003   -0.000008   -0.000060    0.001152    0.063336
                                           0.301677    1.025940    2.677810   -2.145480    0.000000
                              0.041219    -0.000002   -0.000001    0.000004   -0.000044    0.001537    0.118995
                                           0.692734   -0.772162   -0.536170   -1.021350    0.000000
                              0.018781     0.000001    0.000000   -0.000001   -0.000024    0.000590    0.043903
                                           0.253879   -0.484754   -0.805222    1.252960    1.000000
   12.1 A     1  2px   52575799.000000     0.000013
                       15301659.000000     0.000017
                        4822461.600000     0.000052
                        1632045.600000     0.000107
                         584338.640000     0.000256
                         219508.320000     0.000572
                          86085.039000     0.001336
                          35172.956000     0.003129
                          14975.745000     0.007503
                           6652.821900     0.017986
                           3084.270200     0.042103
                           1489.211300     0.090969
                            745.288670     0.167976
                            384.521300     0.234709
                            203.927220     0.220200
                            110.523340     0.174708
                             61.345569     0.190642
                             34.404375     0.137246
                             19.094147     0.033402
                             10.684628    -0.000867
                              5.931463    -0.000935
                              3.230992    -0.000009
                              1.730655     0.000164
                              0.869483     0.000022
                              0.440589     0.000009
                              0.215859    -0.000000
                              0.091015     0.000001
                              0.040174    -0.000000
                              0.017215     0.000000
   13.1 A     1  2py   52575799.000000     0.000013
                       15301659.000000     0.000017
                        4822461.600000     0.000052
                        1632045.600000     0.000107
                         584338.640000     0.000256
                         219508.320000     0.000572
                          86085.039000     0.001336
                          35172.956000     0.003129
                          14975.745000     0.007503
                           6652.821900     0.017986
                           3084.270200     0.042103
                           1489.211300     0.090969
                            745.288670     0.167976
                            384.521300     0.234709
                            203.927220     0.220200
                            110.523340     0.174708
                             61.345569     0.190642
                             34.404375     0.137246
                             19.094147     0.033402
                             10.684628    -0.000867
                              5.931463    -0.000935
                              3.230992    -0.000009
                              1.730655     0.000164
                              0.869483     0.000022
                              0.440589     0.000009
                              0.215859    -0.000000
                              0.091015     0.000001
                              0.040174    -0.000000
                              0.017215     0.000000
   14.1 A     1  2pz   52575799.000000     0.000013
                       15301659.000000     0.000017
                        4822461.600000     0.000052
                        1632045.600000     0.000107
                         584338.640000     0.000256
                         219508.320000     0.000572
                          86085.039000     0.001336
                          35172.956000     0.003129
                          14975.745000     0.007503
                           6652.821900     0.017986
                           3084.270200     0.042103
                           1489.211300     0.090969
                            745.288670     0.167976
                            384.521300     0.234709
                            203.927220     0.220200
                            110.523340     0.174708
                             61.345569     0.190642
                             34.404375     0.137246
                             19.094147     0.033402
                             10.684628    -0.000867
                              5.931463    -0.000935
                              3.230992    -0.000009
                              1.730655     0.000164
                              0.869483     0.000022
                              0.440589     0.000009
                              0.215859    -0.000000
                              0.091015     0.000001
                              0.040174    -0.000000
                              0.017215     0.000000
   15.1 A     1  2px   52575799.000000    -0.000015
                       15301659.000000    -0.000020
                        4822461.600000    -0.000063
                        1632045.600000    -0.000128
                         584338.640000    -0.000307
                         219508.320000    -0.000688
                          86085.039000    -0.001611
                          35172.956000    -0.003789
                          14975.745000    -0.009145
                           6652.821900    -0.022135
                           3084.270200    -0.052666
                           1489.211300    -0.116756
                            745.288670    -0.223673
                            384.521300    -0.322150
                            203.927220    -0.236330
                            110.523340     0.145050
                             61.345569     0.527334
                             34.404375     0.400957
                             19.094147     0.019469
                             10.684628    -0.122609
                              5.931463    -0.050931
                              3.230992    -0.002720
                              1.730655     0.002231
                              0.869483     0.000423
                              0.440589     0.000084
                              0.215859     0.000018
                              0.091015     0.000006
                              0.040174    -0.000002
                              0.017215     0.000001
   16.1 A     1  2py   52575799.000000    -0.000015
                       15301659.000000    -0.000020
                        4822461.600000    -0.000063
                        1632045.600000    -0.000128
                         584338.640000    -0.000307
                         219508.320000    -0.000688
                          86085.039000    -0.001611
                          35172.956000    -0.003789
                          14975.745000    -0.009145
                           6652.821900    -0.022135
                           3084.270200    -0.052666
                           1489.211300    -0.116756
                            745.288670    -0.223673
                            384.521300    -0.322150
                            203.927220    -0.236330
                            110.523340     0.145050
                             61.345569     0.527334
                             34.404375     0.400957
                             19.094147     0.019469
                             10.684628    -0.122609
                              5.931463    -0.050931
                              3.230992    -0.002720
                              1.730655     0.002231
                              0.869483     0.000423
                              0.440589     0.000084
                              0.215859     0.000018
                              0.091015     0.000006
                              0.040174    -0.000002
                              0.017215     0.000001
   17.1 A     1  2pz   52575799.000000    -0.000015
                       15301659.000000    -0.000020
                        4822461.600000    -0.000063
                        1632045.600000    -0.000128
                         584338.640000    -0.000307
                         219508.320000    -0.000688
                          86085.039000    -0.001611
                          35172.956000    -0.003789
                          14975.745000    -0.009145
                           6652.821900    -0.022135
                           3084.270200    -0.052666
                           1489.211300    -0.116756
                            745.288670    -0.223673
                            384.521300    -0.322150
                            203.927220    -0.236330
                            110.523340     0.145050
                             61.345569     0.527334
                             34.404375     0.400957
                             19.094147     0.019469
                             10.684628    -0.122609
                              5.931463    -0.050931
                              3.230992    -0.002720
                              1.730655     0.002231
                              0.869483     0.000423
                              0.440589     0.000084
                              0.215859     0.000018
                              0.091015     0.000006
                              0.040174    -0.000002
                              0.017215     0.000001
   18.1 A     1  2px   52575799.000000     0.000002
                       15301659.000000     0.000002
                        4822461.600000     0.000007
                        1632045.600000     0.000015
                         584338.640000     0.000036
                         219508.320000     0.000081
                          86085.039000     0.000191
                          35172.956000     0.000452
                          14975.745000     0.001103
                           6652.821900     0.002719
                           3084.270200     0.006655
                           1489.211300     0.015415
                            745.288670     0.031304
                            384.521300     0.047289
                            203.927220     0.017930
                            110.523340    -0.123036
                             61.345569    -0.327485
                             34.404375    -0.190153
                             19.094147     0.365341
                             10.684628     0.614487
                              5.931463     0.253665
                              3.230992     0.025247
                              1.730655     0.001457
                              0.869483    -0.000189
                              0.440589     0.000178
                              0.215859    -0.000001
                              0.091015     0.000034
                              0.040174    -0.000010
                              0.017215     0.000003
   19.1 A     1  2py   52575799.000000     0.000002
                       15301659.000000     0.000002
                        4822461.600000     0.000007
                        1632045.600000     0.000015
                         584338.640000     0.000036
                         219508.320000     0.000081
                          86085.039000     0.000191
                          35172.956000     0.000452
                          14975.745000     0.001103
                           6652.821900     0.002719
                           3084.270200     0.006655
                           1489.211300     0.015415
                            745.288670     0.031304
                            384.521300     0.047289
                            203.927220     0.017930
                            110.523340    -0.123036
                             61.345569    -0.327485
                             34.404375    -0.190153
                             19.094147     0.365341
                             10.684628     0.614487
                              5.931463     0.253665
                              3.230992     0.025247
                              1.730655     0.001457
                              0.869483    -0.000189
                              0.440589     0.000178
                              0.215859    -0.000001
                              0.091015     0.000034
                              0.040174    -0.000010
                              0.017215     0.000003
   20.1 A     1  2pz   52575799.000000     0.000002
                       15301659.000000     0.000002
                        4822461.600000     0.000007
                        1632045.600000     0.000015
                         584338.640000     0.000036
                         219508.320000     0.000081
                          86085.039000     0.000191
                          35172.956000     0.000452
                          14975.745000     0.001103
                           6652.821900     0.002719
                           3084.270200     0.006655
                           1489.211300     0.015415
                            745.288670     0.031304
                            384.521300     0.047289
                            203.927220     0.017930
                            110.523340    -0.123036
                             61.345569    -0.327485
                             34.404375    -0.190153
                             19.094147     0.365341
                             10.684628     0.614487
                              5.931463     0.253665
                              3.230992     0.025247
                              1.730655     0.001457
                              0.869483    -0.000189
                              0.440589     0.000178
                              0.215859    -0.000001
                              0.091015     0.000034
                              0.040174    -0.000010
                              0.017215     0.000003
   21.1 A     1  2px   52575799.000000    -0.000002
                       15301659.000000    -0.000003
                        4822461.600000    -0.000009
                        1632045.600000    -0.000018
                         584338.640000    -0.000043
                         219508.320000    -0.000097
                          86085.039000    -0.000228
                          35172.956000    -0.000537
                          14975.745000    -0.001302
                           6652.821900    -0.003177
                           3084.270200    -0.007652
                           1489.211300    -0.017311
                            745.288670    -0.034068
                            384.521300    -0.050256
                            203.927220    -0.027762
                            110.523340     0.078094
                             61.345569     0.225253
                             34.404375     0.124053
                             19.094147    -0.273486
                             10.684628    -0.553839
                              5.931463    -0.065277
                              3.230992     0.618524
                              1.730655     0.501044
                              0.869483     0.107343
                              0.440589     0.023201
                              0.215859     0.014691
                              0.091015     0.001511
                              0.040174     0.000132
                              0.017215    -0.000015
   22.1 A     1  2py   52575799.000000    -0.000002
                       15301659.000000    -0.000003
                        4822461.600000    -0.000009
                        1632045.600000    -0.000018
                         584338.640000    -0.000043
                         219508.320000    -0.000097
                          86085.039000    -0.000228
                          35172.956000    -0.000537
                          14975.745000    -0.001302
                           6652.821900    -0.003177
                           3084.270200    -0.007652
                           1489.211300    -0.017311
                            745.288670    -0.034068
                            384.521300    -0.050256
                            203.927220    -0.027762
                            110.523340     0.078094
                             61.345569     0.225253
                             34.404375     0.124053
                             19.094147    -0.273486
                             10.684628    -0.553839
                              5.931463    -0.065277
                              3.230992     0.618524
                              1.730655     0.501044
                              0.869483     0.107343
                              0.440589     0.023201
                              0.215859     0.014691
                              0.091015     0.001511
                              0.040174     0.000132
                              0.017215    -0.000015
   23.1 A     1  2pz   52575799.000000    -0.000002
                       15301659.000000    -0.000003
                        4822461.600000    -0.000009
                        1632045.600000    -0.000018
                         584338.640000    -0.000043
                         219508.320000    -0.000097
                          86085.039000    -0.000228
                          35172.956000    -0.000537
                          14975.745000    -0.001302
                           6652.821900    -0.003177
                           3084.270200    -0.007652
                           1489.211300    -0.017311
                            745.288670    -0.034068
                            384.521300    -0.050256
                            203.927220    -0.027762
                            110.523340     0.078094
                             61.345569     0.225253
                             34.404375     0.124053
                             19.094147    -0.273486
                             10.684628    -0.553839
                              5.931463    -0.065277
                              3.230992     0.618524
                              1.730655     0.501044
                              0.869483     0.107343
                              0.440589     0.023201
                              0.215859     0.014691
                              0.091015     0.001511
                              0.040174     0.000132
                              0.017215    -0.000015
   24.1 A     1  2px   52575799.000000     0.000001
                       15301659.000000     0.000001
                        4822461.600000     0.000004
                        1632045.600000     0.000008
                         584338.640000     0.000019
                         219508.320000     0.000043
                          86085.039000     0.000102
                          35172.956000     0.000240
                          14975.745000     0.000583
                           6652.821900     0.001422
                           3084.270200     0.003426
                           1489.211300     0.007745
                            745.288670     0.015249
                            384.521300     0.022470
                            203.927220     0.012451
                            110.523340    -0.035134
                             61.345569    -0.101385
                             34.404375    -0.055104
                             19.094147     0.131617
                             10.684628     0.274237
                              5.931463     0.008683
                              3.230992    -0.421618
                              1.730655    -0.381893
                              0.869483     0.226214
                              0.440589     0.602150
                              0.215859     0.367232
                              0.091015     0.055939
                              0.040174    -0.001129
                              0.017215     0.001121
   25.1 A     1  2py   52575799.000000     0.000001
                       15301659.000000     0.000001
                        4822461.600000     0.000004
                        1632045.600000     0.000008
                         584338.640000     0.000019
                         219508.320000     0.000043
                          86085.039000     0.000102
                          35172.956000     0.000240
                          14975.745000     0.000583
                           6652.821900     0.001422
                           3084.270200     0.003426
                           1489.211300     0.007745
                            745.288670     0.015249
                            384.521300     0.022470
                            203.927220     0.012451
                            110.523340    -0.035134
                             61.345569    -0.101385
                             34.404375    -0.055104
                             19.094147     0.131617
                             10.684628     0.274237
                              5.931463     0.008683
                              3.230992    -0.421618
                              1.730655    -0.381893
                              0.869483     0.226214
                              0.440589     0.602150
                              0.215859     0.367232
                              0.091015     0.055939
                              0.040174    -0.001129
                              0.017215     0.001121
   26.1 A     1  2pz   52575799.000000     0.000001
                       15301659.000000     0.000001
                        4822461.600000     0.000004
                        1632045.600000     0.000008
                         584338.640000     0.000019
                         219508.320000     0.000043
                          86085.039000     0.000102
                          35172.956000     0.000240
                          14975.745000     0.000583
                           6652.821900     0.001422
                           3084.270200     0.003426
                           1489.211300     0.007745
                            745.288670     0.015249
                            384.521300     0.022470
                            203.927220     0.012451
                            110.523340    -0.035134
                             61.345569    -0.101385
                             34.404375    -0.055104
                             19.094147     0.131617
                             10.684628     0.274237
                              5.931463     0.008683
                              3.230992    -0.421618
                              1.730655    -0.381893
                              0.869483     0.226214
                              0.440589     0.602150
                              0.215859     0.367232
                              0.091015     0.055939
                              0.040174    -0.001129
                              0.017215     0.001121
   27.1 A     1  2px   52575799.000000    -0.000000
                       15301659.000000    -0.000000
                        4822461.600000    -0.000001
                        1632045.600000    -0.000002
                         584338.640000    -0.000005
                         219508.320000    -0.000010
                          86085.039000    -0.000024
                          35172.956000    -0.000058
                          14975.745000    -0.000140
                           6652.821900    -0.000342
                           3084.270200    -0.000823
                           1489.211300    -0.001861
                            745.288670    -0.003664
                            384.521300    -0.005398
                            203.927220    -0.002991
                            110.523340     0.008482
                             61.345569     0.024454
                             34.404375     0.013272
                             19.094147    -0.032305
                             10.684628    -0.067432
                              5.931463    -0.001366
                              3.230992     0.110673
                              1.730655     0.103187
                              0.869483    -0.077840
                              0.440589    -0.217735
                              0.215859    -0.188345
                              0.091015     0.201020
                              0.040174     0.637069
                              0.017215     0.326669
   28.1 A     1  2py   52575799.000000    -0.000000
                       15301659.000000    -0.000000
                        4822461.600000    -0.000001
                        1632045.600000    -0.000002
                         584338.640000    -0.000005
                         219508.320000    -0.000010
                          86085.039000    -0.000024
                          35172.956000    -0.000058
                          14975.745000    -0.000140
                           6652.821900    -0.000342
                           3084.270200    -0.000823
                           1489.211300    -0.001861
                            745.288670    -0.003664
                            384.521300    -0.005398
                            203.927220    -0.002991
                            110.523340     0.008482
                             61.345569     0.024454
                             34.404375     0.013272
                             19.094147    -0.032305
                             10.684628    -0.067432
                              5.931463    -0.001366
                              3.230992     0.110673
                              1.730655     0.103187
                              0.869483    -0.077840
                              0.440589    -0.217735
                              0.215859    -0.188345
                              0.091015     0.201020
                              0.040174     0.637069
                              0.017215     0.326669
   29.1 A     1  2pz   52575799.000000    -0.000000
                       15301659.000000    -0.000000
                        4822461.600000    -0.000001
                        1632045.600000    -0.000002
                         584338.640000    -0.000005
                         219508.320000    -0.000010
                          86085.039000    -0.000024
                          35172.956000    -0.000058
                          14975.745000    -0.000140
                           6652.821900    -0.000342
                           3084.270200    -0.000823
                           1489.211300    -0.001861
                            745.288670    -0.003664
                            384.521300    -0.005398
                            203.927220    -0.002991
                            110.523340     0.008482
                             61.345569     0.024454
                             34.404375     0.013272
                             19.094147    -0.032305
                             10.684628    -0.067432
                              5.931463    -0.001366
                              3.230992     0.110673
                              1.730655     0.103187
                              0.869483    -0.077840
                              0.440589    -0.217735
                              0.215859    -0.188345
                              0.091015     0.201020
                              0.040174     0.637069
                              0.017215     0.326669
   30.1 A     1  2px   52575799.000000    -0.000001
                       15301659.000000    -0.000001
                        4822461.600000    -0.000003
                        1632045.600000    -0.000005
                         584338.640000    -0.000013
                         219508.320000    -0.000028
                          86085.039000    -0.000066
                          35172.956000    -0.000156
                          14975.745000    -0.000379
                           6652.821900    -0.000925
                           3084.270200    -0.002224
                           1489.211300    -0.005040
                            745.288670    -0.009895
                            384.521300    -0.014653
                            203.927220    -0.007970
                            110.523340     0.022757
                             61.345569     0.067049
                             34.404375     0.034635
                             19.094147    -0.086605
                             10.684628    -0.190567
                              5.931463     0.011210
                              3.230992     0.295370
                              1.730655     0.357708
                              0.869483    -0.483437
                              0.440589    -0.603385
                              0.215859     0.215887
                              0.091015     0.715465
                              0.040174     0.271767
                              0.017215     0.004114
   31.1 A     1  2py   52575799.000000    -0.000001
                       15301659.000000    -0.000001
                        4822461.600000    -0.000003
                        1632045.600000    -0.000005
                         584338.640000    -0.000013
                         219508.320000    -0.000028
                          86085.039000    -0.000066
                          35172.956000    -0.000156
                          14975.745000    -0.000379
                           6652.821900    -0.000925
                           3084.270200    -0.002224
                           1489.211300    -0.005040
                            745.288670    -0.009895
                            384.521300    -0.014653
                            203.927220    -0.007970
                            110.523340     0.022757
                             61.345569     0.067049
                             34.404375     0.034635
                             19.094147    -0.086605
                             10.684628    -0.190567
                              5.931463     0.011210
                              3.230992     0.295370
                              1.730655     0.357708
                              0.869483    -0.483437
                              0.440589    -0.603385
                              0.215859     0.215887
                              0.091015     0.715465
                              0.040174     0.271767
                              0.017215     0.004114
   32.1 A     1  2pz   52575799.000000    -0.000001
                       15301659.000000    -0.000001
                        4822461.600000    -0.000003
                        1632045.600000    -0.000005
                         584338.640000    -0.000013
                         219508.320000    -0.000028
                          86085.039000    -0.000066
                          35172.956000    -0.000156
                          14975.745000    -0.000379
                           6652.821900    -0.000925
                           3084.270200    -0.002224
                           1489.211300    -0.005040
                            745.288670    -0.009895
                            384.521300    -0.014653
                            203.927220    -0.007970
                            110.523340     0.022757
                             61.345569     0.067049
                             34.404375     0.034635
                             19.094147    -0.086605
                             10.684628    -0.190567
                              5.931463     0.011210
                              3.230992     0.295370
                              1.730655     0.357708
                              0.869483    -0.483437
                              0.440589    -0.603385
                              0.215859     0.215887
                              0.091015     0.715465
                              0.040174     0.271767
                              0.017215     0.004114
   33.1 A     1  2px   52575799.000000    -0.000001
                       15301659.000000    -0.000001
                        4822461.600000    -0.000004
                        1632045.600000    -0.000009
                         584338.640000    -0.000021
                         219508.320000    -0.000047
                          86085.039000    -0.000111
                          35172.956000    -0.000263
                          14975.745000    -0.000636
                           6652.821900    -0.001554
                           3084.270200    -0.003739
                           1489.211300    -0.008475
                            745.288670    -0.016642
                            384.521300    -0.024644
                            203.927220    -0.013367
                            110.523340     0.038637
                             61.345569     0.114090
                             34.404375     0.057493
                             19.094147    -0.152735
                             10.684628    -0.335275
                              5.931463     0.054116
                              3.230992     0.556566
                              1.730655     0.705542
                              0.869483    -1.835570
                              0.440589    -0.012121
                              0.215859     1.665730
                              0.091015    -0.585220
                              0.040174    -0.541179
                              0.017215     0.007323
   34.1 A     1  2py   52575799.000000    -0.000001
                       15301659.000000    -0.000001
                        4822461.600000    -0.000004
                        1632045.600000    -0.000009
                         584338.640000    -0.000021
                         219508.320000    -0.000047
                          86085.039000    -0.000111
                          35172.956000    -0.000263
                          14975.745000    -0.000636
                           6652.821900    -0.001554
                           3084.270200    -0.003739
                           1489.211300    -0.008475
                            745.288670    -0.016642
                            384.521300    -0.024644
                            203.927220    -0.013367
                            110.523340     0.038637
                             61.345569     0.114090
                             34.404375     0.057493
                             19.094147    -0.152735
                             10.684628    -0.335275
                              5.931463     0.054116
                              3.230992     0.556566
                              1.730655     0.705542
                              0.869483    -1.835570
                              0.440589    -0.012121
                              0.215859     1.665730
                              0.091015    -0.585220
                              0.040174    -0.541179
                              0.017215     0.007323
   35.1 A     1  2pz   52575799.000000    -0.000001
                       15301659.000000    -0.000001
                        4822461.600000    -0.000004
                        1632045.600000    -0.000009
                         584338.640000    -0.000021
                         219508.320000    -0.000047
                          86085.039000    -0.000111
                          35172.956000    -0.000263
                          14975.745000    -0.000636
                           6652.821900    -0.001554
                           3084.270200    -0.003739
                           1489.211300    -0.008475
                            745.288670    -0.016642
                            384.521300    -0.024644
                            203.927220    -0.013367
                            110.523340     0.038637
                             61.345569     0.114090
                             34.404375     0.057493
                             19.094147    -0.152735
                             10.684628    -0.335275
                              5.931463     0.054116
                              3.230992     0.556566
                              1.730655     0.705542
                              0.869483    -1.835570
                              0.440589    -0.012121
                              0.215859     1.665730
                              0.091015    -0.585220
                              0.040174    -0.541179
                              0.017215     0.007323
   36.1 A     1  2px   52575799.000000    -0.000001
                       15301659.000000    -0.000002
                        4822461.600000    -0.000006
                        1632045.600000    -0.000012
                         584338.640000    -0.000030
                         219508.320000    -0.000066
                          86085.039000    -0.000157
                          35172.956000    -0.000360
                          14975.745000    -0.000908
                           6652.821900    -0.002110
                           3084.270200    -0.005394
                           1489.211300    -0.011352
                            745.288670    -0.024563
                            384.521300    -0.031084
                            203.927220    -0.026677
                            110.523340     0.074398
                             61.345569     0.122621
                             34.404375     0.158055
                             19.094147    -0.396610
                             10.684628    -0.217370
                              5.931463    -0.310283
                              3.230992     1.975310
                              1.730655    -0.901781
                              0.869483    -2.796670
                              0.440589     4.376690
                              0.215859    -2.312120
                              0.091015    -0.328877
                              0.040174     0.867979
                              0.017215    -0.037454
   37.1 A     1  2py   52575799.000000    -0.000001
                       15301659.000000    -0.000002
                        4822461.600000    -0.000006
                        1632045.600000    -0.000012
                         584338.640000    -0.000030
                         219508.320000    -0.000066
                          86085.039000    -0.000157
                          35172.956000    -0.000360
                          14975.745000    -0.000908
                           6652.821900    -0.002110
                           3084.270200    -0.005394
                           1489.211300    -0.011352
                            745.288670    -0.024563
                            384.521300    -0.031084
                            203.927220    -0.026677
                            110.523340     0.074398
                             61.345569     0.122621
                             34.404375     0.158055
                             19.094147    -0.396610
                             10.684628    -0.217370
                              5.931463    -0.310283
                              3.230992     1.975310
                              1.730655    -0.901781
                              0.869483    -2.796670
                              0.440589     4.376690
                              0.215859    -2.312120
                              0.091015    -0.328877
                              0.040174     0.867979
                              0.017215    -0.037454
   38.1 A     1  2pz   52575799.000000    -0.000001
                       15301659.000000    -0.000002
                        4822461.600000    -0.000006
                        1632045.600000    -0.000012
                         584338.640000    -0.000030
                         219508.320000    -0.000066
                          86085.039000    -0.000157
                          35172.956000    -0.000360
                          14975.745000    -0.000908
                           6652.821900    -0.002110
                           3084.270200    -0.005394
                           1489.211300    -0.011352
                            745.288670    -0.024563
                            384.521300    -0.031084
                            203.927220    -0.026677
                            110.523340     0.074398
                             61.345569     0.122621
                             34.404375     0.158055
                             19.094147    -0.396610
                             10.684628    -0.217370
                              5.931463    -0.310283
                              3.230992     1.975310
                              1.730655    -0.901781
                              0.869483    -2.796670
                              0.440589     4.376690
                              0.215859    -2.312120
                              0.091015    -0.328877
                              0.040174     0.867979
                              0.017215    -0.037454
   39.1 A     1  2px   52575799.000000     0.000000
                       15301659.000000     0.000000
                        4822461.600000     0.000000
                        1632045.600000     0.000000
                         584338.640000     0.000000
                         219508.320000     0.000000
                          86085.039000     0.000000
                          35172.956000     0.000000
                          14975.745000     0.000000
                           6652.821900     0.000000
                           3084.270200     0.000000
                           1489.211300     0.000000
                            745.288670     0.000000
                            384.521300     0.000000
                            203.927220     0.000000
                            110.523340     0.000000
                             61.345569     0.000000
                             34.404375     0.000000
                             19.094147     0.000000
                             10.684628     0.000000
                              5.931463     0.000000
                              3.230992     0.000000
                              1.730655     0.000000
                              0.869483     0.000000
                              0.440589     0.000000
                              0.215859     0.000000
                              0.091015     0.000000
                              0.040174     0.000000
                              0.017215     1.000000
   40.1 A     1  2py   52575799.000000     0.000000
                       15301659.000000     0.000000
                        4822461.600000     0.000000
                        1632045.600000     0.000000
                         584338.640000     0.000000
                         219508.320000     0.000000
                          86085.039000     0.000000
                          35172.956000     0.000000
                          14975.745000     0.000000
                           6652.821900     0.000000
                           3084.270200     0.000000
                           1489.211300     0.000000
                            745.288670     0.000000
                            384.521300     0.000000
                            203.927220     0.000000
                            110.523340     0.000000
                             61.345569     0.000000
                             34.404375     0.000000
                             19.094147     0.000000
                             10.684628     0.000000
                              5.931463     0.000000
                              3.230992     0.000000
                              1.730655     0.000000
                              0.869483     0.000000
                              0.440589     0.000000
                              0.215859     0.000000
                              0.091015     0.000000
                              0.040174     0.000000
                              0.017215     1.000000
   41.1 A     1  2pz   52575799.000000     0.000000
                       15301659.000000     0.000000
                        4822461.600000     0.000000
                        1632045.600000     0.000000
                         584338.640000     0.000000
                         219508.320000     0.000000
                          86085.039000     0.000000
                          35172.956000     0.000000
                          14975.745000     0.000000
                           6652.821900     0.000000
                           3084.270200     0.000000
                           1489.211300     0.000000
                            745.288670     0.000000
                            384.521300     0.000000
                            203.927220     0.000000
                            110.523340     0.000000
                             61.345569     0.000000
                             34.404375     0.000000
                             19.094147     0.000000
                             10.684628     0.000000
                              5.931463     0.000000
                              3.230992     0.000000
                              1.730655     0.000000
                              0.869483     0.000000
                              0.440589     0.000000
                              0.215859     0.000000
                              0.091015     0.000000
                              0.040174     0.000000
                              0.017215     1.000000
   42.1 A     1  3d0     105911.200000     0.000020
                          24974.572000     0.000129
                           8108.852700     0.000677
                           3150.520500     0.003052
                           1380.647900     0.011950
                            658.188950     0.039706
                            332.909040     0.108875
                            176.023220     0.231727
                             95.780704     0.354949
                             53.337287     0.336096
                             29.864821     0.140603
                             16.526778    -0.033742
                              9.155323    -0.064042
                              4.984876    -0.024095
                              2.636633    -0.002233
                              1.354062     0.000305
                              0.656031     0.000103
                              0.269853     0.000008
                              0.103443     0.000000
                              0.036685     0.000000
   43.1 A     1  3d2-    105911.200000     0.000020
                          24974.572000     0.000129
                           8108.852700     0.000677
                           3150.520500     0.003052
                           1380.647900     0.011950
                            658.188950     0.039706
                            332.909040     0.108875
                            176.023220     0.231727
                             95.780704     0.354949
                             53.337287     0.336096
                             29.864821     0.140603
                             16.526778    -0.033742
                              9.155323    -0.064042
                              4.984876    -0.024095
                              2.636633    -0.002233
                              1.354062     0.000305
                              0.656031     0.000103
                              0.269853     0.000008
                              0.103443     0.000000
                              0.036685     0.000000
   44.1 A     1  3d1+    105911.200000     0.000020
                          24974.572000     0.000129
                           8108.852700     0.000677
                           3150.520500     0.003052
                           1380.647900     0.011950
                            658.188950     0.039706
                            332.909040     0.108875
                            176.023220     0.231727
                             95.780704     0.354949
                             53.337287     0.336096
                             29.864821     0.140603
                             16.526778    -0.033742
                              9.155323    -0.064042
                              4.984876    -0.024095
                              2.636633    -0.002233
                              1.354062     0.000305
                              0.656031     0.000103
                              0.269853     0.000008
                              0.103443     0.000000
                              0.036685     0.000000
   45.1 A     1  3d2+    105911.200000     0.000020
                          24974.572000     0.000129
                           8108.852700     0.000677
                           3150.520500     0.003052
                           1380.647900     0.011950
                            658.188950     0.039706
                            332.909040     0.108875
                            176.023220     0.231727
                             95.780704     0.354949
                             53.337287     0.336096
                             29.864821     0.140603
                             16.526778    -0.033742
                              9.155323    -0.064042
                              4.984876    -0.024095
                              2.636633    -0.002233
                              1.354062     0.000305
                              0.656031     0.000103
                              0.269853     0.000008
                              0.103443     0.000000
                              0.036685     0.000000
   46.1 A     1  3d1-    105911.200000     0.000020
                          24974.572000     0.000129
                           8108.852700     0.000677
                           3150.520500     0.003052
                           1380.647900     0.011950
                            658.188950     0.039706
                            332.909040     0.108875
                            176.023220     0.231727
                             95.780704     0.354949
                             53.337287     0.336096
                             29.864821     0.140603
                             16.526778    -0.033742
                              9.155323    -0.064042
                              4.984876    -0.024095
                              2.636633    -0.002233
                              1.354062     0.000305
                              0.656031     0.000103
                              0.269853     0.000008
                              0.103443     0.000000
                              0.036685     0.000000
   47.1 A     1  3d0     105911.200000    -0.000007
                          24974.572000    -0.000047
                           8108.852700    -0.000246
                           3150.520500    -0.001113
                           1380.647900    -0.004403
                            658.188950    -0.014782
                            332.909040    -0.041545
                            176.023220    -0.089264
                             95.780704    -0.132364
                             53.337287    -0.078125
                             29.864821     0.163137
                             16.526778     0.427766
                              9.155323     0.404323
                              4.984876     0.149842
                              2.636633     0.013528
                              1.354062    -0.001244
                              0.656031    -0.000625
                              0.269853    -0.000007
                              0.103443    -0.000015
                              0.036685     0.000003
   48.1 A     1  3d2-    105911.200000    -0.000007
                          24974.572000    -0.000047
                           8108.852700    -0.000246
                           3150.520500    -0.001113
                           1380.647900    -0.004403
                            658.188950    -0.014782
                            332.909040    -0.041545
                            176.023220    -0.089264
                             95.780704    -0.132364
                             53.337287    -0.078125
                             29.864821     0.163137
                             16.526778     0.427766
                              9.155323     0.404323
                              4.984876     0.149842
                              2.636633     0.013528
                              1.354062    -0.001244
                              0.656031    -0.000625
                              0.269853    -0.000007
                              0.103443    -0.000015
                              0.036685     0.000003
   49.1 A     1  3d1+    105911.200000    -0.000007
                          24974.572000    -0.000047
                           8108.852700    -0.000246
                           3150.520500    -0.001113
                           1380.647900    -0.004403
                            658.188950    -0.014782
                            332.909040    -0.041545
                            176.023220    -0.089264
                             95.780704    -0.132364
                             53.337287    -0.078125
                             29.864821     0.163137
                             16.526778     0.427766
                              9.155323     0.404323
                              4.984876     0.149842
                              2.636633     0.013528
                              1.354062    -0.001244
                              0.656031    -0.000625
                              0.269853    -0.000007
                              0.103443    -0.000015
                              0.036685     0.000003
   50.1 A     1  3d2+    105911.200000    -0.000007
                          24974.572000    -0.000047
                           8108.852700    -0.000246
                           3150.520500    -0.001113
                           1380.647900    -0.004403
                            658.188950    -0.014782
                            332.909040    -0.041545
                            176.023220    -0.089264
                             95.780704    -0.132364
                             53.337287    -0.078125
                             29.864821     0.163137
                             16.526778     0.427766
                              9.155323     0.404323
                              4.984876     0.149842
                              2.636633     0.013528
                              1.354062    -0.001244
                              0.656031    -0.000625
                              0.269853    -0.000007
                              0.103443    -0.000015
                              0.036685     0.000003
   51.1 A     1  3d1-    105911.200000    -0.000007
                          24974.572000    -0.000047
                           8108.852700    -0.000246
                           3150.520500    -0.001113
                           1380.647900    -0.004403
                            658.188950    -0.014782
                            332.909040    -0.041545
                            176.023220    -0.089264
                             95.780704    -0.132364
                             53.337287    -0.078125
                             29.864821     0.163137
                             16.526778     0.427766
                              9.155323     0.404323
                              4.984876     0.149842
                              2.636633     0.013528
                              1.354062    -0.001244
                              0.656031    -0.000625
                              0.269853    -0.000007
                              0.103443    -0.000015
                              0.036685     0.000003
   52.1 A     1  3d0     105911.200000     0.000004
                          24974.572000     0.000029
                           8108.852700     0.000151
                           3150.520500     0.000680
                           1380.647900     0.002694
                            658.188950     0.009015
                            332.909040     0.025311
                            176.023220     0.054175
                             95.780704     0.081018
                             53.337287     0.048855
                             29.864821    -0.090265
                             16.526778    -0.246113
                              9.155323    -0.206236
                              4.984876     0.172306
                              2.636633     0.505507
                              1.354062     0.395599
                              0.656031     0.111489
                              0.269853     0.006247
                              0.103443    -0.000029
                              0.036685    -0.000036
   53.1 A     1  3d2-    105911.200000     0.000004
                          24974.572000     0.000029
                           8108.852700     0.000151
                           3150.520500     0.000680
                           1380.647900     0.002694
                            658.188950     0.009015
                            332.909040     0.025311
                            176.023220     0.054175
                             95.780704     0.081018
                             53.337287     0.048855
                             29.864821    -0.090265
                             16.526778    -0.246113
                              9.155323    -0.206236
                              4.984876     0.172306
                              2.636633     0.505507
                              1.354062     0.395599
                              0.656031     0.111489
                              0.269853     0.006247
                              0.103443    -0.000029
                              0.036685    -0.000036
   54.1 A     1  3d1+    105911.200000     0.000004
                          24974.572000     0.000029
                           8108.852700     0.000151
                           3150.520500     0.000680
                           1380.647900     0.002694
                            658.188950     0.009015
                            332.909040     0.025311
                            176.023220     0.054175
                             95.780704     0.081018
                             53.337287     0.048855
                             29.864821    -0.090265
                             16.526778    -0.246113
                              9.155323    -0.206236
                              4.984876     0.172306
                              2.636633     0.505507
                              1.354062     0.395599
                              0.656031     0.111489
                              0.269853     0.006247
                              0.103443    -0.000029
                              0.036685    -0.000036
   55.1 A     1  3d2+    105911.200000     0.000004
                          24974.572000     0.000029
                           8108.852700     0.000151
                           3150.520500     0.000680
                           1380.647900     0.002694
                            658.188950     0.009015
                            332.909040     0.025311
                            176.023220     0.054175
                             95.780704     0.081018
                             53.337287     0.048855
                             29.864821    -0.090265
                             16.526778    -0.246113
                              9.155323    -0.206236
                              4.984876     0.172306
                              2.636633     0.505507
                              1.354062     0.395599
                              0.656031     0.111489
                              0.269853     0.006247
                              0.103443    -0.000029
                              0.036685    -0.000036
   56.1 A     1  3d1-    105911.200000     0.000004
                          24974.572000     0.000029
                           8108.852700     0.000151
                           3150.520500     0.000680
                           1380.647900     0.002694
                            658.188950     0.009015
                            332.909040     0.025311
                            176.023220     0.054175
                             95.780704     0.081018
                             53.337287     0.048855
                             29.864821    -0.090265
                             16.526778    -0.246113
                              9.155323    -0.206236
                              4.984876     0.172306
                              2.636633     0.505507
                              1.354062     0.395599
                              0.656031     0.111489
                              0.269853     0.006247
                              0.103443    -0.000029
                              0.036685    -0.000036
   57.1 A     1  3d0     105911.200000    -0.000001
                          24974.572000    -0.000008
                           8108.852700    -0.000042
                           3150.520500    -0.000189
                           1380.647900    -0.000746
                            658.188950    -0.002504
                            332.909040    -0.007016
                            176.023220    -0.015063
                             95.780704    -0.022420
                             53.337287    -0.013378
                             29.864821     0.026555
                             16.526778     0.070496
                              9.155323     0.058301
                              4.984876    -0.065834
                              2.636633    -0.177473
                              1.354062    -0.127085
                              0.656031     0.181760
                              0.269853     0.495490
                              0.103443     0.447072
                              0.036685     0.116353
   58.1 A     1  3d2-    105911.200000    -0.000001
                          24974.572000    -0.000008
                           8108.852700    -0.000042
                           3150.520500    -0.000189
                           1380.647900    -0.000746
                            658.188950    -0.002504
                            332.909040    -0.007016
                            176.023220    -0.015063
                             95.780704    -0.022420
                             53.337287    -0.013378
                             29.864821     0.026555
                             16.526778     0.070496
                              9.155323     0.058301
                              4.984876    -0.065834
                              2.636633    -0.177473
                              1.354062    -0.127085
                              0.656031     0.181760
                              0.269853     0.495490
                              0.103443     0.447072
                              0.036685     0.116353
   59.1 A     1  3d1+    105911.200000    -0.000001
                          24974.572000    -0.000008
                           8108.852700    -0.000042
                           3150.520500    -0.000189
                           1380.647900    -0.000746
                            658.188950    -0.002504
                            332.909040    -0.007016
                            176.023220    -0.015063
                             95.780704    -0.022420
                             53.337287    -0.013378
                             29.864821     0.026555
                             16.526778     0.070496
                              9.155323     0.058301
[...]
                                   10  5  s   -1.33656   10  4  py   0.64948   11  4  s    0.31650   11  5  s    1.79296
                                   11  3  px  -0.43185   11  4  px  -0.49417   11  4  py  -0.46611
   82.1     0.00000     0.03884     1  6  s   -0.28443    1  7  s   -0.32901    1  5  px   0.36969    1  5  py  -0.66676
                                    1  6  px   0.85576    1  6  py  -1.71261    1  6  pz   0.37195    1 10  px   1.77285
                                    1 10  pz   0.35322    1  8  d0  -0.38168    1  8  d2- -0.75658    2  5  s    0.71967
                                    2  4  py  -0.64786    3  3  s    0.27782    3  4  s    1.41300    4  5  s    0.65173
                                    5  4  s   -0.57749    6  4  px  -0.30736    7  4  s    0.93470    8  5  s    0.25563
                                    9  4  s    1.21315   10  4  s    0.87854   10  5  s    3.22796   10  3  px   0.39793
                                   10  4  px   1.99652   11  4  s   -0.50431   11  5  s   -5.97189   11  3  px   0.95378
                                   11  3  py  -0.59169   11  4  px   1.01922   11  4  py  -0.97313   12  6  s   -0.30796
                                   12  4  px   0.35527
   83.1     0.00000     0.04686     1  6  s    0.52334    1  7  s    0.72274    1 11  s   -3.68039    1  5  px  -0.47131
                                    1  5  pz   0.44520    1  6  px  -2.09089    1  6  py  -0.56410    1  6  pz   0.97831
                                    1  7  px   0.51535    1 10  px   1.80027    1 10  py   1.55031    1 10  pz  -1.40691
                                    1  4  d1-  0.38343    1  8  d0   0.35648    1  8  d2- -0.28379    1  8  d1+  0.33745
                                    2  5  s    0.65893    2  4  py  -0.28405    2  4  pz   0.35857    3  4  s    0.82066
                                    4  5  s   -1.22360    4  4  pz   0.31105    5  3  s    1.09104    5  4  s    3.96419
                                    6  4  py  -0.42459    6  4  pz  -0.49569    7  3  s   -0.40662    7  4  s   -1.16803
                                    8  5  s   -0.70743    8  4  px   0.43200    8  4  py   0.54918    9  3  s   -0.35045
                                    9  4  s   -0.87335   10  5  s   -2.56699   10  4  px  -1.61388   10  4  py   1.31338
                                   10  4  pz  -0.66595   11  5  s    3.51664   11  3  px  -0.54451   11  4  px  -1.33833
                                   11  4  pz   0.29254   12  5  s    0.44833   12  6  s    0.66990   12  5  py   0.25264
   84.1     0.00000     0.05066     1  6  s   -0.67367    1  7  s   -0.74656    1 11  s    3.79628    1  5  px   0.35676
                                    1  5  py  -0.46438    1  5  pz  -1.00243    1  6  px   1.48025    1  6  py  -1.06693
                                    1  6  pz  -2.98616    1  7  px  -0.34063    1  7  pz   0.26914    1 10  px  -1.71757
                                    1 10  py  -0.73977    1 10  pz   3.97277    1  4  d1- -0.32583    1  8  d1+ -0.59564
                                    1  8  d2+  0.34715    2  5  s   -1.28287    3  3  s    0.63906    3  4  s    1.16345
                                    3  3  py  -0.25415    4  5  s    1.82511    4  4  py  -0.34289    4  4  pz  -0.54036
                                    5  3  s    0.51995    5  4  s    1.17428    6  5  s    0.52697    7  3  s   -0.43145
                                    7  4  s   -0.32208    8  5  s    0.57731    8  3  pz   0.32558    8  4  pz   0.98638
                                    9  3  s   -1.18686    9  4  s   -4.76997   10  5  s    2.24079   10  4  px   1.64241
                                   10  4  py  -1.06718   10  4  pz   1.39245   11  5  s   -3.01154   11  3  px   0.60476
                                   11  4  px   1.38652   11  4  pz  -1.09924   12  5  s   -0.52747   12  6  s   -1.10299
                                   12  4  px   0.35284   12  5  pz   0.43165
   85.1     0.00000     0.05747     1  5  s   -0.39063    1  6  s   -1.23168    1  7  s   -1.31414    1 11  s   -5.62561
                                    1  5  px  -0.44537    1  5  pz  -0.81475    1  6  px  -2.60705    1  6  pz  -2.43071
                                    1  7  px   0.83173    1  7  py   0.30538    1 10  px   2.25115    1 10  py   3.39562
                                    1 10  pz   3.02295    1  4  d1- -0.30263    1  8  d1+ -0.37701    1  8  d1- -0.48666
                                    2  5  s   -0.84939    2  4  py   0.53345    2  4  pz  -0.43056    3  4  s   -1.10119
                                    4  5  s    1.17732    5  3  s    0.88901    5  4  s    2.70838    6  4  s   -0.25651
                                    6  5  s   -1.05922    6  3  pz   0.31722    6  4  pz   1.08676    7  3  s    1.23198
                                    7  4  s    5.05960    8  5  s   -1.40282    8  4  py   0.33667    8  4  pz   0.33946
                                    9  4  s   -0.70266   10  5  s   -3.68910   10  4  px  -3.19073   10  4  py   2.10910
                                   10  4  pz   0.31852   11  5  s    5.84505   11  3  px  -0.82312   11  4  px  -1.79552
                                   11  4  py  -0.28714   11  4  pz  -0.85653   12  5  s    0.74758   12  6  s    1.11315
                                   12  4  px  -0.44488   12  4  py   0.31359   12  5  py   0.41602
   86.1     0.00000     0.06251     1  5  s   -0.42450    1  6  s   -1.43646    1  7  s   -1.71651    1 11  s   -4.82798
                                    1  5  py   0.70291    1  6  py   2.77289    1  6  pz  -1.00044    1  7  py  -0.56403
                                    1  7  pz   0.71870    1 10  px  -1.51558    1 10  py  -3.07126    1 10  pz   2.76966
                                    2  4  s   -0.35503    2  5  s   -1.96014    2  3  py  -0.39884    2  4  py  -1.24657
                                    3  2  s    0.25075    3  3  s    1.72878    3  4  s    4.81610    3  3  py  -0.35959
                                    4  5  s   -0.34984    5  3  s   -0.50266    5  4  s   -1.40134    6  5  s   -0.33049
                                    6  4  pz   0.70389    7  3  s    0.57857    7  4  s    1.96883    8  5  s    1.40660
                                   10  4  s   -0.67663   10  5  s   -2.30899   10  4  px  -2.09792   11  4  s   -0.87102
                                   11  5  s    2.19452   11  3  px  -1.41190   11  3  py   0.87634   11  3  pz  -0.25452
                                   11  4  px  -1.48042   11  4  py   1.72281   11  4  pz  -0.79413   12  5  s    0.95707
                                   12  6  s    3.26555   12  4  px  -1.06095   12  4  py   0.35959   12  5  px  -0.78613
   87.1     0.00000     0.07693     1  5  s   -0.56932    1  6  s   -2.19748    1  7  s   -3.26911    1 11  s    0.46619
                                    1  5  px   1.25076    1  6  px   4.24125    1  6  py   0.72344    1  6  pz  -0.44844
                                    1  7  px  -0.51838    1 10  px  -2.14326    1 10  py  -0.48803    1 10  pz   0.53635
                                    1  8  d1-  0.30934    2  5  s    0.63587    2  4  py  -0.40552    2  4  pz   0.33023
                                    3  4  s    1.07583    4  5  s    0.85463    5  3  s   -0.31610    5  4  s    0.31998
                                    6  5  s    1.33318    6  4  px   0.28313    6  4  py   0.32353    6  4  pz   0.47727
                                    7  4  s    0.45526    8  5  s    2.19957    8  4  px   1.02289    8  4  py   0.65445
                                    8  4  pz  -0.74840    9  4  s    0.42395   10  4  s    0.31888   10  5  s   -0.30408
                                   10  3  px  -0.28841   10  4  px   1.40681   10  4  py  -1.23810   10  4  pz   0.34572
                                   11  4  s    3.82674   11  5  s    6.76342   11  3  px   2.47920   11  3  py  -1.02070
                                   11  4  px   2.82565   11  4  py  -0.79411   11  3  d0  -0.26185   11  3  d2- -0.30711
                                   11  3  d2+  0.32021   12  5  s   -2.58988   12  6  s   -9.20597   12  2  px   0.29435
                                   12  4  px   2.38774   12  4  py  -1.16450   12  4  pz   0.32060   12  5  px   2.23335
                                   12  5  py  -1.23045   12  5  pz   0.37082   12  3  d0   0.34639   12  3  d2-  0.49807
                                   12  3  d2+ -0.36332
   88.1     0.00000     0.08776     1  5  s    0.71987    1  6  s    2.83310    1  7  s    4.21845    1 11  s   -8.95364
                                    1  4  px  -0.43650    1  5  px  -2.61336    1  5  py   0.58216    1  5  pz   0.69229
                                    1  6  px -11.33513    1  6  py   3.69534    1  6  pz   2.34807    1  7  px   2.29381
                                    1  7  py  -1.23521    1  8  px  -0.65428    1  8  py   0.34763    1 10  px   3.98474
                                    1 10  py  -0.38953    1  8  d0   0.53018    1  8  d2-  0.98169    1  8  d1+  0.59886
                                    1  8  d1- -0.97797    1  6  f3- -0.36320    2  5  s   -2.63570    2  4  px   0.53874
                                    2  4  pz  -0.49814    3  3  s    0.78380    3  4  s    0.98142    4  5  s   -2.21022
                                    4  4  py   0.62258    4  4  pz   0.50787    5  3  s    0.33885    5  4  s   -0.28178
                                    5  3  px   0.27337    6  5  s   -2.87606    6  4  py  -0.95952    6  4  pz  -0.32625
                                    7  3  s    0.95813    7  4  s    2.15826    8  5  s   -3.43966    8  4  px  -1.47596
                                    8  4  py  -1.19085    8  4  pz   1.02633    9  3  s    0.33211    9  3  px   0.27636
                                   10  4  s    0.55534   10  5  s  -10.23640   10  3  pz  -0.32450   10  4  px  -9.78396
                                   10  4  py   3.79610   10  4  pz  -3.00790   10  3  d2-  0.26437   10  3  d2+ -0.32245
                                   11  4  s    2.77930   11  5  s   22.88209   11  3  px   0.81034   11  3  pz   0.46375
                                   11  4  px  -2.35598   11  4  py   1.22709   11  4  pz   0.52850   11  3  d0   0.35573
                                   11  3  d2-  0.38500   11  3  d1+ -0.43845   11  3  d2+ -0.61994   12  6  s   -4.57017
                                   12  4  px   0.88668   12  4  py  -0.28044   12  5  px   1.84952   12  5  py  -0.79981


 HOMO     78.1    -0.334614 =      -9.1053eV
 LUMO     79.1     0.004439 =       0.1208eV
 LUMO-HOMO         0.339052 =       9.2261eV

 Orbitals saved in record  2100.2


 **********************************************************************************************************************************
 DATASETS  * FILE   NREC   LENGTH (MB)   RECORD NAMES
              1      22       56.06       500      610      700      900      950      970     1000      129      960     1700   
                                          VAR    BASINP    GEOM    SYMINP    ZMAT    AOBASIS   BASIS     P2S    ABASIS    OPER   
                                         1101     1401     1411     1412     1650     1100     1400     1410     1200     1210   
                                          SR      EKINR    POTR     PVPR    MOLCAS      S      EKIN      POT      H0       H01  
                                         1080     1600   
                                         AOSYM     SMH  

              2       6       17.27       500      610      700     1000      520     2100   
                                          VAR    BASINP    GEOM     BASIS   MCVARS     RHF  

 PROGRAMS   *        TOTAL    HF-SCF       INT      FILE
 CPU TIMES  *      1266.53    758.47    507.59      0.01
 REAL TIME  *      2118.65 SEC
 DISK USED  *        96.55 MB (local),      159.27 GB (total)
 GA USED    *         0.01 MB       (max)       0.00 MB       (current)
 **********************************************************************************************************************************

 STRING TOO SHORT IN GETSTR FOR VARIABLE BASIS
 ONLY   1 OF  1 SUBSTRINGS WILL BE RETURNED. LAST ONE IS TRUNCATED


 PROGRAM * CCSD (Closed-shell coupled cluster)     Authors: C. Hampel, H.-J. Werner, 1991, M. Deegan, P.J. Knowles, 1992


 Convergence thresholds:  THRVAR = 1.00D-08  THRDEN = 1.00D-06

 CCSD(T)     terms to be evaluated (factor= 1.000)


 Number of core orbitals:          50 (  50 )
 Number of closed-shell orbitals:  28 (  28 )
 Number of external orbitals:     501 ( 501 )

 Molecular orbitals read from record     2100.2  Type=RHF/CANONICAL  

 Number of N-1 electron functions:              28
 Number of N-2 electron functions:             406
 Number of singly external CSFs:             14028
 Number of doubly external CSFs:          98399406
 Total number of CSFs:                    98413435

 Length of J-op  integral file:               0.00 MB
 Length of K-op  integral file:              23.02 MB
 Length of 3-ext integral record:             0.00 MB

 For full I/O caching in triples, increase memory by 1562.01 Mwords to 4062.06 Mwords.

 Multipassing necessary in transformation. To avoid, increase memory by 541.61 Mwords.

 Integral transformation finished. Total CPU:1460.87 sec, npass=  2  Memory used:2491.60 MW

 Reference energy:                 -28014.46854265

 MP2 singlet pair energy:              -1.17981830
 MP2 triplet pair energy:              -0.80180019
 MP2 correlation energy:               -1.98161850
 MP2 total energy:                 -28016.45016115

 SCS-MP2 correlation energy:           -1.91467986   (PS=  1.200000  PT=  0.333333)
 SCS-MP2 total energy:             -28016.38322251

 ITER.      SQ.NORM     CORR.ENERGY   TOTAL ENERGY   ENERGY CHANGE        DEN1      VAR(S)    VAR(P)  DIIS     TIME  TIME/IT
   1      1.55838401    -1.97846346-28016.44700611     0.00315504     0.08825166  0.35D-01  0.19D-01  1  1  2003.13   597.15
   2      1.59880331    -1.96439999-28016.43294264     0.01406347    -0.05686848  0.72D-03  0.26D-02  2  2  2569.25   672.48
   3      1.62383466    -1.96699991-28016.43554256    -0.00259992    -0.00730329  0.13D-02  0.24D-03  3  3  3146.22   679.18
   4      1.63723856    -1.96530342-28016.43384607     0.00169649    -0.00442092  0.21D-03  0.44D-04  4  4  3725.88   692.09
   5      1.64697889    -1.96469279-28016.43323544     0.00061063    -0.00200577  0.49D-04  0.64D-05  5  5  4292.72   689.47
   6      1.65020455    -1.96450035-28016.43304300     0.00019244    -0.00027089  0.86D-05  0.23D-05  6  6  4875.10   690.10
   7      1.65170267    -1.96435429-28016.43289694     0.00014606    -0.00004399  0.26D-05  0.44D-06  6  1  5519.38   698.42
   8      1.65226019    -1.96432669-28016.43286934     0.00002760    -0.00007446  0.52D-06  0.13D-06  6  2  6160.00   703.92
   9      1.65234943    -1.96432956-28016.43287221    -0.00000287     0.00002128  0.13D-06  0.35D-07  6  4  7077.31   759.21
  10      1.65237595    -1.96433243-28016.43287508    -0.00000287     0.00000487  0.39D-07  0.90D-08  6  3  7976.51   808.52
  11      1.65239781    -1.96432946-28016.43287211     0.00000297    -0.00001083  0.13D-07  0.35D-08  6  5  8660.52   830.40
  12      1.65239680    -1.96433284-28016.43287549    -0.00000337     0.00000719  0.43D-08  0.83D-09  6  6  9201.18   830.07
  13      1.65239962    -1.96433166-28016.43287431     0.00000118    -0.00000178  0.11D-08  0.33D-09  6  4  9739.91   832.44
  14      1.65239937    -1.96433227-28016.43287492    -0.00000061     0.00000154  0.21D-09  0.71D-10  6  1 10285.11   834.31
  15      1.65239955    -1.96433208-28016.43287473     0.00000019    -0.00000014  0.74D-10  0.17D-10  6  2 10830.55   833.62

 Norm of t1 vector:      0.24982639      S-energy:     0.00000108      T1 diagnostic:  0.02360637
                                                                       D1 diagnostic:  0.09107135
                                                                       D2 diagnostic:  0.17167616 (internal)

   CPU time for triples:   1811.44 sec for i =  1 -  6 / 28 (~   1.2 % done)
   CPU time for triples:   2864.28 sec for i =  7 - 16 / 28 (~  19.8 % done)
   CPU time for triples:   2434.68 sec for i = 17 - 19 / 28 (~  32.5 % done)
   CPU time for triples:   2417.21 sec for i = 20 - 22 / 28 (~  49.7 % done)
   CPU time for triples:   3611.22 sec for i = 23 - 24 / 28 (~  63.9 % done)
   CPU time for triples:   3058.77 sec for i = 25 - 26 / 28 (~  80.6 % done)
   CPU time for triples:   3903.48 sec for i = 27 - 28 / 28 (  100.0 % done)

 Total CPU time for triples:  20143.29 sec


 RESULTS
 =======

  Reference energy                   -28014.4685426487    
  CCSD singlet pair energy             -1.265200512941
  CCSD triplet pair energy             -0.699132647324
  CCSD correlation energy              -1.964332083983

  Triples (T) contribution             -0.106039239183
  Total correlation energy             -2.070371323166

  CCSD total energy                  -28016.4328747327    
  CCSD[T] energy                     -28016.5520087298    
  CCSD-T energy                      -28016.5350583381    
 !CCSD(T) total energy               -28016.5389139718    

 Timing summary (sec):

 STEP                 CPU(USER)    SYS     CPU(TOT)    WALL
 Transformation       1464.29     99.62   1563.91   1633.90
 CCSD iterations      9383.80    189.66   9573.46  12522.32
 Triples             20143.29    222.59  20365.88  20924.65

 Program statistics:

 Available memory in ccsd:              2499996786
 Min. memory needed in ccsd:             222853045
 Max. memory used in ccsd:               315386731
 Max. memory used in cckext:             275975727 (15 integral passes)



 **********************************************************************************************************************************
 DATASETS  * FILE   NREC   LENGTH (MB)   RECORD NAMES
              1      23    15078.24       500      610      700      900      950      970     1000      129      960     1700   
                                          VAR    BASINP    GEOM    SYMINP    ZMAT    AOBASIS   BASIS     P2S    ABASIS    OPER   
                                         1101     1401     1411     1412     1650     1100     1400     1410     1200     1210   
                                          SR      EKINR    POTR     PVPR    MOLCAS      S      EKIN      POT      H0       H01  
                                         1080     1600     1380   
                                         AOSYM     SMH     JKOP   

              2       6       17.27       500      610      700     1000      520     2100   
                                          VAR    BASINP    GEOM     BASIS   MCVARS     RHF  

 PROGRAMS   *        TOTAL   CCSD(T)    HF-SCF       INT      FILE
 CPU TIMES  *     32258.29  30991.73    758.47    507.59      0.01
 REAL TIME  *     37202.75 SEC
 DISK USED  *        23.85 GB (local),      285.57 GB (total)
 SF USED    *        25.02 GB
 GA USED    *         0.01 MB       (max)       0.00 MB       (current)
 **********************************************************************************************************************************

 STRING TOO SHORT IN GETSTR FOR VARIABLE BASIS
 ONLY   1 OF  1 SUBSTRINGS WILL BE RETURNED. LAST ONE IS TRUNCATED
 SETTING ENERGY_HF(1)   =    -28014.46854265  AU                              
 SETTING CORR_MP2(1)    =        -1.98161850  AU                              
 SETTING CORR_CCSDT(1)  =        -2.07037132  AU                              

 CCSD(T)/PA=CC-PVTZ-X2C,O=AUG-CC-PVTZ-X2C,H=AUG-CC-PVTZ-X2C,N=AUG-CC-PVTZ-X2C,C=AUG-CC-PV energy= -28016.538913971850

         CCSD(T)          HF-SCF
 -28016.53891397 -28014.46854265
 **********************************************************************************************************************************
 Molpro calculation terminated
