

 Parallel Execution: Process Information
 ==============================================================================
 Rank   Node Name                              NodeID   MyNodeRank  NodeMaster
    0   u-0-7.local                               0          0          0
    1   u-0-7.local                               0          1         -1
    2   u-0-7.local                               1          0          1
    3   u-0-7.local                               1          1         -1
    4   u-0-7.local                               2          0          2
    5   u-0-7.local                               2          1         -1
    6   u-0-7.local                               3          0          3
    7   u-0-7.local                               3          1         -1
 ==============================================================================


May use up to 31228MB of RAM as shared memory on node 0
May use up to 31250MB of RAM as shared memory on node 2
May use up to 31250MB of RAM as shared memory on node 3
May use up to 31250MB of RAM as shared memory on node 1

 *******************************************************************************
 *                                                                             *
 *  --------------------------------                                           *
 *   Amsterdam Modeling Suite (AMS)              2022.103                      *
 *  --------------------------------                                           *
 *                                               r104886 2022-06-17            *
 *                                                                             *
 *                                                                             *
 *                              =================                              *
 *                              |               |                              *
 *                              |     A M S     |                              *
 *                              |               |                              *
 *                              =================                              *
 *                                                                             *
 *                                                                             *
 *   Online information and documentation:  https://www.scm.com/support/       *
 *   E-mail:  support@scm.com   info@scm.com                                   *
 *                                                                             *
 *   Scientific publications using AMS results must be properly referenced     *
 *   See the User Manuals (or the web site) for recommended citations          *
 *   The terms and conditions of the End User License Agreement apply to       *
 *   the use of AMS, https://www.scm.com/license-terms/                        *
 *                                                                             *
 **********************  x86_64_linux_intel / intelmpi  ************************
 
 Licensed to: Dr. Val?rie Vallet / Laboratoire PhLAM UMR 8523 / Villeneuve d'Ascq Cedex / FRANCE 2023-02-21 11:49:39
 SCM User ID: u10325
  
 AMS 2022.103  RunTime: Feb22-2023 09:37:17  ShM Nodes: 4  Procs: 8

 AMS jobname: ams
 AMS jobid  : 807569269

 Start   directory: /home/shaaban/ams/PhD/bromide/pa_oh4_br/gp/B22/
 Results directory: /home/shaaban/ams/PhD/bromide/pa_oh4_br/gp/B22/pa_oh4_br.SR.b3lyp.tz2p.opt-freq-B22.results/
 Scratch directory: /state/partition2/shaaban/928770.phlam-s-sakura/amstmp_ams_kid0.807569269/


 Communication costs MPI_COMM_WORLD:      2.907 usec per message,   0.0176 usec per 8-byte item
 Communication costs for intra-node:      0.655 usec per message,   0.0025 usec per 8-byte item

 RNG seed: 1924554333 -1761633905 1711995178 247725710 -1593758420 -1202128519 1319612721 -1777619267



                      ************************************************************************
                      *  ADF 2022.103  RunTime: Feb22-2023 09:37:17  ShM Nodes: 4  Procs: 8  *
                      ************************************************************************
  
       ***************************
       *  GEOMETRY OPTIMIZATION  *
       ***************************

Optimization Method                    Quasi Newton
Optimization Coordinates               Delocalized Coordinates
Optimize lattice                       F
 
 ------------------------------------------------------
 Convergence criteria (Hartree,Angstrom)
 ------------------------------------------------------
 Maximum gradient               0.000100000000
 Maximum rms gradient           0.000066666667
 Maximum step allowed           0.001000000000
 Maximum rms step allowed       0.000666666667
 Maximum energy change allowe   0.000010000000
 Maximum stress energy allowe   0.000500000000
 
Initial model Hessian                  Automatic Hessian
 
------------------------------------
Quasi-Newton Optimizer Parameters
------------------------------------
Hessian Update Method                  BFGS
Maximum number of steps                  250
First GDIIS cycle                          0
Maximum GDIIS vectors                      0
Trust radius (bohr)                        0.200000
Trust radius varies                        T
Constraints converged at all steps         T
Use projector                              T
 
 Rigid motions settings for: old optimizer
 Atomic rotations (x,y,z):     T T T
 Atomic translations (x,y,z):  T T T
 Tolerance:                   1.000000000000000E-006
 
--------
Geometry
--------
Formula: H4BrO4Pa
Atoms
  Index Symbol   x (angstrom)   y (angstrom)   z (angstrom)
      1     Pa     0.34601472    -0.07416228     0.03577287
      2     Br     1.36859213     1.89810910    -1.61873039
      3      H    -1.96464694     1.85289063     0.46970094
      4      O    -1.31883582     1.14631278     0.42477540
      5      H     2.58473464    -0.23251484     1.96808979
      6      O     0.18639990    -1.35865954    -1.61665480
      7      H     0.15735988    -1.87462938    -2.42324305
      8      O    -0.37137603    -1.54781318     1.33768875
      9      H    -0.97669755    -2.15542285     1.76754294
     10      O     2.10237134     0.07657093     1.19788308
 
Total System Charge             0.00000
Bonding info available!
 
 
----------------
ADF Engine Input
----------------
 
 Basis
 Type TZ2P
 Core None
 End
 XC
 Hybrid B3LYP
 End
 NumericalQuality Good
 

 Title: *** (NO TITLE) ***

Bad geometry: could not add a dihedral for atom    7
 Using automatic Hessian for delocalized coordinates.
 *** GO1_GOStep1 ***



 ======================
 RI Hartree-Fock Scheme
 ======================
  
 Fit Set Quality     : GOOD
 Threshold Quality   : GOOD
 Integration Quality : GOOD
 Response Quality    : DEFAULT
 Is Range Separated  :  F
 
 RIHartreeFock Dependency: number of modified vectors:           4
  
 Hartree-Fock exchange energy:   -591.685800445517     

 Energy gradients wrt nuclear displacements
 ==========================================

     Atom      Cartesian (a.u./angstrom)
                 X         Y         Z
 ----------------------------------------
     1 Pa    0.003180  0.004814 -0.003593
     2 Br    0.001203  0.000210  0.000285
     3 H     0.000560 -0.000906  0.000138
     4 O    -0.011562  0.009055  0.002450
     5 H    -0.001471 -0.000399 -0.000735
     6 O    -0.000775 -0.008540 -0.012409
     7 H    -0.000041  0.000282  0.001118
     8 O    -0.003918 -0.007521  0.006529
     9 H    -0.000099 -0.000086 -0.000007
    10 O     0.012924  0.003092  0.006223
 ----------------------------------------
 Mulliken charges used for AMS results%charges...
 
----------------------------------------------------------------------
Geometry Convergence after Step   1       (Hartree/Angstrom,Angstrom)
----------------------------------------------------------------------
current energy                               -2.62919974 Hartree
energy change                      -2.62919974     0.00001000    F
constrained gradient max            0.01292965     0.00010000    F
constrained gradient rms            0.00526677     0.00006667    F
gradient max                        0.01292991
gradient rms                        0.00526677
cart. step max                      0.01399675     0.00100000    F
cart. step rms                      0.00549616     0.00066667    F
 
 
--------
Geometry
--------
Formula: H4BrO4Pa
Atoms
  Index Symbol   x (angstrom)   y (angstrom)   z (angstrom)
      1     Pa     0.34899070    -0.07245130     0.03485738
      2     Br     1.35459538     1.90167281    -1.62742426
      3      H    -1.95779440     1.84878207     0.46893514
      4      O    -1.31146094     1.14196263     0.42394158
      5      H     2.57785797    -0.24009460     1.97164412
      6      O     0.18786593    -1.35551828    -1.60960864
      7      H     0.15867700    -1.87206468    -2.41648781
      8      O    -0.36758438    -1.54192216     1.33327672
      9      H    -0.97317664    -2.14919199     1.76310222
     10      O     2.09594564     0.06950688     1.20058908
 
Total System Charge             0.00000
Bonding info available!
 
 *** GO1_GOStep2 ***



 ======================
 RI Hartree-Fock Scheme
 ======================
  
 Fit Set Quality     : GOOD
 Threshold Quality   : GOOD
 Integration Quality : GOOD
 Response Quality    : DEFAULT
 Is Range Separated  :  F
 
 RIHartreeFock Dependency: number of modified vectors:           4
  
 Hartree-Fock exchange energy:   -591.695622019198     

 Energy gradients wrt nuclear displacements
 ==========================================

     Atom      Cartesian (a.u./angstrom)
                 X         Y         Z
 ----------------------------------------
     1 Pa    0.001850  0.002785 -0.002386
     2 Br    0.000315 -0.000481  0.000663
     3 H     0.000033 -0.000170  0.000147
     4 O    -0.006164  0.004679  0.001292
     5 H    -0.001012 -0.000896  0.000274
     6 O    -0.000457 -0.004313 -0.006497
     7 H    -0.000009 -0.000175  0.000309
     8 O    -0.001907 -0.003998  0.003599
     9 H    -0.000105  0.000046 -0.000138
    10 O     0.007455  0.002525  0.002736
 ----------------------------------------
 Mulliken charges used for AMS results%charges...

 dE(predicted):    -0.19496E-03, dE(actual):    -0.29028E-03, Trust radius:    0.200000, all in a.u.
 
----------------------------------------------------------------------
Geometry Convergence after Step   2       (Hartree/Angstrom,Angstrom)
----------------------------------------------------------------------
current energy                               -2.62949002 Hartree
energy change                      -0.00029028     0.00001000    F
constrained gradient max            0.00746119     0.00010000    F
constrained gradient rms            0.00285387     0.00006667    F
gradient max                        0.00746137
gradient rms                        0.00285387
cart. step max                      0.01575607     0.00100000    F
cart. step rms                      0.00624102     0.00066667    F
 
 
--------
Geometry
--------
Formula: H4BrO4Pa
Atoms
  Index Symbol   x (angstrom)   y (angstrom)   z (angstrom)
      1     Pa     0.35199867    -0.07109539     0.03465915
      2     Br     1.33883931     1.90535352    -1.63735573
      3      H    -1.94882949     1.84354986     0.46730269
      4      O    -1.30248211     1.13646504     0.42281912
      5      H     2.57303824    -0.24558681     1.97438728
      6      O     0.18954473    -1.35165717    -1.60045808
      7      H     0.15998878    -1.86746610    -2.40804512
      8      O    -0.36496511    -1.53594610     1.32772743
      9      H    -0.97056652    -2.14320547     1.75761923
     10      O     2.08734978     0.06026999     1.20416957
 
Total System Charge             0.00000
Bonding info available!
 
 *** GO1_GOStep3 ***



 ======================
 RI Hartree-Fock Scheme
 ======================
  
 Fit Set Quality     : GOOD
 Threshold Quality   : GOOD
 Integration Quality : GOOD
 Response Quality    : DEFAULT
 Is Range Separated  :  F
 
 RIHartreeFock Dependency: number of modified vectors:           4
  
 Hartree-Fock exchange energy:   -591.708563093160     

 Energy gradients wrt nuclear displacements
 ==========================================

     Atom      Cartesian (a.u./angstrom)
                 X         Y         Z
 ----------------------------------------
     1 Pa   -0.000184  0.000104 -0.000641
     2 Br   -0.000606 -0.001159  0.001004
     3 H     0.000030  0.000046  0.000105
     4 O     0.000189 -0.000264 -0.000186
     5 H    -0.001111 -0.001054  0.000427
     6 O    -0.000043  0.000603  0.000239
     7 H     0.000056 -0.000226  0.000103
     8 O     0.000692  0.000419 -0.000112
     9 H    -0.000241  0.000078 -0.000200
    10 O     0.001219  0.001452 -0.000739
 ----------------------------------------
 Mulliken charges used for AMS results%charges...

 dE(predicted):    -0.13754E-03, dE(actual):    -0.12319E-03, Trust radius:    0.200000, all in a.u.
 
----------------------------------------------------------------------
Geometry Convergence after Step   3       (Hartree/Angstrom,Angstrom)
----------------------------------------------------------------------
current energy                               -2.62961321 Hartree
energy change                      -0.00012319     0.00001000    F
constrained gradient max            0.00145293     0.00010000    F
constrained gradient rms            0.00061247     0.00006667    F
gradient max                        0.00145351
gradient rms                        0.00061247
cart. step max                      0.00387384     0.00100000    F
cart. step rms                      0.00113725     0.00066667    F
 
 
--------
Geometry
--------
Formula: H4BrO4Pa
Atoms
  Index Symbol   x (angstrom)   y (angstrom)   z (angstrom)
      1     Pa     0.35169635    -0.07175721     0.03541619
      2     Br     1.33894847     1.90513128    -1.63742315
      3      H    -1.94836380     1.84355187     0.46673625
      4      O    -1.30225999     1.13619521     0.42274319
      5      H     2.57691208    -0.24250471     1.97378782
      6      O     0.18961505    -1.35171781    -1.59989203
      7      H     0.15982162    -1.86635625    -2.40822614
      8      O    -0.36687134    -1.53675609     1.32739173
      9      H    -0.97215197    -2.14425334     1.75738481
     10      O     2.08656979     0.05914842     1.20490686
 
Total System Charge             0.00000
Bonding info available!
 
 *** GO1_GOStep4 ***



 ======================
 RI Hartree-Fock Scheme
 ======================
  
 Fit Set Quality     : GOOD
 Threshold Quality   : GOOD
 Integration Quality : GOOD
 Response Quality    : DEFAULT
 Is Range Separated  :  F
 
 RIHartreeFock Dependency: number of modified vectors:           4
  
 Hartree-Fock exchange energy:   -591.708653417971     

 Energy gradients wrt nuclear displacements
 ==========================================

     Atom      Cartesian (a.u./angstrom)
                 X         Y         Z
 ----------------------------------------
     1 Pa   -0.000335  0.000040 -0.000505
     2 Br   -0.000533 -0.000995  0.000850
     3 H     0.000024  0.000060  0.000106
     4 O     0.000388 -0.000429 -0.000244
     5 H    -0.001089 -0.001039  0.000429
     6 O    -0.000032  0.000712  0.000390
     7 H     0.000052 -0.000228  0.000095
     8 O     0.000684  0.000406 -0.000124
     9 H    -0.000245  0.000072 -0.000193
    10 O     0.001086  0.001400 -0.000802
 ----------------------------------------
 Mulliken charges used for AMS results%charges...

 dE(predicted):    -0.63411E-05, dE(actual):    -0.11512E-04, Trust radius:    0.200000, all in a.u.
 
----------------------------------------------------------------------
Geometry Convergence after Step   4       (Hartree/Angstrom,Angstrom)
----------------------------------------------------------------------
current energy                               -2.62962472 Hartree
energy change                      -0.00001151     0.00001000    F
constrained gradient max            0.00140188     0.00010000    F
constrained gradient rms            0.00059094     0.00006667    F
gradient max                        0.00140244
gradient rms                        0.00059094
cart. step max                      0.09038845     0.00100000    F
cart. step rms                      0.02793853     0.00066667    F
 
 
--------
Geometry
--------
Formula: H4BrO4Pa
Atoms
  Index Symbol   x (angstrom)   y (angstrom)   z (angstrom)
      1     Pa     0.34300459    -0.09005455     0.05407912
      2     Br     1.34972374     1.89718347    -1.62969358
      3      H    -1.93983236     1.84605935     0.45444643
      4      O    -1.30036622     1.13189344     0.42210553
      5      H     2.66730053    -0.16277175     1.94770606
      6      O     0.19188555    -1.35611569    -1.59038705
      7      H     0.15748159    -1.84125541    -2.41664077
      8      O    -0.41405874    -1.55776204     1.32240079
      9      H    -1.01105205    -2.17060048     1.75580205
     10      O     2.06982963     0.03410505     1.22300696
 
Total System Charge             0.00000
Bonding info available!
 
 *** GO1_GOStep5 ***



 ======================
 RI Hartree-Fock Scheme
 ======================
  
 Fit Set Quality     : GOOD
 Threshold Quality   : GOOD
 Integration Quality : GOOD
 Response Quality    : DEFAULT
 Is Range Separated  :  F
 
 RIHartreeFock Dependency: number of modified vectors:           4
  
 Hartree-Fock exchange energy:   -591.706545947380     

 Energy gradients wrt nuclear displacements
 ==========================================

     Atom      Cartesian (a.u./angstrom)
                 X         Y         Z
 ----------------------------------------
     1 Pa   -0.002051 -0.001212  0.002361
     2 Br    0.001281  0.002707 -0.002500
     3 H    -0.000010  0.000127  0.000144
     4 O     0.001994 -0.001822 -0.000871
     5 H    -0.000669 -0.000650  0.000341
     6 O     0.000072  0.001263  0.001111
     7 H    -0.000061 -0.000196  0.000068
     8 O    -0.000329 -0.001048  0.000708
     9 H    -0.000176  0.000052 -0.000129
    10 O    -0.000052  0.000779 -0.001233
 ----------------------------------------
 Mulliken charges used for AMS results%charges...

 dE(predicted):    -0.14790E-03, dE(actual):    -0.13591E-03, Trust radius:    0.400000, all in a.u.
 
----------------------------------------------------------------------
Geometry Convergence after Step   5       (Hartree/Angstrom,Angstrom)
----------------------------------------------------------------------
current energy                               -2.62976063 Hartree
energy change                      -0.00013591     0.00001000    F
constrained gradient max            0.00270420     0.00010000    F
constrained gradient rms            0.00118777     0.00006667    F
gradient max                        0.00270395
gradient rms                        0.00118777
cart. step max                      0.02733966     0.00100000    F
cart. step rms                      0.00926419     0.00066667    F
 
 
--------
Geometry
--------
Formula: H4BrO4Pa
Atoms
  Index Symbol   x (angstrom)   y (angstrom)   z (angstrom)
      1     Pa     0.33910995    -0.09699435     0.05929123
      2     Br     1.35589521     1.89329070    -1.62165824
      3      H    -1.93800348     1.84821208     0.45107986
      4      O    -1.30122758     1.13151316     0.42223381
      5      H     2.69433837    -0.13543209     1.93399300
      6      O     0.19272413    -1.35911875    -1.58922301
      7      H     0.15839413    -1.83403978    -2.42138679
      8      O    -0.42885520    -1.56385599     1.32175744
      9      H    -1.02223792    -2.17826581     1.75770407
     10      O     2.06377866     0.02537221     1.22903415
 
Total System Charge             0.00000
Bonding info available!
 
 *** GO1_GOStep6 ***



 ======================
 RI Hartree-Fock Scheme
 ======================
  
 Fit Set Quality     : GOOD
 Threshold Quality   : GOOD
 Integration Quality : GOOD
 Response Quality    : DEFAULT
 Is Range Separated  :  F
 
 RIHartreeFock Dependency: number of modified vectors:           4
  
 Hartree-Fock exchange energy:   -591.705169294677     

 Energy gradients wrt nuclear displacements
 ==========================================

     Atom      Cartesian (a.u./angstrom)
                 X         Y         Z
 ----------------------------------------
     1 Pa   -0.002099 -0.001927  0.002830
     2 Br    0.001683  0.003451 -0.003068
     3 H    -0.000012  0.000101  0.000152
     4 O     0.001488 -0.001362 -0.000793
     5 H    -0.000565 -0.000552  0.000277
     6 O     0.000100  0.000959  0.000667
     7 H    -0.000097 -0.000165  0.000072
     8 O    -0.000479 -0.001245  0.000963
     9 H    -0.000139  0.000070 -0.000148
    10 O     0.000120  0.000670 -0.000952
 ----------------------------------------
 Mulliken charges used for AMS results%charges...

 dE(predicted):    -0.20994E-04, dE(actual):    -0.17268E-04, Trust radius:    0.400000, all in a.u.
 
----------------------------------------------------------------------
Geometry Convergence after Step   6       (Hartree/Angstrom,Angstrom)
----------------------------------------------------------------------
current energy                               -2.62977790 Hartree
energy change                      -0.00001727     0.00001000    F
constrained gradient max            0.00344793     0.00010000    F
constrained gradient rms            0.00130709     0.00006667    F
gradient max                        0.00344742
gradient rms                        0.00130709
cart. step max                      0.06338938     0.00100000    F
cart. step rms                      0.02122852     0.00066667    F
 
 
--------
Geometry
--------
Formula: H4BrO4Pa
Atoms
  Index Symbol   x (angstrom)   y (angstrom)   z (angstrom)
      1     Pa     0.32964642    -0.11293416     0.07035105
      2     Br     1.37151004     1.88126530    -1.59775599
      3      H    -1.93352138     1.85437792     0.44540289
      4      O    -1.30350591     1.13156993     0.42393902
      5      H     2.74914790    -0.07204271     1.89392010
      6      O     0.19507782    -1.36734165    -1.58684280
      7      H     0.16392452    -1.81864401    -2.43215329
      8      O    -0.46148938    -1.57612860     1.31977767
      9      H    -1.04562241    -2.19422916     1.76268666
     10      O     2.04874864     0.00478852     1.24350023
 
Total System Charge             0.00000
Bonding info available!
 
 *** GO1_GOStep7 ***



 ======================
 RI Hartree-Fock Scheme
 ======================
  
 Fit Set Quality     : GOOD
 Threshold Quality   : GOOD
 Integration Quality : GOOD
 Response Quality    : DEFAULT
 Is Range Separated  :  F
 
 RIHartreeFock Dependency: number of modified vectors:           3
  
 Hartree-Fock exchange energy:   -591.704253659186     

 Energy gradients wrt nuclear displacements
 ==========================================

     Atom      Cartesian (a.u./angstrom)
                 X         Y         Z
 ----------------------------------------
     1 Pa   -0.001587 -0.003877  0.003755
     2 Br    0.002113  0.004178 -0.003463
     3 H     0.000130 -0.000192  0.000165
     4 O    -0.000061  0.000187 -0.000507
     5 H    -0.000541 -0.000352 -0.000005
     6 O     0.000195  0.000131 -0.000629
     7 H    -0.000164  0.000081  0.000461
     8 O    -0.000392 -0.000902  0.000951
     9 H    -0.000003  0.000185 -0.000263
    10 O     0.000310  0.000561 -0.000464
 ----------------------------------------
 Mulliken charges used for AMS results%charges...

 dE(predicted):    -0.48969E-04, dE(actual):    -0.21023E-03, Trust radius:    0.400000, all in a.u.
 
----------------------------------------------------------------------
Geometry Convergence after Step   7       (Hartree/Angstrom,Angstrom)
----------------------------------------------------------------------
current energy                               -2.62998813 Hartree
energy change                      -0.00021023     0.00001000    F
constrained gradient max            0.00417572     0.00010000    F
constrained gradient rms            0.00152365     0.00006667    F
gradient max                        0.00417451
gradient rms                        0.00152365
cart. step max                      0.06034121     0.00100000    F
cart. step rms                      0.02042002     0.00066667    F
 
 
--------
Geometry
--------
Formula: H4BrO4Pa
Atoms
  Index Symbol   x (angstrom)   y (angstrom)   z (angstrom)
      1     Pa     0.32041989    -0.12692695     0.08045242
      2     Br     1.38735256     1.86567019    -1.57121907
      3      H    -1.92872082     1.86166116     0.44254109
      4      O    -1.30552017     1.13261324     0.42760907
      5      H     2.79204009    -0.01170150     1.84525452
      6      O     0.19782226    -1.37585661    -1.58354290
      7      H     0.17400698    -1.80467254    -2.44116262
      8      O    -0.49143689    -1.58617516     1.31677973
      9      H    -1.06549845    -2.20844285     1.76719901
     10      O     2.03345081    -0.01548761     1.25891429
 
Total System Charge             0.00000
Bonding info available!
 
 *** GO1_GOStep8 ***



 ======================
 RI Hartree-Fock Scheme
 ======================
  
 Fit Set Quality     : GOOD
 Threshold Quality   : GOOD
 Integration Quality : GOOD
 Response Quality    : DEFAULT
 Is Range Separated  :  F
 
 RIHartreeFock Dependency: number of modified vectors:           4
  
 Hartree-Fock exchange energy:   -591.703485490439     

 Energy gradients wrt nuclear displacements
 ==========================================

     Atom      Cartesian (a.u./angstrom)
                 X         Y         Z
 ----------------------------------------
     1 Pa   -0.000395 -0.005178  0.004457
     2 Br    0.001924  0.003782 -0.002978
     3 H    -0.000313  0.000316  0.000112
     4 O    -0.000809  0.000681 -0.000152
     5 H    -0.000095 -0.000289  0.000180
     6 O     0.000289  0.000069 -0.000199
     7 H    -0.000231 -0.000284 -0.000520
     8 O     0.000171  0.000272  0.000161
     9 H    -0.000024  0.000130 -0.000245
    10 O    -0.000517  0.000501 -0.000817
 ----------------------------------------
 Mulliken charges used for AMS results%charges...
 Rebuilding optimization coordinates
Bad geometry: could not add a dihedral for atom    5

 dE(predicted):    -0.41077E-04, dE(actual):     0.69354E-04, Trust radius:    0.300000, all in a.u.
 
----------------------------------------------------------------------
Geometry Convergence after Step   8       (Hartree/Angstrom,Angstrom)
----------------------------------------------------------------------
current energy                               -2.62991877 Hartree
energy change                       0.00006935     0.00001000    F
constrained gradient max            0.00517860     0.00010000    F
constrained gradient rms            0.00160330     0.00006667    F
gradient max                        0.00517874
gradient rms                        0.00160330
cart. step max                      0.07159601     0.00100000    F
cart. step rms                      0.02382051     0.00066667    F
 
 
--------
Geometry
--------
Formula: H4BrO4Pa
Atoms
  Index Symbol   x (angstrom)   y (angstrom)   z (angstrom)
      1     Pa     0.30976611    -0.14098600     0.09097318
      2     Br     1.40822376     1.84240651    -1.53855186
      3      H    -1.92113462     1.87113465     0.44332627
      4      O    -1.30656654     1.13528708     0.43442301
      5      H     2.82638222     0.05989451     1.77983531
      6      O     0.20008337    -1.38547407    -1.57906216
      7      H     0.18982727    -1.78932134    -2.44854865
      8      O    -0.52379687    -1.59727511     1.31179885
      9      H    -1.08501416    -2.22514635     1.77104656
     10      O     2.01614573    -0.03983850     1.27758501
 
Total System Charge             0.00000
Bonding info available!
 
 *** GO1_GOStep9 ***



 ======================
 RI Hartree-Fock Scheme
 ======================
  
 Fit Set Quality     : GOOD
 Threshold Quality   : GOOD
 Integration Quality : GOOD
 Response Quality    : DEFAULT
 Is Range Separated  :  F
 
 RIHartreeFock Dependency: number of modified vectors:           3
  
 Hartree-Fock exchange energy:   -591.706622737780     

 Energy gradients wrt nuclear displacements
 ==========================================

     Atom      Cartesian (a.u./angstrom)
                 X         Y         Z
 ----------------------------------------
     1 Pa    0.001322 -0.004918  0.004410
     2 Br    0.001120  0.002190 -0.001597
     3 H     0.000394 -0.000522  0.000023
     4 O    -0.002188  0.002065  0.000252
     5 H    -0.000675 -0.000174 -0.000439
     6 O     0.000314 -0.000838 -0.001250
     7 H    -0.000231  0.000334  0.000454
     8 O     0.001340  0.001964 -0.001160
     9 H    -0.000546 -0.000397  0.000130
    10 O    -0.000849  0.000297 -0.000823
 ----------------------------------------
 Mulliken charges used for AMS results%charges...

 dE(predicted):    -0.43088E-04, dE(actual):    -0.22315E-03, Trust radius:    0.300000, all in a.u.
 
----------------------------------------------------------------------
Geometry Convergence after Step   9       (Hartree/Angstrom,Angstrom)
----------------------------------------------------------------------
current energy                               -2.63014192 Hartree
energy change                      -0.00022315     0.00001000    F
constrained gradient max            0.00491856     0.00010000    F
constrained gradient rms            0.00159058     0.00006667    F
gradient max                        0.00491855
gradient rms                        0.00159058
cart. step max                      0.01171644     0.00100000    F
cart. step rms                      0.00399180     0.00066667    F
 
 
--------
Geometry
--------
Formula: H4BrO4Pa
Atoms
  Index Symbol   x (angstrom)   y (angstrom)   z (angstrom)
      1     Pa     0.30947354    -0.13694867     0.08729892
      2     Br     1.40553501     1.84181625    -1.54259877
      3      H    -1.92359738     1.87169839     0.44498002
      4      O    -1.30774565     1.13649829     0.43416687
      5      H     2.82164520     0.04817807     1.79087118
      6      O     0.19738301    -1.38383325    -1.58076352
      7      H     0.19071763    -1.79293756    -2.44817751
      8      O    -0.51814879    -1.59508519     1.31155547
      9      H    -1.07905331    -2.22284492     1.77069887
     10      O     2.01770701    -0.03586003     1.27479400
 
Total System Charge             0.00000
Bonding info available!
 
 *** GO1_GOStep10 ***



 ======================
 RI Hartree-Fock Scheme
 ======================
  
 Fit Set Quality     : GOOD
 Threshold Quality   : GOOD
 Integration Quality : GOOD
 Response Quality    : DEFAULT
 Is Range Separated  :  F
 
 RIHartreeFock Dependency: number of modified vectors:           3
  
 Hartree-Fock exchange energy:   -591.705870393072     

 Energy gradients wrt nuclear displacements
 ==========================================

     Atom      Cartesian (a.u./angstrom)
                 X         Y         Z
 ----------------------------------------
     1 Pa    0.000034 -0.003255  0.002294
     2 Br    0.000845  0.001430 -0.000986
     3 H     0.000005 -0.000001  0.000027
     4 O    -0.001518  0.001265  0.000280
     5 H     0.000305 -0.000083  0.000195
     6 O     0.000275 -0.000633 -0.000680
     7 H    -0.000173  0.000029 -0.000118
     8 O     0.000934  0.001063 -0.000424
     9 H    -0.000200 -0.000018 -0.000138
    10 O    -0.000509  0.000202 -0.000450
 ----------------------------------------
 Mulliken charges used for AMS results%charges...

 dE(predicted):    -0.10793E-04, dE(actual):    -0.15855E-04, Trust radius:    0.300000, all in a.u.
 
----------------------------------------------------------------------
Geometry Convergence after Step  10       (Hartree/Angstrom,Angstrom)
----------------------------------------------------------------------
current energy                               -2.63015778 Hartree
energy change                      -0.00001586     0.00001000    F
constrained gradient max            0.00325508     0.00010000    F
constrained gradient rms            0.00095639     0.00006667    F
gradient max                        0.00325507
gradient rms                        0.00095639
cart. step max                      0.01817721     0.00100000    F
cart. step rms                      0.00625986     0.00066667    F
 
 
--------
Geometry
--------
Formula: H4BrO4Pa
Atoms
  Index Symbol   x (angstrom)   y (angstrom)   z (angstrom)
      1     Pa     0.30649760    -0.13822699     0.08922186
      2     Br     1.40755750     1.83156446    -1.53749774
      3      H    -1.92024241     1.87534555     0.44754536
      4      O    -1.30644804     1.13809089     0.43733887
      5      H     2.82825247     0.06635528     1.77456042
      6      O     0.19553627    -1.38446071    -1.57876653
      7      H     0.19961861    -1.78934225    -2.44840210
      8      O    -0.52721939    -1.59815659     1.30832136
      9      H    -1.08305055    -2.22818759     1.76992594
     10      O     2.01341420    -0.04230067     1.28057808
 
Total System Charge             0.00000
Bonding info available!
 
 *** GO1_GOStep11 ***



 ======================
 RI Hartree-Fock Scheme
 ======================
  
 Fit Set Quality     : GOOD
 Threshold Quality   : GOOD
 Integration Quality : GOOD
 Response Quality    : DEFAULT
 Is Range Separated  :  F
 
 RIHartreeFock Dependency: number of modified vectors:           4
  
 Hartree-Fock exchange energy:   -591.706400439466     

 Energy gradients wrt nuclear displacements
 ==========================================

     Atom      Cartesian (a.u./angstrom)
                 X         Y         Z
 ----------------------------------------
     1 Pa   -0.000026 -0.000691  0.000458
     2 Br    0.000078  0.000048 -0.000007
     3 H    -0.000404  0.000679 -0.000039
     4 O    -0.000181 -0.000334  0.000241
     5 H     0.000571  0.000034  0.000271
     6 O     0.000126 -0.000119  0.000599
     7 H    -0.000068 -0.000200 -0.000763
     8 O     0.000583  0.000509 -0.000174
     9 H    -0.000000  0.000188 -0.000261
    10 O    -0.000680 -0.000113 -0.000326
 ----------------------------------------
 Mulliken charges used for AMS results%charges...

 dE(predicted):    -0.12387E-04, dE(actual):     0.16119E-03, Trust radius:    0.023616, all in a.u.
 
----------------------------------------------------------------------
Geometry Convergence after Step  11       (Hartree/Angstrom,Angstrom)
----------------------------------------------------------------------
current energy                               -2.62999659 Hartree
energy change                       0.00016119     0.00001000    F
constrained gradient max            0.00076528     0.00010000    F
constrained gradient rms            0.00037666     0.00006667    F
gradient max                        0.00076552
gradient rms                        0.00037666
cart. step max                      0.00153577     0.00100000    F
cart. step rms                      0.00075052     0.00066667    F
 
 
--------
Geometry
--------
Formula: H4BrO4Pa
Atoms
  Index Symbol   x (angstrom)   y (angstrom)   z (angstrom)
      1     Pa     0.30664380    -0.13792727     0.08938786
      2     Br     1.40602173     1.83043658    -1.53875321
      3      H    -1.91910298     1.87517494     0.44792419
      4      O    -1.30537246     1.13831803     0.43744213
      5      H     2.82850901     0.06704306     1.77462345
      6      O     0.19491258    -1.38353614    -1.57858441
      7      H     0.20084231    -1.78891447    -2.44759520
      8      O    -0.52853787    -1.59880035     1.30778448
      9      H    -1.08382530    -2.22922319     1.76961469
     10      O     2.01382543    -0.04188982     1.28098155
 
Total System Charge             0.00000
Bonding info available!
 
 *** GO1_GOStep12 ***



 ======================
 RI Hartree-Fock Scheme
 ======================
  
 Fit Set Quality     : GOOD
 Threshold Quality   : GOOD
 Integration Quality : GOOD
 Response Quality    : DEFAULT
 Is Range Separated  :  F
 
 RIHartreeFock Dependency: number of modified vectors:           4
  
 Hartree-Fock exchange energy:   -591.707098566249     

 Energy gradients wrt nuclear displacements
 ==========================================

     Atom      Cartesian (a.u./angstrom)
                 X         Y         Z
 ----------------------------------------
     1 Pa   -0.000151  0.000118 -0.000108
     2 Br   -0.000057 -0.000142  0.000096
     3 H     0.000058  0.000152 -0.000049
     4 O    -0.000227 -0.000160  0.000143
     5 H     0.000135 -0.000018 -0.000004
     6 O     0.000087 -0.000241  0.000164
     7 H    -0.000041  0.000081 -0.000135
     8 O     0.000366  0.000185  0.000024
     9 H    -0.000074  0.000086 -0.000178
    10 O    -0.000096 -0.000060  0.000047
 ----------------------------------------
 Mulliken charges used for AMS results%charges...

 dE(predicted):    -0.17502E-05, dE(actual):    -0.99953E-05, Trust radius:    0.047232, all in a.u.
 
----------------------------------------------------------------------
Geometry Convergence after Step  12       (Hartree/Angstrom,Angstrom)
----------------------------------------------------------------------
current energy                               -2.63000658 Hartree
energy change                      -0.00001000     0.00001000    T
constrained gradient max            0.00035997     0.00010000    F
constrained gradient rms            0.00013815     0.00006667    F
gradient max                        0.00036000
gradient rms                        0.00013815
cart. step max                      0.00112807     0.00100000    F
cart. step rms                      0.00054917     0.00066667    T
 
 
--------
Geometry
--------
Formula: H4BrO4Pa
Atoms
  Index Symbol   x (angstrom)   y (angstrom)   z (angstrom)
      1     Pa     0.30699676    -0.13801044     0.08950549
      2     Br     1.40489366     1.83047560    -1.53976034
      3      H    -1.91845269     1.87484433     0.44798893
      4      O    -1.30435567     1.13842357     0.43711656
      5      H     2.82841048     0.06677354     1.77561739
      6      O     0.19439508    -1.38267367    -1.57883382
      7      H     0.20121412    -1.78890471    -2.44731861
      8      O    -0.52934234    -1.59928887     1.30773264
      9      H    -1.08424528    -2.22986936     1.76992207
     10      O     2.01440215    -0.04108862     1.28085522
 
Total System Charge             0.00000
Bonding info available!
 
 *** GO1_GOStep13 ***



 ======================
 RI Hartree-Fock Scheme
 ======================
  
 Fit Set Quality     : GOOD
 Threshold Quality   : GOOD
 Integration Quality : GOOD
 Response Quality    : DEFAULT
 Is Range Separated  :  F
 
 RIHartreeFock Dependency: number of modified vectors:           4
  
 Hartree-Fock exchange energy:   -591.707051318461     

 Energy gradients wrt nuclear displacements
 ==========================================

     Atom      Cartesian (a.u./angstrom)
                 X         Y         Z
 ----------------------------------------
     1 Pa   -0.000128  0.000396 -0.000284
     2 Br   -0.000078 -0.000110  0.000054
     3 H     0.000192 -0.000008 -0.000045
     4 O    -0.000150 -0.000148  0.000055
     5 H    -0.000045 -0.000044 -0.000115
     6 O     0.000053 -0.000214  0.000026
     7 H    -0.000022  0.000162  0.000072
     8 O     0.000176 -0.000041  0.000184
     9 H    -0.000134 -0.000003 -0.000109
    10 O     0.000134  0.000009  0.000161
 ----------------------------------------
 Mulliken charges used for AMS results%charges...

 dE(predicted):    -0.67786E-06, dE(actual):     0.76474E-05, Trust radius:    0.020000, all in a.u.
 
----------------------------------------------------------------------
Geometry Convergence after Step  13       (Hartree/Angstrom,Angstrom)
----------------------------------------------------------------------
current energy                               -2.62999893 Hartree
energy change                       0.00000765     0.00001000    T
constrained gradient max            0.00039605     0.00010000    F
constrained gradient rms            0.00014140     0.00006667    F
gradient max                        0.00039607
gradient rms                        0.00014140
cart. step max                      0.00078679     0.00100000    T
cart. step rms                      0.00041698     0.00066667    T
 
 
--------
Geometry
--------
Formula: H4BrO4Pa
Atoms
  Index Symbol   x (angstrom)   y (angstrom)   z (angstrom)
      1     Pa     0.30714502    -0.13824588     0.08940092
      2     Br     1.40486841     1.83058327    -1.54003399
      3      H    -1.91827519     1.87462391     0.44816799
      4      O    -1.30360042     1.13870131     0.43668561
      5      H     2.82800918     0.06668278     1.77640419
      6      O     0.19367692    -1.38197966    -1.57944461
      7      H     0.20132592    -1.78921628    -2.44744119
      8      O    -0.52986995    -1.59960120     1.30769944
      9      H    -1.08388401    -2.23039266     1.77070300
     10      O     2.01452038    -0.04047423     1.28068418
 
Total System Charge             0.00000
Bonding info available!
 
 *** GO1_GOStep14 ***



 ======================
 RI Hartree-Fock Scheme
 ======================
  
 Fit Set Quality     : GOOD
 Threshold Quality   : GOOD
 Integration Quality : GOOD
 Response Quality    : DEFAULT
 Is Range Separated  :  F
 
 RIHartreeFock Dependency: number of modified vectors:           3
  
 Hartree-Fock exchange energy:   -591.707956866077     

 Energy gradients wrt nuclear displacements
 ==========================================

     Atom      Cartesian (a.u./angstrom)
                 X         Y         Z
 ----------------------------------------
     1 Pa   -0.000102  0.000349 -0.000276
     2 Br   -0.000058 -0.000037  0.000005
     3 H     0.000362 -0.000278 -0.000015
     4 O    -0.000227  0.000124 -0.000039
     5 H    -0.000255 -0.000096 -0.000218
     6 O     0.000059 -0.000206 -0.000282
     7 H    -0.000022  0.000248  0.000374
     8 O    -0.000067 -0.000300  0.000384
     9 H    -0.000063  0.000059 -0.000150
    10 O     0.000372  0.000137  0.000216
 ----------------------------------------
 Mulliken charges used for AMS results%charges...

 dE(predicted):    -0.40730E-06, dE(actual):    -0.18390E-03, Trust radius:    0.040000, all in a.u.
 
----------------------------------------------------------------------
Geometry Convergence after Step  14       (Hartree/Angstrom,Angstrom)
----------------------------------------------------------------------
current energy                               -2.63018283 Hartree
energy change                      -0.00018390     0.00001000    F
constrained gradient max            0.00037979     0.00010000    F
constrained gradient rms            0.00021702     0.00006667    F
gradient max                        0.00037952
gradient rms                        0.00021702
cart. step max                      0.00876797     0.00100000    F
cart. step rms                      0.00276776     0.00066667    F
 
 
--------
Geometry
--------
Formula: H4BrO4Pa
Atoms
  Index Symbol   x (angstrom)   y (angstrom)   z (angstrom)
      1     Pa     0.30627437    -0.14046644     0.09037298
      2     Br     1.40840295     1.82829977    -1.53668808
      3      H    -1.91715911     1.87541491     0.44885968
      4      O    -1.30199081     1.13964781     0.43661136
      5      H     2.82981793     0.07545075     1.76983680
      6      O     0.19209499    -1.38161997    -1.58032086
      7      H     0.20317934    -1.78832606    -2.44875543
      8      O    -0.53452495    -1.60154452     1.30698984
      9      H    -1.08464039    -2.23361453     1.77311504
     10      O     2.01246194    -0.04256035     1.28280420
 
Total System Charge             0.00000
Bonding info available!
 
 *** GO1_GOStep15 ***



 ======================
 RI Hartree-Fock Scheme
 ======================
  
 Fit Set Quality     : GOOD
 Threshold Quality   : GOOD
 Integration Quality : GOOD
 Response Quality    : DEFAULT
 Is Range Separated  :  F
 
 RIHartreeFock Dependency: number of modified vectors:           4
  
 Hartree-Fock exchange energy:   -591.706673964901     

 Energy gradients wrt nuclear displacements
 ==========================================

     Atom      Cartesian (a.u./angstrom)
                 X         Y         Z
 ----------------------------------------
     1 Pa    0.000431  0.000325 -0.000159
     2 Br   -0.000084  0.000020 -0.000015
     3 H    -0.000087  0.000313 -0.000035
     4 O     0.000209 -0.000434 -0.000047
     5 H     0.000052 -0.000029 -0.000062
     6 O    -0.000060  0.000103  0.000334
     7 H     0.000034 -0.000010 -0.000252
     8 O    -0.000025 -0.000173  0.000313
     9 H    -0.000286 -0.000226  0.000062
    10 O    -0.000183  0.000111 -0.000137
 ----------------------------------------
 Mulliken charges used for AMS results%charges...

 dE(predicted):    -0.88617E-06, dE(actual):     0.17147E-03, Trust radius:    0.020000, all in a.u.
 
----------------------------------------------------------------------
Geometry Convergence after Step  15       (Hartree/Angstrom,Angstrom)
----------------------------------------------------------------------
current energy                               -2.63001137 Hartree
energy change                       0.00017147     0.00001000    F
constrained gradient max            0.00043363     0.00010000    F
constrained gradient rms            0.00019943     0.00006667    F
gradient max                        0.00043376
gradient rms                        0.00019943
cart. step max                      0.00260419     0.00100000    F
cart. step rms                      0.00094739     0.00066667    F
 
 
--------
Geometry
--------
Formula: H4BrO4Pa
Atoms
  Index Symbol   x (angstrom)   y (angstrom)   z (angstrom)
      1     Pa     0.30585897    -0.14053270     0.08971382
      2     Br     1.41100714     1.82764357    -1.53597922
      3      H    -1.91779731     1.87540326     0.44971149
      4      O    -1.30168438     1.14047870     0.43622191
      5      H     2.82883315     0.07661094     1.76974897
      6      O     0.19070565    -1.38111756    -1.58139573
      7      H     0.20288067    -1.78915100    -2.44919760
      8      O    -0.53482484    -1.60156140     1.30629706
      9      H    -1.08231451    -2.23436279     1.77438000
     10      O     2.01125172    -0.04272965     1.28332483
 
Total System Charge             0.00000
Bonding info available!
 
 *** GO1_GOStep16 ***



 ======================
 RI Hartree-Fock Scheme
 ======================
  
 Fit Set Quality     : GOOD
 Threshold Quality   : GOOD
 Integration Quality : GOOD
 Response Quality    : DEFAULT
 Is Range Separated  :  F
 
 RIHartreeFock Dependency: number of modified vectors:           4
  
 Hartree-Fock exchange energy:   -591.706640954960     

 Energy gradients wrt nuclear displacements
 ==========================================

     Atom      Cartesian (a.u./angstrom)
                 X         Y         Z
 ----------------------------------------
     1 Pa    0.000404  0.000237 -0.000201
     2 Br   -0.000063  0.000024  0.000002
     3 H    -0.000069  0.000290 -0.000038
     4 O     0.000142 -0.000358 -0.000028
     5 H     0.000134 -0.000018 -0.000012
     6 O    -0.000094  0.000105  0.000310
     7 H     0.000052 -0.000021 -0.000259
     8 O    -0.000047 -0.000216  0.000373
     9 H    -0.000214 -0.000154  0.000011
    10 O    -0.000246  0.000111 -0.000158
 ----------------------------------------
 Mulliken charges used for AMS results%charges...

 dE(predicted):    -0.64633E-06, dE(actual):    -0.14829E-05, Trust radius:    0.040000, all in a.u.
 
----------------------------------------------------------------------
Geometry Convergence after Step  16       (Hartree/Angstrom,Angstrom)
----------------------------------------------------------------------
current energy                               -2.63001285 Hartree
energy change                      -0.00000148     0.00001000    T
constrained gradient max            0.00040412     0.00010000    F
constrained gradient rms            0.00018816     0.00006667    F
gradient max                        0.00040412
gradient rms                        0.00018816
cart. step max                      0.01149322     0.00100000    F
cart. step rms                      0.00410860     0.00066667    F
 
 
--------
Geometry
--------
Formula: H4BrO4Pa
Atoms
  Index Symbol   x (angstrom)   y (angstrom)   z (angstrom)
      1     Pa     0.30511951    -0.13929479     0.08635501
      2     Br     1.42197858     1.82583957    -1.53548313
      3      H    -1.92174186     1.87418881     0.45358165
      4      O    -1.30076692     1.14368169     0.43434498
      5      H     2.82330924     0.07800729     1.77343205
      6      O     0.18621664    -1.37909548    -1.58529399
      7      H     0.19783316    -1.79346836    -2.45000671
      8      O    -0.53387368    -1.60038996     1.30239100
      9      H    -1.07082129    -2.23636289     1.77787714
     10      O     2.00666288    -0.04242450     1.28562753
 
Total System Charge             0.00000
Bonding info available!
 
 *** GO1_GOStep17 ***



 ======================
 RI Hartree-Fock Scheme
 ======================
  
 Fit Set Quality     : GOOD
 Threshold Quality   : GOOD
 Integration Quality : GOOD
 Response Quality    : DEFAULT
 Is Range Separated  :  F
 
 RIHartreeFock Dependency: number of modified vectors:           3
  
 Hartree-Fock exchange energy:   -591.707671280747     

 Energy gradients wrt nuclear displacements
 ==========================================

     Atom      Cartesian (a.u./angstrom)
                 X         Y         Z
 ----------------------------------------
     1 Pa    0.000048 -0.000267 -0.000091
     2 Br    0.000092  0.000100 -0.000024
     3 H     0.000229 -0.000127 -0.000034
     4 O    -0.000333  0.000213  0.000049
     5 H     0.000055 -0.000047 -0.000026
     6 O    -0.000126 -0.000090 -0.000183
     7 H     0.000052  0.000111  0.000133
     8 O    -0.000011 -0.000226  0.000429
     9 H     0.000108  0.000198 -0.000240
    10 O    -0.000112  0.000135 -0.000012
 ----------------------------------------
 Mulliken charges used for AMS results%charges...

 dE(predicted):    -0.31601E-05, dE(actual):    -0.17209E-03, Trust radius:    0.080000, all in a.u.
 
----------------------------------------------------------------------
Geometry Convergence after Step  17       (Hartree/Angstrom,Angstrom)
----------------------------------------------------------------------
current energy                               -2.63018494 Hartree
energy change                      -0.00017209     0.00001000    F
constrained gradient max            0.00042444     0.00010000    F
constrained gradient rms            0.00016324     0.00006667    F
gradient max                        0.00042416
gradient rms                        0.00016324
cart. step max                      0.00808559     0.00100000    F
cart. step rms                      0.00315281     0.00066667    F
 
 
--------
Geometry
--------
Formula: H4BrO4Pa
Atoms
  Index Symbol   x (angstrom)   y (angstrom)   z (angstrom)
      1     Pa     0.30443182    -0.13940060     0.08505324
      2     Br     1.43006417     1.82270079    -1.53415961
      3      H    -1.92334557     1.87380063     0.45728154
      4      O    -1.29872136     1.14646742     0.43353978
      5      H     2.82141397     0.08484641     1.77151065
      6      O     0.18299354    -1.37749296    -1.58768068
      7      H     0.19604916    -1.79595367    -2.45047310
      8      O    -0.53709787    -1.60080760     1.29853009
      9      H    -1.06471838    -2.23987611     1.78029704
     10      O     2.00284679    -0.04360294     1.28892659
 
Total System Charge             0.00000
Bonding info available!
 
 *** GO1_GOStep18 ***



 ======================
 RI Hartree-Fock Scheme
 ======================
  
 Fit Set Quality     : GOOD
 Threshold Quality   : GOOD
 Integration Quality : GOOD
 Response Quality    : DEFAULT
 Is Range Separated  :  F
 
 RIHartreeFock Dependency: number of modified vectors:           4
  
 Hartree-Fock exchange energy:   -591.706628561009     

 Energy gradients wrt nuclear displacements
 ==========================================

     Atom      Cartesian (a.u./angstrom)
                 X         Y         Z
 ----------------------------------------
     1 Pa    0.000198 -0.000176 -0.000109
     2 Br    0.000073  0.000054 -0.000002
     3 H    -0.000041  0.000244 -0.000060
     4 O    -0.000070 -0.000225  0.000096
     5 H     0.000275  0.000022  0.000073
     6 O    -0.000275  0.000052  0.000213
     7 H     0.000103 -0.000047 -0.000251
     8 O     0.000173  0.000024  0.000216
     9 H    -0.000014  0.000014 -0.000095
    10 O    -0.000421  0.000036 -0.000080
 ----------------------------------------
 Mulliken charges used for AMS results%charges...

 dE(predicted):    -0.10514E-05, dE(actual):     0.17892E-03, Trust radius:    0.020000, all in a.u.
 
----------------------------------------------------------------------
Geometry Convergence after Step  18       (Hartree/Angstrom,Angstrom)
----------------------------------------------------------------------
current energy                               -2.63000602 Hartree
energy change                       0.00017892     0.00001000    F
constrained gradient max            0.00042658     0.00010000    F
constrained gradient rms            0.00016025     0.00006667    F
gradient max                        0.00042661
gradient rms                        0.00016025
cart. step max                      0.00684250     0.00100000    F
cart. step rms                      0.00274361     0.00066667    F
 
 
--------
Geometry
--------
Formula: H4BrO4Pa
Atoms
  Index Symbol   x (angstrom)   y (angstrom)   z (angstrom)
      1     Pa     0.30469637    -0.13808061     0.08311628
      2     Br     1.43615070     1.82108882    -1.53546796
      3      H    -1.92591369     1.87246400     0.46129895
      4      O    -1.29691416     1.14908151     0.43245947
      5      H     2.81846868     0.08668083     1.77426594
      6      O     0.18135371    -1.37590245    -1.58964597
      7      H     0.19200527    -1.79962347    -2.44990448
      8      O    -0.53843253    -1.59997458     1.29424053
      9      H    -1.05787588    -2.24185998     1.78116971
     10      O     2.00037778    -0.04319269     1.29129306
 
Total System Charge             0.00000
Bonding info available!
 
 *** GO1_GOStep19 ***



 ======================
 RI Hartree-Fock Scheme
 ======================
  
 Fit Set Quality     : GOOD
 Threshold Quality   : GOOD
 Integration Quality : GOOD
 Response Quality    : DEFAULT
 Is Range Separated  :  F
 
 RIHartreeFock Dependency: number of modified vectors:           3
  
 Hartree-Fock exchange energy:   -591.707595049232     

 Energy gradients wrt nuclear displacements
 ==========================================

     Atom      Cartesian (a.u./angstrom)
                 X         Y         Z
 ----------------------------------------
     1 Pa    0.000066 -0.000180 -0.000019
     2 Br    0.000088  0.000045 -0.000038
     3 H     0.000062  0.000061 -0.000044
     4 O    -0.000145 -0.000097  0.000071
     5 H     0.000061 -0.000022 -0.000023
     6 O    -0.000288 -0.000010 -0.000039
     7 H     0.000076  0.000015 -0.000026
     8 O     0.000167  0.000057  0.000118
     9 H     0.000039  0.000039 -0.000103
    10 O    -0.000126  0.000092  0.000105
 ----------------------------------------
 Mulliken charges used for AMS results%charges...

 dE(predicted):    -0.13760E-05, dE(actual):    -0.17291E-03, Trust radius:    0.040000, all in a.u.
 
----------------------------------------------------------------------
Geometry Convergence after Step  19       (Hartree/Angstrom,Angstrom)
----------------------------------------------------------------------
current energy                               -2.63017893 Hartree
energy change                      -0.00017291     0.00001000    F
constrained gradient max            0.00027945     0.00010000    F
constrained gradient rms            0.00009693     0.00006667    F
gradient max                        0.00027935
gradient rms                        0.00009693
cart. step max                      0.00384461     0.00100000    F
cart. step rms                      0.00190830     0.00066667    F
 
 
--------
Geometry
--------
Formula: H4BrO4Pa
Atoms
  Index Symbol   x (angstrom)   y (angstrom)   z (angstrom)
      1     Pa     0.30488201    -0.13757383     0.08247293
      2     Br     1.43945154     1.81979956    -1.53578411
      3      H    -1.92728426     1.87159142     0.46499681
      4      O    -1.29510629     1.15117670     0.43220977
      5      H     2.81811190     0.09052544     1.77313439
      6      O     0.18219752    -1.37544713    -1.59025917
      7      H     0.19010124    -1.80220294    -2.44902337
      8      O    -0.54194725    -1.59958314     1.29053026
      9      H    -1.05534768    -2.24361879     1.78110811
     10      O     1.99885753    -0.04398591     1.29343992
 
Total System Charge             0.00000
Bonding info available!
 
 *** GO1_GOStep20 ***



 ======================
 RI Hartree-Fock Scheme
 ======================
  
 Fit Set Quality     : GOOD
 Threshold Quality   : GOOD
 Integration Quality : GOOD
 Response Quality    : DEFAULT
 Is Range Separated  :  F
 
 RIHartreeFock Dependency: number of modified vectors:           4
  
 Hartree-Fock exchange energy:   -591.706493887239     

 Energy gradients wrt nuclear displacements
 ==========================================

     Atom      Cartesian (a.u./angstrom)
                 X         Y         Z
 ----------------------------------------
     1 Pa    0.000218 -0.000088  0.000110
     2 Br    0.000029  0.000003 -0.000054
     3 H    -0.000128  0.000295 -0.000051
     4 O     0.000030 -0.000382  0.000085
     5 H     0.000348  0.000056  0.000124
     6 O    -0.000319  0.000049  0.000216
     7 H     0.000063 -0.000097 -0.000306
     8 O    -0.000046 -0.000011  0.000060
     9 H     0.000188  0.000162 -0.000185
    10 O    -0.000382  0.000014  0.000002
 ----------------------------------------
 Mulliken charges used for AMS results%charges...

 dE(predicted):    -0.87425E-06, dE(actual):     0.17565E-03, Trust radius:    0.020000, all in a.u.
 
----------------------------------------------------------------------
Geometry Convergence after Step  20       (Hartree/Angstrom,Angstrom)
----------------------------------------------------------------------
current energy                               -2.63000328 Hartree
energy change                       0.00017565     0.00001000    F
constrained gradient max            0.00038846     0.00010000    F
constrained gradient rms            0.00018031     0.00006667    F
gradient max                        0.00038847
gradient rms                        0.00018031
cart. step max                      0.00452694     0.00100000    F
cart. step rms                      0.00179528     0.00066667    F
 
 
--------
Geometry
--------
Formula: H4BrO4Pa
Atoms
  Index Symbol   x (angstrom)   y (angstrom)   z (angstrom)
      1     Pa     0.30509117    -0.13620214     0.08110146
      2     Br     1.44004208     1.82017970    -1.53723214
      3      H    -1.92918965     1.87060249     0.46952375
      4      O    -1.29334061     1.15368184     0.43189771
      5      H     2.81717105     0.09004445     1.77387862
      6      O     0.18412378    -1.37484217    -1.59097995
      7      H     0.18989241    -1.80633662    -2.44733376
      8      O    -0.54500112    -1.59814696     1.28700289
      9      H    -1.05315048    -2.24417724     1.78118130
     10      O     1.99827763    -0.04412199     1.29378565
 
Total System Charge             0.00000
Bonding info available!
 
 *** GO1_GOStep21 ***



 ======================
 RI Hartree-Fock Scheme
 ======================
  
 Fit Set Quality     : GOOD
 Threshold Quality   : GOOD
 Integration Quality : GOOD
 Response Quality    : DEFAULT
 Is Range Separated  :  F
 
 RIHartreeFock Dependency: number of modified vectors:           4
  
 Hartree-Fock exchange energy:   -591.706662847518     

 Energy gradients wrt nuclear displacements
 ==========================================

     Atom      Cartesian (a.u./angstrom)
                 X         Y         Z
 ----------------------------------------
     1 Pa    0.000232  0.000115 -0.000054
     2 Br   -0.000070 -0.000082 -0.000014
     3 H    -0.000150  0.000298 -0.000041
     4 O     0.000145 -0.000475  0.000052
     5 H     0.000093  0.000021 -0.000027
     6 O    -0.000318  0.000055  0.000205
     7 H     0.000048 -0.000072 -0.000243
     8 O     0.000243  0.000464 -0.000364
     9 H    -0.000230 -0.000388  0.000234
    10 O     0.000005  0.000063  0.000251
 ----------------------------------------
 Mulliken charges used for AMS results%charges...

 dE(predicted):    -0.11997E-05, dE(actual):    -0.17839E-04, Trust radius:    0.040000, all in a.u.
 
----------------------------------------------------------------------
Geometry Convergence after Step  21       (Hartree/Angstrom,Angstrom)
----------------------------------------------------------------------
current energy                               -2.63002112 Hartree
energy change                      -0.00001784     0.00001000    F
constrained gradient max            0.00047216     0.00010000    F
constrained gradient rms            0.00021584     0.00006667    F
gradient max                        0.00047227
gradient rms                        0.00021584
cart. step max                      0.00661890     0.00100000    F
cart. step rms                      0.00277729     0.00066667    F
 
 
--------
Geometry
--------
Formula: H4BrO4Pa
Atoms
  Index Symbol   x (angstrom)   y (angstrom)   z (angstrom)
      1     Pa     0.30490493    -0.13395790     0.07881433
      2     Br     1.44042235     1.82215365    -1.53895744
      3      H    -1.93269384     1.86918607     0.47611223
      4      O    -1.29158989     1.15744809     0.43133614
      5      H     2.81540611     0.08673362     1.77506601
      6      O     0.18807032    -1.37436652    -1.59197705
      7      H     0.19025275    -1.81295552    -2.44466769
      8      O    -0.54868007    -1.59537143     1.28263059
      9      H    -1.04956472    -2.24359318     1.78156372
     10      O     1.99738831    -0.04459551     1.29290468
 
Total System Charge             0.00000
Bonding info available!
 
 *** GO1_GOStep22 ***



 ======================
 RI Hartree-Fock Scheme
 ======================
  
 Fit Set Quality     : GOOD
 Threshold Quality   : GOOD
 Integration Quality : GOOD
 Response Quality    : DEFAULT
 Is Range Separated  :  F
 
 RIHartreeFock Dependency: number of modified vectors:           4
  
 Hartree-Fock exchange energy:   -591.707047165450     

 Energy gradients wrt nuclear displacements
 ==========================================

     Atom      Cartesian (a.u./angstrom)
                 X         Y         Z
 ----------------------------------------
     1 Pa    0.000172  0.000107 -0.000123
     2 Br   -0.000139 -0.000113  0.000006
     3 H    -0.000121  0.000224 -0.000028
     4 O     0.000186 -0.000435  0.000030
     5 H    -0.000092 -0.000008 -0.000132
     6 O    -0.000259  0.000051  0.000176
     7 H     0.000015 -0.000030 -0.000147
     8 O     0.000335  0.000695 -0.000581
     9 H    -0.000374 -0.000589  0.000386
    10 O     0.000276  0.000100  0.000413
 ----------------------------------------
 Mulliken charges used for AMS results%charges...

 dE(predicted):    -0.13499E-05, dE(actual):    -0.26443E-04, Trust radius:    0.080000, all in a.u.
 
----------------------------------------------------------------------
Geometry Convergence after Step  22       (Hartree/Angstrom,Angstrom)
----------------------------------------------------------------------
current energy                               -2.63004756 Hartree
energy change                      -0.00002644     0.00001000    F
constrained gradient max            0.00069728     0.00010000    F
constrained gradient rms            0.00028005     0.00006667    F
gradient max                        0.00069714
gradient rms                        0.00028005
cart. step max                      0.01282386     0.00100000    F
cart. step rms                      0.00547677     0.00066667    F
 
 
--------
Geometry
--------
Formula: H4BrO4Pa
Atoms
  Index Symbol   x (angstrom)   y (angstrom)   z (angstrom)
      1     Pa     0.30355567    -0.12953465     0.07425276
      2     Br     1.44059890     1.82731252    -1.54132546
      3      H    -1.93994788     1.86691254     0.48815705
      4      O    -1.28957806     1.16472439     0.43017651
      5      H     2.81164516     0.07728547     1.77678247
      6      O     0.19622186    -1.37366231    -1.59399830
      7      H     0.19302133    -1.82577938    -2.43951387
      8      O    -0.55465305    -1.58964761     1.27601526
      9      H    -1.04262445    -2.24113670     1.78320518
     10      O     1.99567679    -0.04579291     1.28907393
 
Total System Charge             0.00000
Bonding info available!
 
 *** GO1_GOStep23 ***



 ======================
 RI Hartree-Fock Scheme
 ======================
  
 Fit Set Quality     : GOOD
 Threshold Quality   : GOOD
 Integration Quality : GOOD
 Response Quality    : DEFAULT
 Is Range Separated  :  F
 
 RIHartreeFock Dependency: number of modified vectors:           4
  
 Hartree-Fock exchange energy:   -591.707460597245     

 Energy gradients wrt nuclear displacements
 ==========================================

     Atom      Cartesian (a.u./angstrom)
                 X         Y         Z
 ----------------------------------------
     1 Pa   -0.000023 -0.000105 -0.000182
     2 Br   -0.000171 -0.000087  0.000017
     3 H    -0.000059  0.000079 -0.000008
     4 O     0.000179 -0.000245  0.000007
     5 H    -0.000170 -0.000027 -0.000168
     6 O    -0.000108  0.000076  0.000175
     7 H    -0.000034  0.000008 -0.000050
     8 O     0.000250  0.000668 -0.000551
     9 H    -0.000294 -0.000510  0.000313
    10 O     0.000429  0.000143  0.000446
 ----------------------------------------
 Mulliken charges used for AMS results%charges...

 dE(predicted):    -0.23988E-05, dE(actual):    -0.26866E-04, Trust radius:    0.160000, all in a.u.
 
----------------------------------------------------------------------
Geometry Convergence after Step  23       (Hartree/Angstrom,Angstrom)
----------------------------------------------------------------------
current energy                               -2.63007443 Hartree
energy change                      -0.00002687     0.00001000    F
constrained gradient max            0.00067277     0.00010000    F
constrained gradient rms            0.00025506     0.00006667    F
gradient max                        0.00067264
gradient rms                        0.00025506
cart. step max                      0.00886381     0.00100000    F
cart. step rms                      0.00406630     0.00066667    F
 
 
--------
Geometry
--------
Formula: H4BrO4Pa
Atoms
  Index Symbol   x (angstrom)   y (angstrom)   z (angstrom)
      1     Pa     0.30177400    -0.12624095     0.07088386
      2     Br     1.44098204     1.83164208    -1.54217915
      3      H    -1.94566784     1.86565880     0.49608158
      4      O    -1.28937266     1.16986381     0.42928943
      5      H     2.80855705     0.06846544     1.77732581
      6      O     0.20201300    -1.37316551    -1.59563117
      7      H     0.19663868    -1.83464320    -2.43602538
      8      O    -0.55787158    -1.58536192     1.27284245
      9      H    -1.03740891    -2.23855438     1.78540102
     10      O     1.99427248    -0.04698281     1.28483710
 
Total System Charge             0.00000
Bonding info available!
 
 *** GO1_GOStep24 ***



 ======================
 RI Hartree-Fock Scheme
 ======================
  
 Fit Set Quality     : GOOD
 Threshold Quality   : GOOD
 Integration Quality : GOOD
 Response Quality    : DEFAULT
 Is Range Separated  :  F
 
 RIHartreeFock Dependency: number of modified vectors:           4
  
 Hartree-Fock exchange energy:   -591.707550603194     

 Energy gradients wrt nuclear displacements
 ==========================================

     Atom      Cartesian (a.u./angstrom)
                 X         Y         Z
 ----------------------------------------
     1 Pa   -0.000171 -0.000271 -0.000181
     2 Br   -0.000114 -0.000019  0.000009
     3 H    -0.000030  0.000000  0.000001
     4 O     0.000117 -0.000061  0.000020
     5 H    -0.000070 -0.000025 -0.000094
     6 O     0.000021  0.000061  0.000115
     7 H    -0.000059  0.000016 -0.000012
     8 O     0.000086  0.000373 -0.000228
     9 H    -0.000078 -0.000223  0.000082
    10 O     0.000296  0.000149  0.000289
 ----------------------------------------
 Mulliken charges used for AMS results%charges...
 Rebuilding optimization coordinates
Bad geometry: could not add a dihedral for atom    2
Bad geometry: could not add a dihedral for atom    3
Bad geometry: could not add a dihedral for atom    5
Bad geometry: could not add a dihedral for atom    7
Bad geometry: could not add a dihedral for atom    9

 dE(predicted):    -0.13727E-05, dE(actual):    -0.65326E-05, Trust radius:    0.320000, all in a.u.
 
----------------------------------------------------------------------
Geometry Convergence after Step  24       (Hartree/Angstrom,Angstrom)
----------------------------------------------------------------------
current energy                               -2.63008096 Hartree
energy change                      -0.00000653     0.00001000    T
constrained gradient max            0.00037779     0.00010000    F
constrained gradient rms            0.00014768     0.00006667    F
gradient max                        0.00037765
gradient rms                        0.00014768
cart. step max                      0.00341501     0.00100000    F
cart. step rms                      0.00148818     0.00066667    F
 
 
--------
Geometry
--------
Formula: H4BrO4Pa
Atoms
  Index Symbol   x (angstrom)   y (angstrom)   z (angstrom)
      1     Pa     0.30057473    -0.12509161     0.06985060
      2     Br     1.44190413     1.83306100    -1.54166227
      3      H    -1.94805049     1.86554454     0.49827056
      4      O    -1.29010563     1.17160307     0.42896135
      5      H     2.80750040     0.06505043     1.77630346
      6      O     0.20373945    -1.37292927    -1.59623570
      7      H     0.19899101    -1.83714107    -2.43509825
      8      O    -0.55859920    -1.58398548     1.27268983
      9      H    -1.03549881    -2.23753607     1.78698930
     10      O     1.99346067    -0.04789417     1.28275666
 
Total System Charge             0.00000
Bonding info available!
 
 *** GO1_GOStep25 ***



 ======================
 RI Hartree-Fock Scheme
 ======================
  
 Fit Set Quality     : GOOD
 Threshold Quality   : GOOD
 Integration Quality : GOOD
 Response Quality    : DEFAULT
 Is Range Separated  :  F
 
 RIHartreeFock Dependency: number of modified vectors:           4
  
 Hartree-Fock exchange energy:   -591.707553068098     

 Energy gradients wrt nuclear displacements
 ==========================================

     Atom      Cartesian (a.u./angstrom)
                 X         Y         Z
 ----------------------------------------
     1 Pa   -0.000157 -0.000238 -0.000135
     2 Br   -0.000046  0.000017 -0.000001
     3 H     0.000010 -0.000051 -0.000004
     4 O     0.000034  0.000056  0.000047
     5 H    -0.000012 -0.000023 -0.000052
     6 O     0.000076  0.000007  0.000005
     7 H    -0.000059  0.000030  0.000023
     8 O    -0.000013  0.000117  0.000039
     9 H     0.000046 -0.000046 -0.000058
    10 O     0.000120  0.000131  0.000135
 ----------------------------------------
 Mulliken charges used for AMS results%charges...

 dE(predicted):    -0.43086E-06, dE(actual):    -0.24127E-05, Trust radius:    0.320000, all in a.u.
 
----------------------------------------------------------------------
Geometry Convergence after Step  25       (Hartree/Angstrom,Angstrom)
----------------------------------------------------------------------
current energy                               -2.63008337 Hartree
energy change                      -0.00000241     0.00001000    T
constrained gradient max            0.00023827     0.00010000    F
constrained gradient rms            0.00008066     0.00006667    F
gradient max                        0.00023828
gradient rms                        0.00008066
cart. step max                      0.00059442     0.00100000    T
cart. step rms                      0.00028841     0.00066667    T
 
 
--------
Geometry
--------
Formula: H4BrO4Pa
Atoms
  Index Symbol   x (angstrom)   y (angstrom)   z (angstrom)
      1     Pa     0.30038920    -0.12509075     0.07003127
      2     Br     1.44219168     1.83291989    -1.54132280
      3      H    -1.94818506     1.86568032     0.49776586
      4      O    -1.29051894     1.17141821     0.42896296
      5      H     2.80770009     0.06499280     1.77570904
      6      O     0.20334939    -1.37284706    -1.59614151
      7      H     0.19956193    -1.83662923    -2.43524940
      8      O    -0.55835469    -1.58409691     1.27319132
      9      H    -1.03564170    -2.23751256     1.78729770
     10      O     1.99342437    -0.04815333     1.28258111
 
Total System Charge             0.00000
Bonding info available!
 
 *** GO1_GOStep26 ***



 ======================
 RI Hartree-Fock Scheme
 ======================
  
 Fit Set Quality     : GOOD
 Threshold Quality   : GOOD
 Integration Quality : GOOD
 Response Quality    : DEFAULT
 Is Range Separated  :  F
 
 RIHartreeFock Dependency: number of modified vectors:           4
  
 Hartree-Fock exchange energy:   -591.707536538593     

 Energy gradients wrt nuclear displacements
 ==========================================

     Atom      Cartesian (a.u./angstrom)
                 X         Y         Z
 ----------------------------------------
     1 Pa   -0.000106 -0.000152 -0.000130
     2 Br   -0.000033  0.000012 -0.000000
     3 H     0.000010 -0.000045 -0.000005
     4 O     0.000027  0.000044  0.000054
     5 H     0.000001 -0.000021 -0.000045
     6 O     0.000069 -0.000004 -0.000008
     7 H    -0.000051  0.000027  0.000019
     8 O    -0.000020  0.000067  0.000084
     9 H     0.000048 -0.000042 -0.000060
    10 O     0.000056  0.000115  0.000092
 ----------------------------------------
 Mulliken charges used for AMS results%charges...
 
----------------------------------------------------------------------
Geometry Convergence after Step  26       (Hartree/Angstrom,Angstrom)
----------------------------------------------------------------------
current energy                               -2.63008398 Hartree
energy change                      -0.00000061     0.00001000    T
constrained gradient max            0.00015228     0.00010000    F
constrained gradient rms            0.00006131     0.00006667    T
gradient max                        0.00015228
gradient rms                        0.00006131
cart. step max                      0.00178041     0.00100000    F
cart. step rms                      0.00073842     0.00066667    F
 
 
--------
Geometry
--------
Formula: H4BrO4Pa
Atoms
  Index Symbol   x (angstrom)   y (angstrom)   z (angstrom)
      1     Pa     0.29996295    -0.12499301     0.07051389
      2     Br     1.44283025     1.83271792    -1.54043838
      3      H    -1.94876934     1.86583233     0.49669698
      4      O    -1.29152229     1.17105536     0.42889689
      5      H     2.80844191     0.06477060     1.77392862
      6      O     0.20238596    -1.37256076    -1.59583231
      7      H     0.20132643    -1.83556975    -2.43538016
      8      O    -0.55811022    -1.58418040     1.27423114
      9      H    -1.03605885    -2.23733990     1.78805980
     10      O     1.99342947    -0.04905102     1.28214906
 
Total System Charge             0.00000
Bonding info available!
 
 *** GO1_GOStep27 ***



 ======================
 RI Hartree-Fock Scheme
 ======================
  
 Fit Set Quality     : GOOD
 Threshold Quality   : GOOD
 Integration Quality : GOOD
 Response Quality    : DEFAULT
 Is Range Separated  :  F
 
 RIHartreeFock Dependency: number of modified vectors:           4
  
 Hartree-Fock exchange energy:   -591.707514006630     

 Energy gradients wrt nuclear displacements
 ==========================================

     Atom      Cartesian (a.u./angstrom)
                 X         Y         Z
 ----------------------------------------
     1 Pa    0.000045  0.000043 -0.000097
     2 Br   -0.000011 -0.000002  0.000001
     3 H     0.000004 -0.000026 -0.000008
     4 O     0.000015  0.000002  0.000062
     5 H     0.000021 -0.000017 -0.000038
     6 O     0.000036 -0.000024 -0.000029
     7 H    -0.000024  0.000017  0.000012
     8 O    -0.000034 -0.000020  0.000153
     9 H     0.000041 -0.000050 -0.000047
    10 O    -0.000092  0.000076 -0.000008
 ----------------------------------------
 Mulliken charges used for AMS results%charges...

 dE(predicted):    -0.14826E-06, dE(actual):    -0.13240E-05, Trust radius:    0.320000, all in a.u.
 
----------------------------------------------------------------------
Geometry Convergence after Step  27       (Hartree/Angstrom,Angstrom)
----------------------------------------------------------------------
current energy                               -2.63008530 Hartree
energy change                      -0.00000132     0.00001000    T
constrained gradient max            0.00014887     0.00010000    F
constrained gradient rms            0.00004715     0.00006667    T
gradient max                        0.00014873
gradient rms                        0.00004715
cart. step max                      0.00081892     0.00100000    T
cart. step rms                      0.00030747     0.00066667    T
 
 
--------
Geometry
--------
Formula: H4BrO4Pa
Atoms
  Index Symbol   x (angstrom)   y (angstrom)   z (angstrom)
      1     Pa     0.29983246    -0.12476287     0.07055642
      2     Br     1.44292455     1.83295346    -1.54021084
      3      H    -1.94935336     1.86565787     0.49679143
      4      O    -1.29179308     1.17119168     0.42877434
      5      H     2.80875296     0.06426981     1.77330287
      6      O     0.20233135    -1.37240018    -1.59573793
      7      H     0.20214535    -1.83575494    -2.43509871
      8      O    -0.55839281    -1.58387796     1.27424165
      9      H    -1.03604040    -2.23707310     1.78831185
     10      O     1.99350926    -0.04952238     1.28189444
 
Total System Charge             0.00000
Bonding info available!
 
 *** GO1_GOStep28 ***



 ======================
 RI Hartree-Fock Scheme
 ======================
  
 Fit Set Quality     : GOOD
 Threshold Quality   : GOOD
 Integration Quality : GOOD
 Response Quality    : DEFAULT
 Is Range Separated  :  F
 
 RIHartreeFock Dependency: number of modified vectors:           4
  
 Hartree-Fock exchange energy:   -591.707510671799     

 Energy gradients wrt nuclear displacements
 ==========================================

     Atom      Cartesian (a.u./angstrom)
                 X         Y         Z
 ----------------------------------------
     1 Pa    0.000086  0.000064 -0.000074
     2 Br   -0.000012 -0.000003  0.000000
[...]
    30          3929.5103              29.6793

 Zero-point energy (Hartree):     0.0475

 ------------
 Normal Modes
 ------------

 Number of removed rigid normal modes: 6
 
 Mode:     7      Frequency (cm-1):       50.2017     Intensity (km/mol):       13.2449
 Index  Atom      ---- Displacements (x/y/z) ----
     1    Pa      -0.019440   0.012119  -0.006302
     2    Br       0.042552  -0.023570  -0.002305
     3     H      -0.346794  -0.379981   0.514690
     4     O      -0.017549  -0.023524   0.101974
     5     H       0.076287   0.258492  -0.217040
     6     O       0.024797  -0.002803   0.003068
     7     H       0.036787  -0.085095   0.048958
     8     O       0.068443  -0.051078  -0.025325
     9     H       0.490440  -0.244510   0.118013
    10     O      -0.021015   0.047069  -0.006593
 
 Mode:     8      Frequency (cm-1):       57.0421     Intensity (km/mol):        6.1199
 Index  Atom      ---- Displacements (x/y/z) ----
     1    Pa       0.010247   0.004185   0.017549
     2    Br       0.004129  -0.038364  -0.040731
     3     H      -0.017807  -0.030039  -0.029911
     4     O      -0.021194  -0.038505   0.021112
     5     H      -0.165729  -0.066655   0.326860
     6     O      -0.114788   0.138561  -0.082059
     7     H       0.049068   0.619533  -0.349808
     8     O       0.049670  -0.097923  -0.072419
     9     H      -0.220373  -0.179804  -0.424698
    10     O      -0.059715   0.105093   0.110937
 
 Mode:     9      Frequency (cm-1):       58.3808     Intensity (km/mol):        6.3831
 Index  Atom      ---- Displacements (x/y/z) ----
     1    Pa      -0.001847  -0.007149  -0.003789
     2    Br       0.051432   0.011026   0.054582
     3     H      -0.113327  -0.084046  -0.341518
     4     O      -0.143318  -0.126796  -0.203868
     5     H       0.216114   0.444548  -0.422468
     6     O      -0.272859   0.037298  -0.018295
     7     H      -0.438419  -0.090193   0.052373
     8     O       0.148961   0.019343   0.141204
     9     H      -0.055726   0.090136   0.042675
    10     O       0.064790   0.096299  -0.091465
 
 Mode:    10      Frequency (cm-1):       68.8928     Intensity (km/mol):        3.6111
 Index  Atom      ---- Displacements (x/y/z) ----
     1    Pa       0.002888  -0.021191  -0.018008
     2    Br      -0.000746   0.009703   0.014873
     3     H       0.374251   0.343756  -0.077900
     4     O       0.099554   0.062916   0.108131
     5     H      -0.056686   0.453107  -0.018700
     6     O      -0.054099  -0.003604  -0.030400
     7     H      -0.271574  -0.333976   0.153154
     8     O       0.003649  -0.019397  -0.017268
     9     H      -0.029108   0.314298   0.375475
    10     O      -0.088194   0.169324   0.099044
 
 Mode:    11      Frequency (cm-1):       99.6782     Intensity (km/mol):      111.1447
 Index  Atom      ---- Displacements (x/y/z) ----
     1    Pa      -0.011007  -0.006761   0.010640
     2    Br      -0.001369  -0.014658   0.005170
     3     H       0.172899   0.202834  -0.130445
     4     O       0.022963   0.046944  -0.006261
     5     H       0.270417   0.487403  -0.539420
     6     O       0.084692   0.033869  -0.029985
     7     H       0.289544   0.359648  -0.211121
     8     O      -0.030384  -0.014827  -0.010143
     9     H      -0.121966  -0.033236  -0.117545
    10     O       0.049983   0.039934  -0.069883
 
 Mode:    12      Frequency (cm-1):      139.5236     Intensity (km/mol):       21.8660
 Index  Atom      ---- Displacements (x/y/z) ----
     1    Pa       0.013926   0.006348   0.009205
     2    Br      -0.007900   0.004618  -0.013514
     3     H      -0.106650  -0.132218   0.134322
     4     O      -0.009495  -0.025696  -0.002064
     5     H       0.147648   0.304929  -0.268680
     6     O      -0.037683  -0.021411   0.043071
     7     H      -0.239598  -0.446897   0.279391
     8     O      -0.093588  -0.031275  -0.109788
     9     H      -0.370654  -0.135437  -0.497424
    10     O       0.014461  -0.010289   0.024705
 
 Mode:    13      Frequency (cm-1):      150.7747     Intensity (km/mol):       27.1452
 Index  Atom      ---- Displacements (x/y/z) ----
     1    Pa      -0.009473   0.007356   0.006697
     2    Br      -0.001231  -0.005345   0.001994
     3     H       0.294947   0.365522  -0.345037
     4     O       0.019883   0.073787  -0.056164
     5     H      -0.037248  -0.069477   0.066128
     6     O       0.000071  -0.017680   0.031659
     7     H      -0.139880  -0.216068   0.142042
     8     O       0.083543  -0.090033  -0.047550
     9     H       0.467694  -0.513174  -0.229969
    10     O       0.002522  -0.018664  -0.011405
 
 Mode:    14      Frequency (cm-1):      160.4601     Intensity (km/mol):       21.9253
 Index  Atom      ---- Displacements (x/y/z) ----
     1    Pa       0.002291   0.011844   0.017319
     2    Br      -0.005091  -0.023736  -0.026307
     3     H       0.028887   0.068780  -0.296284
     4     O      -0.077728  -0.061346  -0.020495
     5     H       0.130714   0.019287  -0.196710
     6     O       0.059597   0.160164  -0.072163
     7     H      -0.197093  -0.275193   0.171088
     8     O      -0.004457  -0.063607  -0.085380
     9     H       0.157484   0.411241   0.665577
    10     O       0.007047  -0.103299   0.036021
 
 Mode:    15      Frequency (cm-1):      162.8515     Intensity (km/mol):       17.1163
 Index  Atom      ---- Displacements (x/y/z) ----
     1    Pa      -0.019209   0.011327  -0.003020
     2    Br       0.037178  -0.007972  -0.003018
     3     H       0.263545   0.287270  -0.158109
     4     O      -0.089779  -0.082112   0.144264
     5     H      -0.080515  -0.303142   0.164659
     6     O       0.071084  -0.029888   0.027573
     7     H       0.087304  -0.245121   0.147122
     8     O       0.099905  -0.064114   0.000116
     9     H      -0.632030   0.285135  -0.231210
    10     O       0.035603   0.050307  -0.108562
 
 Mode:    16      Frequency (cm-1):      186.2565     Intensity (km/mol):        3.6501
 Index  Atom      ---- Displacements (x/y/z) ----
     1    Pa      -0.055581  -0.092844   0.076161
     2    Br       0.197225   0.347430  -0.287036
     3     H       0.224652   0.182961  -0.219925
     4     O      -0.031128  -0.090981   0.053044
     5     H       0.104045   0.280412  -0.327182
     6     O      -0.055840  -0.089235   0.097582
     7     H       0.139692   0.391548  -0.171570
     8     O      -0.021556  -0.078886   0.080169
     9     H       0.219312  -0.158256   0.201522
    10     O      -0.105084  -0.157928   0.117919
 
 Mode:    17      Frequency (cm-1):      239.0396     Intensity (km/mol):      186.3934
 Index  Atom      ---- Displacements (x/y/z) ----
     1    Pa      -0.005492  -0.023767   0.026011
     2    Br       0.019195   0.016957  -0.006777
     3     H      -0.237389  -0.241449   0.011554
     4     O       0.041263   0.031876  -0.058771
     5     H      -0.191204  -0.427510   0.491182
     6     O       0.012477   0.075156  -0.029037
     7     H      -0.213872  -0.174250   0.109916
     8     O      -0.185277  -0.036713  -0.093856
     9     H       0.259754  -0.066534   0.278864
    10     O       0.140279   0.246639  -0.216783
 
 Mode:    18      Frequency (cm-1):      250.5970     Intensity (km/mol):      138.8297
 Index  Atom      ---- Displacements (x/y/z) ----
     1    Pa       0.013120   0.017642  -0.005083
     2    Br       0.001094  -0.005098   0.014935
     3     H       0.107681   0.129815  -0.363067
     4     O      -0.070614  -0.083002   0.062923
     5     H       0.089520  -0.028706  -0.098073
     6     O      -0.107031  -0.185459   0.137467
     7     H       0.091933   0.558219  -0.274730
     8     O      -0.083344  -0.030419  -0.174052
     9     H       0.316195   0.153254   0.426161
    10     O       0.027935   0.018013  -0.007089
 
 Mode:    19      Frequency (cm-1):      257.9120     Intensity (km/mol):       56.3648
 Index  Atom      ---- Displacements (x/y/z) ----
     1    Pa      -0.008323   0.001701   0.007159
     2    Br      -0.005533   0.009887   0.002701
     3     H      -0.335942  -0.288731   0.175705
     4     O       0.093214   0.148921  -0.118942
     5     H       0.085223  -0.185211  -0.112338
     6     O      -0.040761  -0.058520   0.056504
     7     H       0.288984   0.023707   0.011603
     8     O       0.127215  -0.161089  -0.074341
     9     H      -0.444897   0.517693   0.259363
    10     O      -0.006532  -0.006911  -0.001024
 
 Mode:    20      Frequency (cm-1):      267.6039     Intensity (km/mol):        2.9386
 Index  Atom      ---- Displacements (x/y/z) ----
     1    Pa      -0.000437  -0.000436   0.000759
     2    Br      -0.000211   0.000312  -0.000099
     3     H       0.260309   0.197915   0.501441
     4     O      -0.020303  -0.013435  -0.050809
     5     H       0.234701  -0.422704  -0.291517
     6     O       0.047674  -0.016008   0.009880
     7     H      -0.516193   0.189353  -0.105074
     8     O       0.002568  -0.005665  -0.001746
     9     H      -0.019918   0.021628   0.012065
    10     O      -0.019998   0.040737   0.024834
 
 Mode:    21      Frequency (cm-1):      335.9779     Intensity (km/mol):      257.8894
 Index  Atom      ---- Displacements (x/y/z) ----
     1    Pa       0.002207  -0.002863  -0.002062
     2    Br      -0.000691   0.001013   0.000923
     3     H      -0.080818  -0.062897  -0.271520
     4     O       0.011816  -0.005871   0.031222
     5     H       0.343333  -0.578936  -0.434836
     6     O      -0.039205   0.020152  -0.021015
     7     H       0.426503  -0.215761   0.111230
     8     O      -0.017799   0.024732   0.014009
     9     H       0.083122  -0.107012  -0.060050
    10     O      -0.031932   0.058126   0.042294
 
 Mode:    22      Frequency (cm-1):      338.7531     Intensity (km/mol):      226.6794
 Index  Atom      ---- Displacements (x/y/z) ----
     1    Pa      -0.002885  -0.000558  -0.002468
     2    Br       0.001412   0.000289   0.001039
     3     H      -0.374246  -0.293456  -0.559918
     4     O       0.034497   0.033622   0.055471
     5     H       0.063903  -0.071721  -0.107981
     6     O       0.061959  -0.019651   0.003911
     7     H      -0.605926   0.185911  -0.111041
     8     O       0.017545   0.001212   0.019021
     9     H      -0.083433  -0.009579  -0.087676
    10     O      -0.016309   0.003350   0.006718
 
 Mode:    23      Frequency (cm-1):      570.9066     Intensity (km/mol):      163.0190
 Index  Atom      ---- Displacements (x/y/z) ----
     1    Pa      -0.020102  -0.033970   0.028594
     2    Br       0.001972   0.003425  -0.002892
     3     H      -0.219847   0.099729   0.085781
     4     O      -0.163090   0.161442   0.023167
     5     H       0.169789  -0.028229   0.175858
     6     O      -0.000162  -0.123017  -0.203898
     7     H      -0.042070  -0.198700  -0.160809
     8     O       0.240120   0.394620  -0.322733
     9     H       0.201191   0.398593  -0.351643
    10     O       0.196890   0.023623   0.120520
 
 Mode:    24      Frequency (cm-1):      593.2058     Intensity (km/mol):      268.4827
 Index  Atom      ---- Displacements (x/y/z) ----
     1    Pa      -0.036714   0.047270   0.030346
     2    Br       0.002182  -0.002854  -0.001754
     3     H       0.435229  -0.307128  -0.125282
     4     O       0.399466  -0.344173  -0.089185
     5     H       0.065539   0.007725   0.072249
     6     O      -0.003680  -0.260244  -0.351543
     7     H      -0.044861  -0.284280  -0.338676
     8     O       0.009976  -0.018390  -0.007066
     9     H      -0.023056   0.028433   0.021840
    10     O       0.086512  -0.010911   0.041431
 
 Mode:    25      Frequency (cm-1):      595.1701     Intensity (km/mol):      282.0573
 Index  Atom      ---- Displacements (x/y/z) ----
     1    Pa       0.049630   0.008967   0.046394
     2    Br      -0.002884  -0.000511  -0.002673
     3     H      -0.149392   0.121095   0.061671
     4     O      -0.158106   0.117381   0.013527
     5     H      -0.451727   0.007566  -0.350394
     6     O      -0.029335  -0.204532  -0.296949
     7     H      -0.016282  -0.242979  -0.275994
     8     O      -0.017717  -0.003399  -0.015892
     9     H       0.037459   0.000939   0.040467
    10     O      -0.460942  -0.029303  -0.324591
 
 Mode:    26      Frequency (cm-1):      658.5754     Intensity (km/mol):       91.0183
 Index  Atom      ---- Displacements (x/y/z) ----
     1    Pa       0.010690   0.016235  -0.013271
     2    Br       0.004527   0.007857  -0.006472
     3     H      -0.259122   0.213186   0.066228
     4     O      -0.257879   0.207743   0.057843
     5     H       0.275844   0.003675   0.200363
     6     O      -0.017165  -0.202061  -0.268216
     7     H      -0.012051  -0.211984  -0.268652
     8     O      -0.164354  -0.272423   0.223146
     9     H      -0.141208  -0.282846   0.244663
    10     O       0.271257   0.010985   0.195571
 
 Mode:    27      Frequency (cm-1):     3882.7405     Intensity (km/mol):      223.6789
 Index  Atom      ---- Displacements (x/y/z) ----
     1    Pa       0.000003   0.000006  -0.000006
     2    Br       0.000014   0.000023  -0.000019
     3     H       0.113790  -0.119391  -0.012132
     4     O      -0.007473   0.007814   0.000808
     5     H      -0.107248  -0.014919  -0.064406
     6     O       0.000008  -0.006438  -0.011550
     7     H      -0.000188   0.098758   0.177525
     8     O      -0.029955  -0.041344   0.032654
     9     H       0.472942   0.651066  -0.513725
    10     O       0.007109   0.000985   0.004270
 
 Mode:    28      Frequency (cm-1):     3890.7251     Intensity (km/mol):      352.7742
 Index  Atom      ---- Displacements (x/y/z) ----
     1    Pa      -0.000004   0.000006   0.000005
     2    Br       0.000001  -0.000001  -0.000002
     3     H       0.485337  -0.509013  -0.052302
     4     O      -0.030649   0.032119   0.003273
     5     H      -0.026971  -0.004240  -0.016680
     6     O      -0.000032   0.021618   0.038852
     7     H       0.000922  -0.342952  -0.616000
     8     O      -0.000685  -0.001138   0.000726
     9     H       0.011484   0.016555  -0.012272
    10     O       0.001747   0.000224   0.001028
 
 Mode:    29      Frequency (cm-1):     3893.1372     Intensity (km/mol):      366.4130
 Index  Atom      ---- Displacements (x/y/z) ----
     1    Pa      -0.000006   0.000001  -0.000004
     2    Br       0.000005   0.000003   0.000000
     3     H       0.323714  -0.338791  -0.034209
     4     O      -0.020397   0.021402   0.002210
     5     H       0.649387   0.089971   0.390866
     6     O       0.000049  -0.013300  -0.023863
     7     H       0.000160   0.210320   0.378387
     8     O       0.002389   0.003107  -0.002365
     9     H      -0.036629  -0.049639   0.038713
    10     O      -0.041002  -0.005685  -0.024677
 
 Mode:    30      Frequency (cm-1):     3929.5103     Intensity (km/mol):       29.6793
 Index  Atom      ---- Displacements (x/y/z) ----
     1    Pa       0.000004   0.000006  -0.000005
     2    Br       0.000026   0.000048  -0.000040
     3     H       0.344231  -0.361237  -0.036816
     4     O      -0.021865   0.022905   0.002350
     5     H      -0.535633  -0.074230  -0.322378
     6     O       0.000028  -0.016053  -0.028795
     7     H      -0.000779   0.252667   0.454166
     8     O       0.008611   0.011744  -0.009256
     9     H      -0.139835  -0.191840   0.151216
    10     O       0.033958   0.004690   0.020462

PES point character: Geometry corresponds to a local minimum on the PES.




 ============================
 Statistical Thermal Analysis  ***  ideal gas assumed  ***
 ============================
  
 Pressure:                  1.000000 atm.
 Temperature:             298.150000 K



 Moments of Inertia [amu*bohr^2] and principal axis
 ==================================================

         842.6944       2545.7113       2562.2070
 ------------------------------------------------
          -0.4128         -0.6772         -0.6091
          -0.7035         -0.1877          0.6854
           0.5785         -0.7114          0.3990


 The rotational contribution to the molecular entropy includes
 a term, dependent on the symmetry number sigma. The results 
 reported below were computed using sigma = 1, determined from
 the point group symmetry of the input geometry (NOSYM). 
 If this is not the correct symmetry, try symmetrizing the molecule before
 running the calculation (note: linear molecules should be aligned along one
 of the Cartesian axes).
 Contributions from frequencies below 20 1/cm are not included in vibrational sums.
 Their contributions, if any, are reported separately.


     Temp                                                        Transl      Rotat     Vibrat     Total
     ----                                                        ------      -----     ------     -----

     298.15   Entropy (cal/mol-K):                               43.681     30.087     45.376    119.144
              Nuclear Internal Energy (kcal/mol):                 0.889      0.889     36.344     38.122
              Constant Volume Heat Capacity (cal/mol-K):          2.981      2.981     33.617     39.579
          (c) Constant Volume Heat Capacity (cal/mol-K):          2.981      2.981     28.932     34.894

       Summary of energy terms
                                                   hartree              eV         kcal/mol           kJ/mol
                                      --------------------     -----------       ----------      -----------
      Energy from Engine:               -2.630084739911433        -71.5682         -1650.40         -6905.29
      Nuclear Internal Energy:           0.060750872265132          1.6531            38.12           159.50
  (c) Nuclear Internal Energy:           0.058370146141420          1.5883            36.63           153.25
      Internal Energy U:                -2.569333867646301        -69.9151         -1612.28         -6745.79
      pV/n = RT:                         0.000944186013486          0.0257             0.59             2.48
      Enthalpy H:                       -2.568389681632815        -69.8894         -1611.69         -6743.31
      -T*S:                             -0.056609137005375         -1.5404           -35.52          -148.63
  (c) -T*S:                             -0.054505194888726         -1.4832           -34.20          -143.10
      Gibbs free energy:                -2.624998818638190        -71.4299         -1647.21         -6891.93
 
 
 
  (c) The properties marked with this symbol have been corrected using 'low vibrational frequency free rotor
      interpolation corrections'. For those terms all positive frequencies are used (also ones below 20 1/cm),
      but the contribution to the partition function of small vibrational frequencies is modified as described
      in the following paper:
      S. Grimme, 'Supramolecular Binding Thermodynamics by Dispersion-Corrected Density Functional Theory'
      (Chem. Eur. J. 2012, 18, 9955-9964)
      Configuration: Dampener Frequency          :   100.000 1/cm
                     Dampener Alpha              :     4.000
                     Averaging Moment of Inertia : 1.000E-44 kg m2

--------------
Atomic charges
--------------
  Index   Atom    Charge
      1     Pa    2.7287
      2     Br   -0.4794
      3      H    0.0218
      4      O   -0.5810
      5      H    0.0178
      6      O   -0.5797
      7      H    0.0204
      8      O   -0.5770
      9      H    0.0054
     10      O   -0.5771


Dipole moment vector    (Debye):    -1.60148983   -2.54288625    2.05235664
              magnitude (Debye):     3.63912186


Final PES point is a local minimum. Geometry optimization successful!


AMS application finished. Exiting.
NORMAL TERMINATION
     Total cpu time:   59845.31
  Total system time:    1447.21
 Total elapsed time:   61298.76
