
 Working directory              : /state/partition2/shaaban/988263.phlam-s-sakura/molpro.XVX6UDyXC0/
 Global scratch directory       : /state/partition2/shaaban/988263.phlam-s-sakura/molpro.XVX6UDyXC0/
 Wavefunction directory         : /home/shaaban/wfu/
 Main file repository           : /state/partition2/shaaban/988263.phlam-s-sakura/molpro.XVX6UDyXC0/

 id        : lill

 Nodes      nprocs
 u-0-0.local    8
 GA implementation: MPI file
 GA implementation (serial work in mppx): MPI file

 Using customized tuning parameters: mindgm=1; mindgv=20; mindgc=4; mindgr=1; noblas=0; minvec=7
 default implementation of scratch files=sf  


 Variables initialized (1040), CPU time= 0.00 sec
 ***,PaO(OH)2(SO4)(H2O) - MP2 and CCSD(T)
 memory,5000, m;
 file, 1, pao_oh2_so4_h2o.ccsd-tx.int, new;
 file, 2, pao_oh2_so4_h2o.ccsd-tx.wfu, new;
 
 gprint, basis;
 gprint, orbital=10;
 
 nosym;
 
 geomtyp=xyz;
 
 geometry={
 Including file /home/shaaban/molpro/PhD/sulfate/pao_oh2_so4_h2o-newgeo/pao_oh2_so4_h2o-solvent.xyz
 }
 
 charge=-1;
 
                                                                                 ! Select X2C SR Hamiltonian
 SET,DKHO=101
 
                                                                                 ! Calculation with VTZ basis set
 basis={
 Pa=cc-pVTZ-X2C;
 O=aug-cc-pVTZ-X2C;
 H=aug-cc-pVTZ-X2C;
 S=aug-cc-pVTZ-X2C;
 }
 
                                                                                 ! Hartree-Fock calculation
 {hf;}
 
                                                                                 ! MP2 and CCSD(T) calculation
 {ccsd(t);}
 
                                                                  ! Save HF energy and CCSD(T) correlation energy for VTZ basis set
 energy_hf(1) = energr(1);
 corr_mp2(1) = EMP2-energr(1);
 corr_ccsdt(1) = ENERGT(1)-energr(1);
 
 Commands initialized (846), CPU time= 0.01 sec, 717 directives.
 Default parameters read. Elapsed time= 0.41 sec

 Checking input...
 Passed
1


                                         ***  PROGRAM SYSTEM MOLPRO  ***
                                       Copyright, TTI GmbH Stuttgart, 2015
                                    Version 2023.2 linked Fri Sep 22 09:27:09 2023


 **********************************************************************************************************************************
 LABEL *   PaO(OH)2(SO4)(H2O) - MP2 and CCSD(T)                                                                                                                          
  64 bit mpp version                                                                     DATE: 27-Nov-23          TIME: 18:05:32  
 **********************************************************************************************************************************

 SHA1:             3c61bfe44d37c8635c785372c339f5cbdd4e4b59
 **********************************************************************************************************************************

 Memory per process:      5000 MW
 Total memory per node:  40000 MW

 GA preallocation disabled
 GA check disabled

 Variable memory set to 5000.0 MW



 Permanent file  1  pao_oh2_so4_h2o.ccsd-tx.int      assigned.  Implementation=df  
 Permanent file  2  pao_oh2_so4_h2o.ccsd-tx.wfu      assigned.  Implementation=df  



 **********************************************************************************************************************************
 DATASETS  * FILE   NREC   LENGTH (MB)   RECORD NAMES
              1       1        0.06       500   
                                          VAR  

              2       1        0.06       500   
                                          VAR  

 PROGRAMS   *        TOTAL      FILE
 CPU TIMES  *         0.24      0.02
 REAL TIME  *         0.86 SEC
 DISK USED  *         0.16 MB (local),        1.32 MB (total)
 **********************************************************************************************************************************


 SETTING GEOMTYP        =    XYZ
 ZSYMEL=NOSYM


 Geometry recognized as XYZ

 SETTING CHARGE         =        -1.00000000                                  
 SETTING DKHO           =       101.00000000                                  
 SETTING BASIS          =    PA=CC-PVTZ-X2C,O=AUG-CC-PVTZ-X2C,H=AUG-CC-PVTZ-X2C,S=AUG-CC-PVTZ-X2C


 Recomputing integrals since basis changed


 Using spherical harmonics

 Library entry PA     S cc-pVTZ-X2C          selected for orbital group  1
 Library entry PA     P cc-pVTZ-X2C          selected for orbital group  1
 Library entry PA     D cc-pVTZ-X2C          selected for orbital group  1
 Library entry PA     F cc-pVTZ-X2C          selected for orbital group  1
 Library entry PA     G cc-pVTZ-X2C          selected for orbital group  1
 Library entry PA     H cc-pVTZ-X2C          selected for orbital group  1
 Library entry O      S aug-cc-pVTZ-X2C      selected for orbital group  2
 Library entry O      P aug-cc-pVTZ-X2C      selected for orbital group  2
 Library entry O      D aug-cc-pVTZ-X2C      selected for orbital group  2
 Library entry O      F aug-cc-pVTZ-X2C      selected for orbital group  2
 Library entry H      S aug-cc-pVTZ-X2C      selected for orbital group  3
 Library entry H      P aug-cc-pVTZ-X2C      selected for orbital group  3
 Library entry H      D aug-cc-pVTZ-X2C      selected for orbital group  3
 Library entry S      S aug-cc-pVTZ-X2C      selected for orbital group  9
 Library entry S      P aug-cc-pVTZ-X2C      selected for orbital group  9
 Library entry S      D aug-cc-pVTZ-X2C      selected for orbital group  9
 Library entry S      F aug-cc-pVTZ-X2C      selected for orbital group  9


 PROGRAM * SEWARD (Integral evaluation for generally contracted gaussian basis sets)     Author: Roland Lindh, 1990

 Geometry written to block  1 of record 700


 Point group  C1  



 ATOMIC COORDINATES

 NR  ATOM    CHARGE       X              Y              Z

   1  PA     91.00    0.997929638   -0.419413757   -0.364667317
   2  O       8.00    1.666239255    1.868956503   -2.980977092
   3  O       8.00    7.543611401   -2.558416583    3.261033285
   4  O       8.00   -1.500778326    2.117677649    1.684342228
   5  H       1.00   -1.829513785    3.852989750    1.234818434
   6  O       8.00   -2.037470622   -2.458149039   -3.379354684
   7  H       1.00   -3.070512042   -3.930827065   -3.070543374
   8  O       8.00   -0.144480329   -3.343848398    2.132656422
   9  H       1.00    0.532048893   -5.009543685    2.454100185
  10  O       8.00    4.541244524    0.844186608    2.283346095
  11  O       8.00    5.160798408   -2.392161840   -0.719407814
  12  S      16.00    6.618470938   -0.888207441    1.267484217
  13  O       8.00    8.620109166    0.597959864    0.080668581
  14  H       1.00   -2.361530846   -1.915208390   -5.091544410

 Bond lengths in Bohr (Angstrom)

 1-2  3.539541359  1-4  4.108383429  1-5  5.367142881  1-6  4.739033257  1-7  6.016976513
     ( 1.873044624)     ( 2.174062884)     ( 2.840169700)     ( 2.507788401)     ( 3.184046849)

  1- 8  4.011738321   1- 9  5.406642937   1-10  4.600406644   1-11  4.620287027   1-12  5.871470911
       ( 2.122920496)       ( 2.861072230)       ( 2.434430357)       ( 2.444950603)       ( 3.107048600)

  1-14  5.988884987   3-12  2.760384274   4- 5  1.822483672   6- 7  1.825190283   6-14  1.825210464
       ( 3.169181454)       ( 1.460732451)       ( 0.964416826)       ( 0.965849103)       ( 0.965859783)

  8- 9  1.826351190  10-12  2.889296466  11-12  2.886940938  12-13  2.761119376
       ( 0.966463429)       ( 1.528949846)       ( 1.527703354)       ( 1.461121450)

 Bond angles

  1- 4- 5  125.07803229   1- 5- 4   38.78775585   1- 6- 7  127.01363303   1- 6-14  125.62646979

  1- 7- 6   38.96907422   1- 8- 9  131.98398076   1- 9- 8   33.47365679   1-10-12  100.75847515

  1-11-12  100.34974278   1-12- 3  124.74275583   1-12-10   50.33113294   1-12-11   50.72361012

  1-12-13  122.10657938   1-14- 6   40.03067445   2- 1- 4   94.83212206   2- 1- 5   78.76135088

  2-1-6   85.92024129   2-1-7   99.93646146   2-1-8  170.12761259   2-1-9  161.89984887

  2- 1-10   95.88090432   2- 1-11   92.81861719   2- 1-12   94.37878311   2- 1-14   71.57782452

  3-12-10  110.47632663   3-12-11  110.55200783   3-12-13  113.14980774   4- 1- 5   16.13421186

  4-1-6  101.14991983   4-1-7   99.98753523   4-1-8   88.08060740   4-1-9  102.23096439

  4- 1-10   90.67311051   4- 1-11  148.20638765   4- 1-12  119.52948754   4- 1-14  101.92973591

  5-1-6  101.22173063   5-1-7  104.02610707   5-1-8  104.16700264   5-1-9  118.36249214

  5- 1-10   90.89216042   5- 1-11  146.86837725   5- 1-12  119.01292749   5- 1-14   97.96230422

  6- 1- 7   14.01729275   6- 1- 8   84.26085032   6- 1- 9   84.90714207   6- 1-10  167.86665058

  6- 1-11  110.15563529   6- 1-12  139.07980595   6- 1-14   14.34285577   7- 1- 8   70.24378594

  7- 1- 9   71.38188829   7- 1-10  160.04114075   7- 1-11  108.99678451   7- 1-12  136.52527581

  7- 1-14   28.35869734   7- 6-14  107.35208532   8- 1- 9   14.54236245   8- 1-10   93.51119426

  8- 1-11   89.60566355   8- 1-12   92.36986578   8- 1-14   98.59902428   9- 1-10   89.96940390

  9- 1-11   75.82838775   9- 1-12   82.51742023   9- 1-14   98.69136901  10- 1-11   57.82598827

 10- 1-12   28.91039192  10- 1-14  162.73948331  10-12-11  101.03045669  10-12-13  110.46183851

 11- 1-12   28.92664709  11- 1-14  109.76556098  11-12-13  110.52469111  12- 1-14  137.42877444


 BASIS DATA

   Nr Sym  Nuc  Type         Exponents   Contraction coefficients

    1.1 A     1  1s    57606659.000000     0.002669    0.000875   -0.001011   -0.000162    0.000138   -0.000062
                                           0.000029    0.000051   -0.000067   -0.000085    0.000000
    2.1 A              15333099.000000     0.001763    0.000577   -0.000669   -0.000107    0.000091   -0.000041
                                           0.000019    0.000034   -0.000045   -0.000056    0.000000
    3.1 A               5244434.800000     0.005688    0.001860   -0.002159   -0.000346    0.000294   -0.000133
                                           0.000061    0.000110   -0.000144   -0.000182    0.000000
    4.1 A               1993947.300000     0.005833    0.001897   -0.002226   -0.000357    0.000304   -0.000137
                                           0.000063    0.000114   -0.000148   -0.000188    0.000000
    5.1 A                831464.670000     0.012471    0.004046   -0.004768   -0.000766    0.000651   -0.000294
                                           0.000135    0.000243   -0.000318   -0.000402    0.000000
    6.1 A                367473.800000     0.015337    0.004923   -0.005922   -0.000954    0.000810   -0.000366
                                           0.000168    0.000303   -0.000396   -0.000502    0.000000
    7.1 A                170948.980000     0.027802    0.008860   -0.010807   -0.001745    0.001481   -0.000669
                                           0.000307    0.000553   -0.000723   -0.000913    0.000000
    8.1 A                 82498.208000     0.037893    0.011845   -0.014983   -0.002432    0.002060   -0.000931
                                           0.000428    0.000771   -0.001008   -0.001281    0.000000
    9.1 A                 41068.557000     0.063446    0.019489   -0.025472   -0.004156    0.003514   -0.001588
                                           0.000730    0.001312   -0.001713   -0.002158    0.000000
   10.1 A                 20931.097000     0.090970    0.026964   -0.037612   -0.006192    0.005220   -0.002360
                                           0.001084    0.001959   -0.002562   -0.003271    0.000000
   11.1 A                 10881.858000     0.141353    0.040137   -0.060450   -0.010069    0.008456   -0.003823
                                           0.001756    0.003150   -0.004109   -0.005142    0.000000
                           5751.850200     0.192150    0.050328   -0.087023   -0.014758    0.012320   -0.005570
                                           0.002559    0.004641   -0.006081   -0.007843    0.000000
                           3085.413800     0.245625    0.057494   -0.119370   -0.020746    0.017180   -0.007769
                                           0.003568    0.006365   -0.008281   -0.010186    0.000000
                           1676.302600     0.236828    0.048791   -0.122988   -0.021795    0.017936   -0.008112
                                           0.003728    0.006861   -0.009046   -0.012129    0.000000
                            920.364860     0.144288    0.051386   -0.045258   -0.005640    0.005268   -0.002373
                                           0.001085    0.001652   -0.001974   -0.001042    0.000000
                            507.302700    -0.025759    0.115725    0.203246    0.056561   -0.041187    0.018724
                                          -0.008598   -0.014902    0.019190    0.021482    0.000000
                            285.301180    -0.127248    0.207489    0.548666    0.172341   -0.122683    0.055908
                                          -0.025737   -0.047910    0.063712    0.088054    0.000000
                            162.083520    -0.106345    0.166212    0.606264    0.222723   -0.155054    0.070944
                                          -0.032607   -0.056240    0.072273    0.078654    0.000000
                             92.502257    -0.075897    0.111536    0.036795   -0.036386    0.019294   -0.009062
                                           0.004086    0.001475    0.001168    0.030443    0.000000
                             54.996696    -0.159518    0.199400   -0.676887   -0.645265    0.447335   -0.211910
                                           0.098395    0.193270   -0.267108   -0.419400    0.000000
                             32.498055    -0.126680    0.162427   -0.590845   -0.685716    0.477369   -0.227312
                                           0.105023    0.171409   -0.214999   -0.161690    0.000000
                             19.139224    -0.031866    0.038627   -0.102127    0.187644   -0.152132    0.072681
                                          -0.032972   -0.027495    0.028200   -0.136514    0.000000
                             11.382710     0.001867    0.000895    0.103491    0.862021   -0.976205    0.547811
                                          -0.263192   -0.581563    0.872312    1.708580    0.000000
                              6.786052     0.000710   -0.001446    0.057992    0.445035   -0.716251    0.417708
                                          -0.198179   -0.257965    0.233684   -0.803168    0.000000
                              4.149622     0.000624    0.000224    0.007493    0.066545    0.448492   -0.350229
                                           0.170540    0.219139   -0.310498    1.111350    0.000000
                              2.398648    -0.000456    0.000036    0.000333    0.014140    0.872214   -0.849732
                                           0.456257    1.306370   -2.312230   -7.677220    0.000000
                              1.389239     0.000090    0.000196   -0.000539    0.002102    0.319316   -0.431871
                                           0.230358    0.273179    0.312923   10.897300    0.000000
                              0.799685    -0.000092   -0.000045    0.000120    0.000488    0.047531    0.436228
                                          -0.277578   -1.772950    4.829150   -2.756210    0.000000
                              0.427327     0.000032    0.000027   -0.000069   -0.000720    0.030738    0.715435
                                          -0.561943   -0.897998   -3.625440   -6.603630    0.000000
                              0.220940    -0.000014   -0.000008    0.000023   -0.000086    0.010089    0.233487
                                          -0.326569    1.531090   -1.220420    6.760400    0.000000
                              0.086038     0.000004    0.000003   -0.000008   -0.000060    0.001152    0.063336
                                           0.301677    1.025940    2.677810   -2.145480    0.000000
                              0.041219    -0.000002   -0.000001    0.000004   -0.000044    0.001537    0.118995
                                           0.692734   -0.772162   -0.536170   -1.021350    0.000000
                              0.018781     0.000001    0.000000   -0.000001   -0.000024    0.000590    0.043903
                                           0.253879   -0.484754   -0.805222    1.252960    1.000000
   12.1 A     1  2px   52575799.000000     0.000013
                       15301659.000000     0.000017
                        4822461.600000     0.000052
                        1632045.600000     0.000107
                         584338.640000     0.000256
                         219508.320000     0.000572
                          86085.039000     0.001336
                          35172.956000     0.003129
                          14975.745000     0.007503
                           6652.821900     0.017986
                           3084.270200     0.042103
                           1489.211300     0.090969
                            745.288670     0.167976
                            384.521300     0.234709
                            203.927220     0.220200
                            110.523340     0.174708
                             61.345569     0.190642
                             34.404375     0.137246
                             19.094147     0.033402
                             10.684628    -0.000867
                              5.931463    -0.000935
                              3.230992    -0.000009
                              1.730655     0.000164
                              0.869483     0.000022
                              0.440589     0.000009
                              0.215859    -0.000000
                              0.091015     0.000001
                              0.040174    -0.000000
                              0.017215     0.000000
   13.1 A     1  2py   52575799.000000     0.000013
                       15301659.000000     0.000017
                        4822461.600000     0.000052
                        1632045.600000     0.000107
                         584338.640000     0.000256
                         219508.320000     0.000572
                          86085.039000     0.001336
                          35172.956000     0.003129
                          14975.745000     0.007503
                           6652.821900     0.017986
                           3084.270200     0.042103
                           1489.211300     0.090969
                            745.288670     0.167976
                            384.521300     0.234709
                            203.927220     0.220200
                            110.523340     0.174708
                             61.345569     0.190642
                             34.404375     0.137246
                             19.094147     0.033402
                             10.684628    -0.000867
                              5.931463    -0.000935
                              3.230992    -0.000009
                              1.730655     0.000164
                              0.869483     0.000022
                              0.440589     0.000009
                              0.215859    -0.000000
                              0.091015     0.000001
                              0.040174    -0.000000
                              0.017215     0.000000
   14.1 A     1  2pz   52575799.000000     0.000013
                       15301659.000000     0.000017
                        4822461.600000     0.000052
                        1632045.600000     0.000107
                         584338.640000     0.000256
                         219508.320000     0.000572
                          86085.039000     0.001336
                          35172.956000     0.003129
                          14975.745000     0.007503
                           6652.821900     0.017986
                           3084.270200     0.042103
                           1489.211300     0.090969
                            745.288670     0.167976
                            384.521300     0.234709
                            203.927220     0.220200
                            110.523340     0.174708
                             61.345569     0.190642
                             34.404375     0.137246
                             19.094147     0.033402
                             10.684628    -0.000867
                              5.931463    -0.000935
                              3.230992    -0.000009
                              1.730655     0.000164
                              0.869483     0.000022
                              0.440589     0.000009
                              0.215859    -0.000000
                              0.091015     0.000001
                              0.040174    -0.000000
                              0.017215     0.000000
   15.1 A     1  2px   52575799.000000    -0.000015
                       15301659.000000    -0.000020
                        4822461.600000    -0.000063
                        1632045.600000    -0.000128
                         584338.640000    -0.000307
                         219508.320000    -0.000688
                          86085.039000    -0.001611
                          35172.956000    -0.003789
                          14975.745000    -0.009145
                           6652.821900    -0.022135
                           3084.270200    -0.052666
                           1489.211300    -0.116756
                            745.288670    -0.223673
                            384.521300    -0.322150
                            203.927220    -0.236330
                            110.523340     0.145050
                             61.345569     0.527334
                             34.404375     0.400957
                             19.094147     0.019469
                             10.684628    -0.122609
                              5.931463    -0.050931
                              3.230992    -0.002720
                              1.730655     0.002231
                              0.869483     0.000423
                              0.440589     0.000084
                              0.215859     0.000018
                              0.091015     0.000006
                              0.040174    -0.000002
                              0.017215     0.000001
   16.1 A     1  2py   52575799.000000    -0.000015
                       15301659.000000    -0.000020
                        4822461.600000    -0.000063
                        1632045.600000    -0.000128
                         584338.640000    -0.000307
                         219508.320000    -0.000688
                          86085.039000    -0.001611
                          35172.956000    -0.003789
                          14975.745000    -0.009145
                           6652.821900    -0.022135
                           3084.270200    -0.052666
                           1489.211300    -0.116756
                            745.288670    -0.223673
                            384.521300    -0.322150
                            203.927220    -0.236330
                            110.523340     0.145050
                             61.345569     0.527334
                             34.404375     0.400957
                             19.094147     0.019469
                             10.684628    -0.122609
                              5.931463    -0.050931
                              3.230992    -0.002720
                              1.730655     0.002231
                              0.869483     0.000423
                              0.440589     0.000084
                              0.215859     0.000018
                              0.091015     0.000006
                              0.040174    -0.000002
                              0.017215     0.000001
   17.1 A     1  2pz   52575799.000000    -0.000015
                       15301659.000000    -0.000020
                        4822461.600000    -0.000063
                        1632045.600000    -0.000128
                         584338.640000    -0.000307
                         219508.320000    -0.000688
                          86085.039000    -0.001611
                          35172.956000    -0.003789
                          14975.745000    -0.009145
                           6652.821900    -0.022135
                           3084.270200    -0.052666
                           1489.211300    -0.116756
                            745.288670    -0.223673
                            384.521300    -0.322150
                            203.927220    -0.236330
                            110.523340     0.145050
                             61.345569     0.527334
                             34.404375     0.400957
                             19.094147     0.019469
                             10.684628    -0.122609
                              5.931463    -0.050931
                              3.230992    -0.002720
                              1.730655     0.002231
                              0.869483     0.000423
                              0.440589     0.000084
                              0.215859     0.000018
                              0.091015     0.000006
                              0.040174    -0.000002
                              0.017215     0.000001
   18.1 A     1  2px   52575799.000000     0.000002
                       15301659.000000     0.000002
                        4822461.600000     0.000007
                        1632045.600000     0.000015
                         584338.640000     0.000036
                         219508.320000     0.000081
                          86085.039000     0.000191
                          35172.956000     0.000452
                          14975.745000     0.001103
                           6652.821900     0.002719
                           3084.270200     0.006655
                           1489.211300     0.015415
                            745.288670     0.031304
                            384.521300     0.047289
                            203.927220     0.017930
                            110.523340    -0.123036
                             61.345569    -0.327485
                             34.404375    -0.190153
                             19.094147     0.365341
                             10.684628     0.614487
                              5.931463     0.253665
                              3.230992     0.025247
                              1.730655     0.001457
                              0.869483    -0.000189
                              0.440589     0.000178
                              0.215859    -0.000001
                              0.091015     0.000034
                              0.040174    -0.000010
                              0.017215     0.000003
   19.1 A     1  2py   52575799.000000     0.000002
                       15301659.000000     0.000002
                        4822461.600000     0.000007
                        1632045.600000     0.000015
                         584338.640000     0.000036
                         219508.320000     0.000081
                          86085.039000     0.000191
                          35172.956000     0.000452
                          14975.745000     0.001103
                           6652.821900     0.002719
                           3084.270200     0.006655
                           1489.211300     0.015415
                            745.288670     0.031304
                            384.521300     0.047289
                            203.927220     0.017930
                            110.523340    -0.123036
                             61.345569    -0.327485
                             34.404375    -0.190153
                             19.094147     0.365341
                             10.684628     0.614487
                              5.931463     0.253665
                              3.230992     0.025247
                              1.730655     0.001457
                              0.869483    -0.000189
                              0.440589     0.000178
                              0.215859    -0.000001
                              0.091015     0.000034
                              0.040174    -0.000010
                              0.017215     0.000003
   20.1 A     1  2pz   52575799.000000     0.000002
                       15301659.000000     0.000002
                        4822461.600000     0.000007
                        1632045.600000     0.000015
                         584338.640000     0.000036
                         219508.320000     0.000081
                          86085.039000     0.000191
                          35172.956000     0.000452
                          14975.745000     0.001103
                           6652.821900     0.002719
                           3084.270200     0.006655
                           1489.211300     0.015415
                            745.288670     0.031304
                            384.521300     0.047289
                            203.927220     0.017930
                            110.523340    -0.123036
                             61.345569    -0.327485
                             34.404375    -0.190153
                             19.094147     0.365341
                             10.684628     0.614487
                              5.931463     0.253665
                              3.230992     0.025247
                              1.730655     0.001457
                              0.869483    -0.000189
                              0.440589     0.000178
                              0.215859    -0.000001
                              0.091015     0.000034
                              0.040174    -0.000010
                              0.017215     0.000003
   21.1 A     1  2px   52575799.000000    -0.000002
                       15301659.000000    -0.000003
                        4822461.600000    -0.000009
                        1632045.600000    -0.000018
                         584338.640000    -0.000043
                         219508.320000    -0.000097
                          86085.039000    -0.000228
                          35172.956000    -0.000537
                          14975.745000    -0.001302
                           6652.821900    -0.003177
                           3084.270200    -0.007652
                           1489.211300    -0.017311
                            745.288670    -0.034068
                            384.521300    -0.050256
                            203.927220    -0.027762
                            110.523340     0.078094
                             61.345569     0.225253
                             34.404375     0.124053
                             19.094147    -0.273486
                             10.684628    -0.553839
                              5.931463    -0.065277
                              3.230992     0.618524
                              1.730655     0.501044
                              0.869483     0.107343
                              0.440589     0.023201
                              0.215859     0.014691
                              0.091015     0.001511
                              0.040174     0.000132
                              0.017215    -0.000015
   22.1 A     1  2py   52575799.000000    -0.000002
                       15301659.000000    -0.000003
                        4822461.600000    -0.000009
                        1632045.600000    -0.000018
                         584338.640000    -0.000043
                         219508.320000    -0.000097
                          86085.039000    -0.000228
                          35172.956000    -0.000537
                          14975.745000    -0.001302
                           6652.821900    -0.003177
                           3084.270200    -0.007652
                           1489.211300    -0.017311
                            745.288670    -0.034068
                            384.521300    -0.050256
                            203.927220    -0.027762
                            110.523340     0.078094
                             61.345569     0.225253
                             34.404375     0.124053
                             19.094147    -0.273486
                             10.684628    -0.553839
                              5.931463    -0.065277
                              3.230992     0.618524
                              1.730655     0.501044
                              0.869483     0.107343
                              0.440589     0.023201
                              0.215859     0.014691
                              0.091015     0.001511
                              0.040174     0.000132
                              0.017215    -0.000015
   23.1 A     1  2pz   52575799.000000    -0.000002
                       15301659.000000    -0.000003
                        4822461.600000    -0.000009
                        1632045.600000    -0.000018
                         584338.640000    -0.000043
                         219508.320000    -0.000097
                          86085.039000    -0.000228
                          35172.956000    -0.000537
                          14975.745000    -0.001302
                           6652.821900    -0.003177
                           3084.270200    -0.007652
                           1489.211300    -0.017311
                            745.288670    -0.034068
                            384.521300    -0.050256
                            203.927220    -0.027762
                            110.523340     0.078094
                             61.345569     0.225253
                             34.404375     0.124053
                             19.094147    -0.273486
                             10.684628    -0.553839
                              5.931463    -0.065277
                              3.230992     0.618524
                              1.730655     0.501044
                              0.869483     0.107343
                              0.440589     0.023201
                              0.215859     0.014691
                              0.091015     0.001511
                              0.040174     0.000132
                              0.017215    -0.000015
   24.1 A     1  2px   52575799.000000     0.000001
                       15301659.000000     0.000001
                        4822461.600000     0.000004
                        1632045.600000     0.000008
                         584338.640000     0.000019
                         219508.320000     0.000043
                          86085.039000     0.000102
                          35172.956000     0.000240
                          14975.745000     0.000583
                           6652.821900     0.001422
                           3084.270200     0.003426
                           1489.211300     0.007745
                            745.288670     0.015249
                            384.521300     0.022470
                            203.927220     0.012451
                            110.523340    -0.035134
                             61.345569    -0.101385
                             34.404375    -0.055104
                             19.094147     0.131617
                             10.684628     0.274237
                              5.931463     0.008683
                              3.230992    -0.421618
                              1.730655    -0.381893
                              0.869483     0.226214
                              0.440589     0.602150
                              0.215859     0.367232
                              0.091015     0.055939
                              0.040174    -0.001129
                              0.017215     0.001121
   25.1 A     1  2py   52575799.000000     0.000001
                       15301659.000000     0.000001
                        4822461.600000     0.000004
                        1632045.600000     0.000008
                         584338.640000     0.000019
                         219508.320000     0.000043
                          86085.039000     0.000102
                          35172.956000     0.000240
                          14975.745000     0.000583
                           6652.821900     0.001422
                           3084.270200     0.003426
                           1489.211300     0.007745
                            745.288670     0.015249
                            384.521300     0.022470
                            203.927220     0.012451
                            110.523340    -0.035134
                             61.345569    -0.101385
                             34.404375    -0.055104
                             19.094147     0.131617
                             10.684628     0.274237
                              5.931463     0.008683
                              3.230992    -0.421618
                              1.730655    -0.381893
                              0.869483     0.226214
                              0.440589     0.602150
                              0.215859     0.367232
                              0.091015     0.055939
                              0.040174    -0.001129
                              0.017215     0.001121
   26.1 A     1  2pz   52575799.000000     0.000001
                       15301659.000000     0.000001
                        4822461.600000     0.000004
                        1632045.600000     0.000008
                         584338.640000     0.000019
                         219508.320000     0.000043
                          86085.039000     0.000102
                          35172.956000     0.000240
                          14975.745000     0.000583
                           6652.821900     0.001422
                           3084.270200     0.003426
                           1489.211300     0.007745
                            745.288670     0.015249
                            384.521300     0.022470
                            203.927220     0.012451
                            110.523340    -0.035134
                             61.345569    -0.101385
                             34.404375    -0.055104
                             19.094147     0.131617
                             10.684628     0.274237
                              5.931463     0.008683
                              3.230992    -0.421618
                              1.730655    -0.381893
                              0.869483     0.226214
                              0.440589     0.602150
                              0.215859     0.367232
                              0.091015     0.055939
                              0.040174    -0.001129
                              0.017215     0.001121
   27.1 A     1  2px   52575799.000000    -0.000000
                       15301659.000000    -0.000000
                        4822461.600000    -0.000001
                        1632045.600000    -0.000002
                         584338.640000    -0.000005
                         219508.320000    -0.000010
                          86085.039000    -0.000024
                          35172.956000    -0.000058
                          14975.745000    -0.000140
                           6652.821900    -0.000342
                           3084.270200    -0.000823
                           1489.211300    -0.001861
                            745.288670    -0.003664
                            384.521300    -0.005398
                            203.927220    -0.002991
                            110.523340     0.008482
                             61.345569     0.024454
                             34.404375     0.013272
                             19.094147    -0.032305
                             10.684628    -0.067432
                              5.931463    -0.001366
                              3.230992     0.110673
                              1.730655     0.103187
                              0.869483    -0.077840
                              0.440589    -0.217735
                              0.215859    -0.188345
                              0.091015     0.201020
                              0.040174     0.637069
                              0.017215     0.326669
   28.1 A     1  2py   52575799.000000    -0.000000
                       15301659.000000    -0.000000
                        4822461.600000    -0.000001
                        1632045.600000    -0.000002
                         584338.640000    -0.000005
                         219508.320000    -0.000010
                          86085.039000    -0.000024
                          35172.956000    -0.000058
                          14975.745000    -0.000140
                           6652.821900    -0.000342
                           3084.270200    -0.000823
                           1489.211300    -0.001861
                            745.288670    -0.003664
                            384.521300    -0.005398
                            203.927220    -0.002991
                            110.523340     0.008482
                             61.345569     0.024454
                             34.404375     0.013272
                             19.094147    -0.032305
                             10.684628    -0.067432
                              5.931463    -0.001366
                              3.230992     0.110673
                              1.730655     0.103187
                              0.869483    -0.077840
                              0.440589    -0.217735
                              0.215859    -0.188345
                              0.091015     0.201020
                              0.040174     0.637069
                              0.017215     0.326669
   29.1 A     1  2pz   52575799.000000    -0.000000
                       15301659.000000    -0.000000
                        4822461.600000    -0.000001
                        1632045.600000    -0.000002
                         584338.640000    -0.000005
                         219508.320000    -0.000010
                          86085.039000    -0.000024
                          35172.956000    -0.000058
                          14975.745000    -0.000140
                           6652.821900    -0.000342
                           3084.270200    -0.000823
                           1489.211300    -0.001861
                            745.288670    -0.003664
                            384.521300    -0.005398
                            203.927220    -0.002991
                            110.523340     0.008482
                             61.345569     0.024454
                             34.404375     0.013272
                             19.094147    -0.032305
                             10.684628    -0.067432
                              5.931463    -0.001366
                              3.230992     0.110673
                              1.730655     0.103187
                              0.869483    -0.077840
                              0.440589    -0.217735
                              0.215859    -0.188345
                              0.091015     0.201020
                              0.040174     0.637069
                              0.017215     0.326669
   30.1 A     1  2px   52575799.000000    -0.000001
                       15301659.000000    -0.000001
                        4822461.600000    -0.000003
                        1632045.600000    -0.000005
                         584338.640000    -0.000013
                         219508.320000    -0.000028
                          86085.039000    -0.000066
                          35172.956000    -0.000156
                          14975.745000    -0.000379
                           6652.821900    -0.000925
                           3084.270200    -0.002224
                           1489.211300    -0.005040
                            745.288670    -0.009895
                            384.521300    -0.014653
                            203.927220    -0.007970
                            110.523340     0.022757
                             61.345569     0.067049
                             34.404375     0.034635
                             19.094147    -0.086605
                             10.684628    -0.190567
                              5.931463     0.011210
                              3.230992     0.295370
                              1.730655     0.357708
                              0.869483    -0.483437
                              0.440589    -0.603385
                              0.215859     0.215887
                              0.091015     0.715465
                              0.040174     0.271767
                              0.017215     0.004114
   31.1 A     1  2py   52575799.000000    -0.000001
                       15301659.000000    -0.000001
                        4822461.600000    -0.000003
                        1632045.600000    -0.000005
                         584338.640000    -0.000013
                         219508.320000    -0.000028
                          86085.039000    -0.000066
                          35172.956000    -0.000156
                          14975.745000    -0.000379
                           6652.821900    -0.000925
                           3084.270200    -0.002224
                           1489.211300    -0.005040
                            745.288670    -0.009895
                            384.521300    -0.014653
                            203.927220    -0.007970
                            110.523340     0.022757
                             61.345569     0.067049
                             34.404375     0.034635
                             19.094147    -0.086605
                             10.684628    -0.190567
                              5.931463     0.011210
                              3.230992     0.295370
                              1.730655     0.357708
                              0.869483    -0.483437
                              0.440589    -0.603385
                              0.215859     0.215887
                              0.091015     0.715465
                              0.040174     0.271767
                              0.017215     0.004114
   32.1 A     1  2pz   52575799.000000    -0.000001
                       15301659.000000    -0.000001
                        4822461.600000    -0.000003
                        1632045.600000    -0.000005
                         584338.640000    -0.000013
                         219508.320000    -0.000028
                          86085.039000    -0.000066
                          35172.956000    -0.000156
                          14975.745000    -0.000379
                           6652.821900    -0.000925
                           3084.270200    -0.002224
                           1489.211300    -0.005040
                            745.288670    -0.009895
                            384.521300    -0.014653
                            203.927220    -0.007970
                            110.523340     0.022757
                             61.345569     0.067049
                             34.404375     0.034635
                             19.094147    -0.086605
                             10.684628    -0.190567
                              5.931463     0.011210
                              3.230992     0.295370
                              1.730655     0.357708
                              0.869483    -0.483437
                              0.440589    -0.603385
                              0.215859     0.215887
                              0.091015     0.715465
                              0.040174     0.271767
                              0.017215     0.004114
   33.1 A     1  2px   52575799.000000    -0.000001
                       15301659.000000    -0.000001
                        4822461.600000    -0.000004
                        1632045.600000    -0.000009
                         584338.640000    -0.000021
                         219508.320000    -0.000047
                          86085.039000    -0.000111
                          35172.956000    -0.000263
                          14975.745000    -0.000636
                           6652.821900    -0.001554
                           3084.270200    -0.003739
                           1489.211300    -0.008475
                            745.288670    -0.016642
                            384.521300    -0.024644
                            203.927220    -0.013367
                            110.523340     0.038637
                             61.345569     0.114090
                             34.404375     0.057493
                             19.094147    -0.152735
                             10.684628    -0.335275
                              5.931463     0.054116
                              3.230992     0.556566
                              1.730655     0.705542
                              0.869483    -1.835570
                              0.440589    -0.012121
                              0.215859     1.665730
                              0.091015    -0.585220
                              0.040174    -0.541179
                              0.017215     0.007323
   34.1 A     1  2py   52575799.000000    -0.000001
                       15301659.000000    -0.000001
                        4822461.600000    -0.000004
                        1632045.600000    -0.000009
                         584338.640000    -0.000021
                         219508.320000    -0.000047
                          86085.039000    -0.000111
                          35172.956000    -0.000263
                          14975.745000    -0.000636
                           6652.821900    -0.001554
                           3084.270200    -0.003739
                           1489.211300    -0.008475
                            745.288670    -0.016642
                            384.521300    -0.024644
                            203.927220    -0.013367
                            110.523340     0.038637
                             61.345569     0.114090
                             34.404375     0.057493
                             19.094147    -0.152735
                             10.684628    -0.335275
                              5.931463     0.054116
                              3.230992     0.556566
                              1.730655     0.705542
                              0.869483    -1.835570
                              0.440589    -0.012121
                              0.215859     1.665730
                              0.091015    -0.585220
                              0.040174    -0.541179
                              0.017215     0.007323
   35.1 A     1  2pz   52575799.000000    -0.000001
                       15301659.000000    -0.000001
                        4822461.600000    -0.000004
                        1632045.600000    -0.000009
                         584338.640000    -0.000021
                         219508.320000    -0.000047
                          86085.039000    -0.000111
                          35172.956000    -0.000263
                          14975.745000    -0.000636
                           6652.821900    -0.001554
                           3084.270200    -0.003739
                           1489.211300    -0.008475
                            745.288670    -0.016642
                            384.521300    -0.024644
                            203.927220    -0.013367
                            110.523340     0.038637
                             61.345569     0.114090
                             34.404375     0.057493
                             19.094147    -0.152735
                             10.684628    -0.335275
                              5.931463     0.054116
                              3.230992     0.556566
                              1.730655     0.705542
                              0.869483    -1.835570
                              0.440589    -0.012121
                              0.215859     1.665730
                              0.091015    -0.585220
                              0.040174    -0.541179
                              0.017215     0.007323
   36.1 A     1  2px   52575799.000000    -0.000001
                       15301659.000000    -0.000002
                        4822461.600000    -0.000006
                        1632045.600000    -0.000012
                         584338.640000    -0.000030
                         219508.320000    -0.000066
                          86085.039000    -0.000157
                          35172.956000    -0.000360
                          14975.745000    -0.000908
                           6652.821900    -0.002110
                           3084.270200    -0.005394
                           1489.211300    -0.011352
                            745.288670    -0.024563
                            384.521300    -0.031084
                            203.927220    -0.026677
                            110.523340     0.074398
                             61.345569     0.122621
                             34.404375     0.158055
                             19.094147    -0.396610
                             10.684628    -0.217370
                              5.931463    -0.310283
                              3.230992     1.975310
                              1.730655    -0.901781
                              0.869483    -2.796670
                              0.440589     4.376690
                              0.215859    -2.312120
                              0.091015    -0.328877
                              0.040174     0.867979
                              0.017215    -0.037454
   37.1 A     1  2py   52575799.000000    -0.000001
                       15301659.000000    -0.000002
                        4822461.600000    -0.000006
                        1632045.600000    -0.000012
                         584338.640000    -0.000030
                         219508.320000    -0.000066
                          86085.039000    -0.000157
                          35172.956000    -0.000360
                          14975.745000    -0.000908
                           6652.821900    -0.002110
                           3084.270200    -0.005394
                           1489.211300    -0.011352
                            745.288670    -0.024563
                            384.521300    -0.031084
                            203.927220    -0.026677
                            110.523340     0.074398
                             61.345569     0.122621
                             34.404375     0.158055
                             19.094147    -0.396610
                             10.684628    -0.217370
                              5.931463    -0.310283
                              3.230992     1.975310
                              1.730655    -0.901781
                              0.869483    -2.796670
                              0.440589     4.376690
                              0.215859    -2.312120
                              0.091015    -0.328877
                              0.040174     0.867979
                              0.017215    -0.037454
   38.1 A     1  2pz   52575799.000000    -0.000001
                       15301659.000000    -0.000002
                        4822461.600000    -0.000006
                        1632045.600000    -0.000012
                         584338.640000    -0.000030
                         219508.320000    -0.000066
                          86085.039000    -0.000157
                          35172.956000    -0.000360
                          14975.745000    -0.000908
                           6652.821900    -0.002110
                           3084.270200    -0.005394
                           1489.211300    -0.011352
                            745.288670    -0.024563
                            384.521300    -0.031084
                            203.927220    -0.026677
                            110.523340     0.074398
                             61.345569     0.122621
                             34.404375     0.158055
                             19.094147    -0.396610
                             10.684628    -0.217370
                              5.931463    -0.310283
                              3.230992     1.975310
                              1.730655    -0.901781
                              0.869483    -2.796670
                              0.440589     4.376690
                              0.215859    -2.312120
                              0.091015    -0.328877
                              0.040174     0.867979
                              0.017215    -0.037454
   39.1 A     1  2px   52575799.000000     0.000000
                       15301659.000000     0.000000
                        4822461.600000     0.000000
                        1632045.600000     0.000000
                         584338.640000     0.000000
                         219508.320000     0.000000
                          86085.039000     0.000000
                          35172.956000     0.000000
                          14975.745000     0.000000
                           6652.821900     0.000000
                           3084.270200     0.000000
                           1489.211300     0.000000
                            745.288670     0.000000
                            384.521300     0.000000
                            203.927220     0.000000
                            110.523340     0.000000
                             61.345569     0.000000
                             34.404375     0.000000
                             19.094147     0.000000
                             10.684628     0.000000
                              5.931463     0.000000
                              3.230992     0.000000
                              1.730655     0.000000
                              0.869483     0.000000
                              0.440589     0.000000
                              0.215859     0.000000
                              0.091015     0.000000
                              0.040174     0.000000
                              0.017215     1.000000
   40.1 A     1  2py   52575799.000000     0.000000
                       15301659.000000     0.000000
                        4822461.600000     0.000000
                        1632045.600000     0.000000
                         584338.640000     0.000000
                         219508.320000     0.000000
                          86085.039000     0.000000
                          35172.956000     0.000000
                          14975.745000     0.000000
                           6652.821900     0.000000
                           3084.270200     0.000000
                           1489.211300     0.000000
                            745.288670     0.000000
                            384.521300     0.000000
                            203.927220     0.000000
                            110.523340     0.000000
                             61.345569     0.000000
                             34.404375     0.000000
                             19.094147     0.000000
                             10.684628     0.000000
                              5.931463     0.000000
                              3.230992     0.000000
                              1.730655     0.000000
                              0.869483     0.000000
                              0.440589     0.000000
                              0.215859     0.000000
                              0.091015     0.000000
                              0.040174     0.000000
                              0.017215     1.000000
   41.1 A     1  2pz   52575799.000000     0.000000
                       15301659.000000     0.000000
                        4822461.600000     0.000000
                        1632045.600000     0.000000
                         584338.640000     0.000000
                         219508.320000     0.000000
                          86085.039000     0.000000
                          35172.956000     0.000000
                          14975.745000     0.000000
                           6652.821900     0.000000
                           3084.270200     0.000000
                           1489.211300     0.000000
                            745.288670     0.000000
                            384.521300     0.000000
                            203.927220     0.000000
                            110.523340     0.000000
                             61.345569     0.000000
                             34.404375     0.000000
                             19.094147     0.000000
                             10.684628     0.000000
                              5.931463     0.000000
                              3.230992     0.000000
                              1.730655     0.000000
                              0.869483     0.000000
                              0.440589     0.000000
                              0.215859     0.000000
                              0.091015     0.000000
                              0.040174     0.000000
                              0.017215     1.000000
   42.1 A     1  3d0     105911.200000     0.000020
                          24974.572000     0.000129
                           8108.852700     0.000677
                           3150.520500     0.003052
                           1380.647900     0.011950
                            658.188950     0.039706
                            332.909040     0.108875
                            176.023220     0.231727
                             95.780704     0.354949
                             53.337287     0.336096
                             29.864821     0.140603
                             16.526778    -0.033742
                              9.155323    -0.064042
                              4.984876    -0.024095
                              2.636633    -0.002233
                              1.354062     0.000305
                              0.656031     0.000103
                              0.269853     0.000008
                              0.103443     0.000000
                              0.036685     0.000000
   43.1 A     1  3d2-    105911.200000     0.000020
                          24974.572000     0.000129
                           8108.852700     0.000677
                           3150.520500     0.003052
                           1380.647900     0.011950
                            658.188950     0.039706
                            332.909040     0.108875
                            176.023220     0.231727
                             95.780704     0.354949
                             53.337287     0.336096
                             29.864821     0.140603
                             16.526778    -0.033742
                              9.155323    -0.064042
                              4.984876    -0.024095
                              2.636633    -0.002233
                              1.354062     0.000305
                              0.656031     0.000103
                              0.269853     0.000008
                              0.103443     0.000000
                              0.036685     0.000000
   44.1 A     1  3d1+    105911.200000     0.000020
                          24974.572000     0.000129
                           8108.852700     0.000677
                           3150.520500     0.003052
                           1380.647900     0.011950
                            658.188950     0.039706
                            332.909040     0.108875
                            176.023220     0.231727
                             95.780704     0.354949
                             53.337287     0.336096
                             29.864821     0.140603
                             16.526778    -0.033742
                              9.155323    -0.064042
                              4.984876    -0.024095
                              2.636633    -0.002233
                              1.354062     0.000305
                              0.656031     0.000103
                              0.269853     0.000008
                              0.103443     0.000000
                              0.036685     0.000000
   45.1 A     1  3d2+    105911.200000     0.000020
                          24974.572000     0.000129
                           8108.852700     0.000677
                           3150.520500     0.003052
                           1380.647900     0.011950
                            658.188950     0.039706
                            332.909040     0.108875
                            176.023220     0.231727
                             95.780704     0.354949
                             53.337287     0.336096
                             29.864821     0.140603
                             16.526778    -0.033742
                              9.155323    -0.064042
                              4.984876    -0.024095
                              2.636633    -0.002233
                              1.354062     0.000305
                              0.656031     0.000103
                              0.269853     0.000008
                              0.103443     0.000000
                              0.036685     0.000000
   46.1 A     1  3d1-    105911.200000     0.000020
                          24974.572000     0.000129
                           8108.852700     0.000677
                           3150.520500     0.003052
                           1380.647900     0.011950
                            658.188950     0.039706
                            332.909040     0.108875
                            176.023220     0.231727
                             95.780704     0.354949
                             53.337287     0.336096
                             29.864821     0.140603
                             16.526778    -0.033742
                              9.155323    -0.064042
                              4.984876    -0.024095
                              2.636633    -0.002233
                              1.354062     0.000305
                              0.656031     0.000103
                              0.269853     0.000008
                              0.103443     0.000000
                              0.036685     0.000000
   47.1 A     1  3d0     105911.200000    -0.000007
                          24974.572000    -0.000047
                           8108.852700    -0.000246
                           3150.520500    -0.001113
                           1380.647900    -0.004403
                            658.188950    -0.014782
                            332.909040    -0.041545
                            176.023220    -0.089264
                             95.780704    -0.132364
                             53.337287    -0.078125
                             29.864821     0.163137
                             16.526778     0.427766
                              9.155323     0.404323
                              4.984876     0.149842
                              2.636633     0.013528
                              1.354062    -0.001244
                              0.656031    -0.000625
                              0.269853    -0.000007
                              0.103443    -0.000015
                              0.036685     0.000003
   48.1 A     1  3d2-    105911.200000    -0.000007
                          24974.572000    -0.000047
                           8108.852700    -0.000246
                           3150.520500    -0.001113
                           1380.647900    -0.004403
                            658.188950    -0.014782
                            332.909040    -0.041545
                            176.023220    -0.089264
                             95.780704    -0.132364
                             53.337287    -0.078125
                             29.864821     0.163137
                             16.526778     0.427766
                              9.155323     0.404323
                              4.984876     0.149842
                              2.636633     0.013528
                              1.354062    -0.001244
                              0.656031    -0.000625
                              0.269853    -0.000007
                              0.103443    -0.000015
                              0.036685     0.000003
   49.1 A     1  3d1+    105911.200000    -0.000007
                          24974.572000    -0.000047
                           8108.852700    -0.000246
                           3150.520500    -0.001113
                           1380.647900    -0.004403
                            658.188950    -0.014782
                            332.909040    -0.041545
                            176.023220    -0.089264
                             95.780704    -0.132364
                             53.337287    -0.078125
                             29.864821     0.163137
                             16.526778     0.427766
                              9.155323     0.404323
                              4.984876     0.149842
                              2.636633     0.013528
                              1.354062    -0.001244
                              0.656031    -0.000625
                              0.269853    -0.000007
                              0.103443    -0.000015
                              0.036685     0.000003
   50.1 A     1  3d2+    105911.200000    -0.000007
                          24974.572000    -0.000047
                           8108.852700    -0.000246
                           3150.520500    -0.001113
                           1380.647900    -0.004403
                            658.188950    -0.014782
                            332.909040    -0.041545
                            176.023220    -0.089264
                             95.780704    -0.132364
                             53.337287    -0.078125
                             29.864821     0.163137
                             16.526778     0.427766
                              9.155323     0.404323
                              4.984876     0.149842
                              2.636633     0.013528
                              1.354062    -0.001244
                              0.656031    -0.000625
                              0.269853    -0.000007
                              0.103443    -0.000015
                              0.036685     0.000003
   51.1 A     1  3d1-    105911.200000    -0.000007
                          24974.572000    -0.000047
                           8108.852700    -0.000246
                           3150.520500    -0.001113
                           1380.647900    -0.004403
                            658.188950    -0.014782
                            332.909040    -0.041545
                            176.023220    -0.089264
                             95.780704    -0.132364
                             53.337287    -0.078125
                             29.864821     0.163137
                             16.526778     0.427766
                              9.155323     0.404323
                              4.984876     0.149842
                              2.636633     0.013528
                              1.354062    -0.001244
                              0.656031    -0.000625
                              0.269853    -0.000007
                              0.103443    -0.000015
                              0.036685     0.000003
   52.1 A     1  3d0     105911.200000     0.000004
                          24974.572000     0.000029
                           8108.852700     0.000151
                           3150.520500     0.000680
                           1380.647900     0.002694
                            658.188950     0.009015
                            332.909040     0.025311
                            176.023220     0.054175
                             95.780704     0.081018
                             53.337287     0.048855
                             29.864821    -0.090265
                             16.526778    -0.246113
                              9.155323    -0.206236
                              4.984876     0.172306
                              2.636633     0.505507
                              1.354062     0.395599
                              0.656031     0.111489
                              0.269853     0.006247
                              0.103443    -0.000029
                              0.036685    -0.000036
   53.1 A     1  3d2-    105911.200000     0.000004
                          24974.572000     0.000029
                           8108.852700     0.000151
                           3150.520500     0.000680
                           1380.647900     0.002694
                            658.188950     0.009015
                            332.909040     0.025311
                            176.023220     0.054175
                             95.780704     0.081018
                             53.337287     0.048855
                             29.864821    -0.090265
                             16.526778    -0.246113
                              9.155323    -0.206236
                              4.984876     0.172306
                              2.636633     0.505507
                              1.354062     0.395599
                              0.656031     0.111489
                              0.269853     0.006247
                              0.103443    -0.000029
                              0.036685    -0.000036
   54.1 A     1  3d1+    105911.200000     0.000004
                          24974.572000     0.000029
                           8108.852700     0.000151
                           3150.520500     0.000680
                           1380.647900     0.002694
                            658.188950     0.009015
                            332.909040     0.025311
                            176.023220     0.054175
                             95.780704     0.081018
                             53.337287     0.048855
                             29.864821    -0.090265
                             16.526778    -0.246113
                              9.155323    -0.206236
                              4.984876     0.172306
                              2.636633     0.505507
                              1.354062     0.395599
                              0.656031     0.111489
                              0.269853     0.006247
                              0.103443    -0.000029
                              0.036685    -0.000036
   55.1 A     1  3d2+    105911.200000     0.000004
                          24974.572000     0.000029
                           8108.852700     0.000151
                           3150.520500     0.000680
                           1380.647900     0.002694
                            658.188950     0.009015
                            332.909040     0.025311
                            176.023220     0.054175
                             95.780704     0.081018
                             53.337287     0.048855
                             29.864821    -0.090265
                             16.526778    -0.246113
                              9.155323    -0.206236
                              4.984876     0.172306
                              2.636633     0.505507
                              1.354062     0.395599
                              0.656031     0.111489
                              0.269853     0.006247
                              0.103443    -0.000029
                              0.036685    -0.000036
   56.1 A     1  3d1-    105911.200000     0.000004
                          24974.572000     0.000029
                           8108.852700     0.000151
                           3150.520500     0.000680
                           1380.647900     0.002694
                            658.188950     0.009015
                            332.909040     0.025311
                            176.023220     0.054175
                             95.780704     0.081018
                             53.337287     0.048855
                             29.864821    -0.090265
                             16.526778    -0.246113
                              9.155323    -0.206236
                              4.984876     0.172306
                              2.636633     0.505507
                              1.354062     0.395599
                              0.656031     0.111489
                              0.269853     0.006247
                              0.103443    -0.000029
                              0.036685    -0.000036
   57.1 A     1  3d0     105911.200000    -0.000001
                          24974.572000    -0.000008
                           8108.852700    -0.000042
                           3150.520500    -0.000189
                           1380.647900    -0.000746
                            658.188950    -0.002504
                            332.909040    -0.007016
                            176.023220    -0.015063
                             95.780704    -0.022420
                             53.337287    -0.013378
                             29.864821     0.026555
                             16.526778     0.070496
                              9.155323     0.058301
                              4.984876    -0.065834
                              2.636633    -0.177473
                              1.354062    -0.127085
                              0.656031     0.181760
                              0.269853     0.495490
                              0.103443     0.447072
                              0.036685     0.116353
   58.1 A     1  3d2-    105911.200000    -0.000001
                          24974.572000    -0.000008
                           8108.852700    -0.000042
                           3150.520500    -0.000189
                           1380.647900    -0.000746
                            658.188950    -0.002504
                            332.909040    -0.007016
                            176.023220    -0.015063
                             95.780704    -0.022420
                             53.337287    -0.013378
                             29.864821     0.026555
                             16.526778     0.070496
                              9.155323     0.058301
                              4.984876    -0.065834
                              2.636633    -0.177473
                              1.354062    -0.127085
                              0.656031     0.181760
                              0.269853     0.495490
                              0.103443     0.447072
                              0.036685     0.116353
   59.1 A     1  3d1+    105911.200000    -0.000001
                          24974.572000    -0.000008
                           8108.852700    -0.000042
                           3150.520500    -0.000189
                           1380.647900    -0.000746
                            658.188950    -0.002504
                            332.909040    -0.007016
                            176.023220    -0.015063
                             95.780704    -0.022420
                             53.337287    -0.013378
[...]
                                    1  7  px   0.82821    1 10  px   2.48847    1 10  py  -2.26657    1 10  pz   4.61195
                                    1  4  d2-  0.32053    1  4  d1- -0.63383    1  5  d1-  0.32676    1  8  d0  -0.48687
                                    1  8  d2-  0.49275    1  8  d1+ -0.42898    1  8  d2+  0.30311    1  8  d1- -0.76883
                                    2  5  s   -2.38504    2  4  py   0.54716    2  4  pz  -0.68752    3  5  s    1.27260
                                    4  5  s    1.40850    4  3  py  -0.29675    4  4  px   0.93891    4  4  py  -1.23253
                                    4  4  pz  -0.31154    5  3  s    0.72315    5  4  s    4.58297    6  5  s   -1.31970
                                    6  4  py  -0.33746    7  4  s   -0.85550    8  5  s    0.52567    8  4  px   0.42850
                                    8  4  py  -0.55692    9  3  s   -0.70169    9  4  s   -2.43421   10  5  s    1.98661
                                   10  4  px  -0.70421   10  4  py  -0.32705   11  5  s   -0.53216   11  4  py  -0.27009
                                   12  5  s   -0.58873   12  6  s   -2.16337   12  4  pz  -0.38819   12  5  px  -0.30731
                                   12  5  py   0.75952   12  5  pz  -0.49658   13  5  s    0.48600   14  3  s    0.56599
                                   14  4  s    3.27854
   95.1     0.00000     0.14266     1  6  s    1.00760    1  7  s    1.71482    1  8  s   -0.29217    1 11  s   -8.20715
                                    1  5  px  -0.91141    1  5  pz  -0.56917    1  6  px  -4.61140    1  6  py  -1.01679
                                    1  6  pz  -2.54788    1  7  px   1.18297    1  7  py   0.38080    1  7  pz   0.57416
                                    1  8  px  -0.32494    1 10  px   3.81084    1 10  py   4.45943    1 10  pz   1.17079
                                    1  4  d2- -0.27079    1  4  d1-  0.29307    1  8  d0   0.42046    1  8  d2- -0.64772
                                    1  8  d1+ -0.57491    1  8  d1-  0.38763    1  6  f1+ -0.29316    1  6  f2- -0.37078
                                    2  5  s    0.51480    3  5  s   -0.27749    4  5  s   -2.02305    4  4  px  -0.42488
                                    4  4  py   0.32623    5  3  s    0.57517    5  4  s   -0.28107    6  5  s   -2.34899
                                    6  4  py  -0.30261    7  3  s    0.53634    7  4  s    2.33321    8  4  s   -0.36600
                                    8  5  s   -1.03286    8  3  py   0.34172    8  4  px  -0.37331    8  4  py   0.81796
                                    8  4  pz  -0.47882    9  3  s    1.43863    9  4  s    5.51352    9  3  py   0.38795
                                   10  4  s    0.26146   10  5  s    2.10249   10  4  px  -0.71484   10  4  pz  -0.45021
                                   11  5  s   -1.65467   11  4  py  -0.39730   11  4  pz  -0.45741   12  5  s   -0.26154
                                   12  6  s    1.95589   12  4  py  -0.48357   12  5  px  -0.47142   12  5  py  -0.41267
                                   14  3  s    0.50631   14  4  s    1.21670
   96.1     0.00000     0.15868     1  6  s   -0.76386    1  7  s   -1.01089    1 11  s   10.34878    1  4  py  -0.27688
                                    1  5  px  -1.23603    1  5  py  -1.55333    1  5  pz  -0.67653    1  6  px  -1.81948
                                    1  6  py  -4.67511    1  6  pz  -2.41597    1  7  px  -0.86977    1  7  py   0.26974
                                    1 10  px   0.70363    1 10  py   2.43024    1 10  pz   2.08720    1  4  d1-  0.44311
                                    1  8  d0  -0.48371    1  8  d2+  0.25991    1  6  f2- -0.26270    2  5  s    1.45663
                                    2  4  py  -0.36869    2  4  pz   0.39141    3  5  s    1.98303    3  4  px  -0.40624
                                    3  4  py   0.36195    3  4  pz  -0.44607    4  4  s    0.27743    4  5  s    1.80624
                                    4  3  py   0.33850    4  4  py   0.82866    5  3  s   -1.44331    5  4  s   -3.82654
                                    5  3  py   0.36690    6  5  s   -3.50376    6  3  pz  -0.26200    6  4  px  -1.23470
                                    6  4  py  -0.84810    6  4  pz  -1.64374    7  3  s    0.40871    7  4  s   -0.71250
                                    7  3  pz   0.25315    8  4  s    0.27583    8  5  s    0.59313    9  3  s   -0.72615
                                    9  4  s   -2.54724   10  5  s    4.73745   10  4  py  -0.62485   10  4  pz  -0.81764
                                   11  5  s    1.53862   11  4  px   0.81855   11  4  py   0.59303   11  4  pz   0.70879
                                   12  5  s   -1.92992   12  6  s  -10.66789   12  4  py  -0.32329   12  5  px   1.22519
                                   12  5  py  -0.52215   12  5  pz   0.48225   12  3  d1+  0.27379   13  4  s    0.26594
                                   13  5  s    2.44227   13  4  px  -0.54432   13  4  py  -0.28103   13  4  pz   0.26043
                                   14  4  s   -1.69493
   97.1     0.00000     0.16881     1  4  s    0.56794    1  5  s    1.79835    1  6  s    6.48477    1  7  s    8.77874
                                    1 11  s   -7.31098    1  4  px  -0.59212    1  4  pz  -0.42647    1  5  px  -3.43567
                                    1  5  py  -0.98768    1  5  pz  -2.40586    1  6  px -11.83648    1  6  py  -3.14531
                                    1  6  pz  -7.51630    1  7  px   1.37654    1  7  pz   0.56974    1  8  px  -0.43755
                                    1 10  px   3.40682    1 10  py   0.81205    1 10  pz   1.73655    1  4  d2-  0.34869
                                    1  4  d1+  0.42537    1  4  d1-  0.27140    1  8  d0   0.47632    1  8  d2-  0.82963
                                    1  8  d1+  0.64903    1  8  d2+ -0.67631    2  5  s   -1.55170    2  4  px   0.62975
                                    2  4  py   0.28627    3  5  s   -2.37427    3  4  px   0.45632    3  4  py  -0.38469
                                    3  4  pz   0.46994    4  5  s   -1.30434    4  4  pz   0.47261    5  3  s    0.32661
                                    5  4  s    1.35350    6  5  s   -7.53973    6  3  px  -0.38148    6  3  py  -0.28669
                                    6  3  pz  -0.28915    6  4  px  -3.09336    6  4  py  -2.21050    6  4  pz  -2.78459
                                    7  3  s    0.37651    7  4  s   -2.00699    7  3  px   0.42437    7  3  pz   0.51615
                                    8  5  s   -2.12264    8  4  pz   0.60098    9  3  s    0.62785    9  4  s    1.15935
                                   10  5  s   -1.80364   10  4  px  -1.46577   10  4  py   0.50581   11  5  s   -2.61876
                                   11  4  px  -0.51919   11  4  py  -0.50882   11  4  pz  -0.81439   12  5  s    1.80337
                                   12  6  s   13.91317   12  4  px  -0.50922   12  5  px  -2.10272   12  5  py   0.43662
                                   12  5  pz  -0.55160   13  5  s   -2.55892   13  4  px   0.63006   13  4  py   0.29052
                                   13  4  pz  -0.26789   14  3  s    0.87171   14  4  s   -1.20262   14  3  px   0.45628
                                   14  3  py   0.33333   14  3  pz   0.41323
   98.1     0.00000     0.19359     1  4  s    0.60951    1  5  s    1.96906    1  6  s    7.69566    1  7  s   11.58496
                                    1  8  s   -1.06720    1  9  s   -0.57107    1 11  s   -4.30443    1  4  px   0.31191
                                    1  5  px   1.87328    1  5  py   0.89530    1  6  px   7.24718    1  6  py   2.38309
                                    1  6  pz   1.11272    1  7  px  -1.21918    1  7  pz  -0.36478    1  8  px   0.35692
                                    1 10  px  -1.56553    1 10  py  -1.45399    1 10  pz  -0.46704    1  4  d0  -0.31230
                                    1  4  d1+  0.79737    1  4  d2+  0.41513    1  5  d1+ -0.46152    1  8  d0  -1.41587
                                    1  8  d2- -1.04501    1  8  d1+  2.48874    1  8  d2+  1.46461    1  6  f0  -0.39055
                                    1  6  f3+  0.46926    1  6  f2- -0.41246    1  6  f2+  0.55101    2  5  s   -1.80762
                                    2  4  px   0.73828    2  4  pz  -0.73425    3  5  s    1.80337    3  4  px  -0.69642
                                    3  4  py   0.53803    3  4  pz  -0.40582    4  5  s   -1.14940    4  4  py  -0.39213
                                    4  4  pz   1.11020    5  4  s    0.51376    6  3  px  -0.26697    6  3  pz  -0.30225
                                    6  4  px  -0.61812    6  4  py  -0.27500    7  3  s   -0.39308    8  5  s    0.62705
                                    8  4  px  -0.58861    8  4  pz   0.75852    9  3  pz  -0.29420   10  5  s   -0.52938
                                   10  3  px   0.37919   10  4  px   0.40301   10  4  py   0.44050   10  4  pz   0.51787
                                   11  5  s    0.74667   11  4  px  -0.49589   11  4  py   0.50833   11  4  pz  -0.41708
                                   12  5  s   -0.57001   12  6  s  -12.54507   12  4  px   1.31146   12  4  py  -0.35851
                                   12  4  pz   0.31323   12  5  px   3.51055   12  5  py  -1.31034   12  5  pz   0.45704
                                   12  3  d2+ -0.37763   12  3  d1-  0.41630   13  5  s    2.42373   13  4  px  -0.98865
                                   14  3  s   -0.29349   14  4  s   -0.51304


 HOMO     88.1    -0.250433 =      -6.8146eV
 LUMO     89.1     0.073147 =       1.9904eV
 LUMO-HOMO         0.323580 =       8.8051eV

 Orbitals saved in record  2100.2


 **********************************************************************************************************************************
 DATASETS  * FILE   NREC   LENGTH (MB)   RECORD NAMES
              1      22       64.72       500      610      700      900      950      970     1000      129      960     1700   
                                          VAR    BASINP    GEOM    SYMINP    ZMAT    AOBASIS   BASIS     P2S    ABASIS    OPER   
                                         1101     1401     1411     1412     1650     1100     1400     1410     1200     1210   
                                          SR      EKINR    POTR     PVPR    MOLCAS      S      EKIN      POT      H0       H01  
                                         1080     1600   
                                         AOSYM     SMH  

              2       6       19.11       500      610      700     1000      520     2100   
                                          VAR    BASINP    GEOM     BASIS   MCVARS     RHF  

 PROGRAMS   *        TOTAL    HF-SCF       INT      FILE
 CPU TIMES  *      1492.46    656.86    835.35      0.02
 REAL TIME  *      1604.51 SEC
 DISK USED  *       114.99 MB (local),      275.29 GB (total)
 GA USED    *         0.01 MB       (max)       0.00 MB       (current)
 **********************************************************************************************************************************


 PROGRAM * CCSD (Closed-shell coupled cluster)     Authors: C. Hampel, H.-J. Werner, 1991, M. Deegan, P.J. Knowles, 1992


 Convergence thresholds:  THRVAR = 1.00D-08  THRDEN = 1.00D-06

 CCSD(T)     terms to be evaluated (factor= 1.000)


 Number of core orbitals:          52 (  52 )
 Number of closed-shell orbitals:  36 (  36 )
 Number of external orbitals:     583 ( 583 )

 Molecular orbitals read from record     2100.2  Type=RHF/CANONICAL  

 Number of N-1 electron functions:              36
 Number of N-2 electron functions:             666
 Number of singly external CSFs:             20988
 Number of doubly external CSFs:         220258566
 Total number of CSFs:                   220279555

 Length of J-op  integral file:               0.00 MB
 Length of K-op  integral file:              30.92 MB
 Length of 3-ext integral record:             0.00 MB

 For full I/O caching in triples, increase memory by 3126.01 Mwords to 8126.06 Mwords.

 Multipassing necessary in transformation. To avoid, increase memory by 1076.93 Mwords.

 Integral transformation finished. Total CPU:4652.77 sec, npass=  2  Memory used:4863.89 MW

 Reference energy:                 -28221.90150801

 MP2 singlet pair energy:              -1.56213790
 MP2 triplet pair energy:              -1.07931969
 MP2 correlation energy:               -2.64145759
 MP2 total energy:                 -28224.54296560

 SCS-MP2 correlation energy:           -2.54614218   (PS=  1.200000  PT=  0.333333)
 SCS-MP2 total energy:             -28224.44765019

 ITER.      SQ.NORM     CORR.ENERGY   TOTAL ENERGY   ENERGY CHANGE        DEN1      VAR(S)    VAR(P)  DIIS     TIME  TIME/IT
   1      1.64940803    -2.62128689-28224.52279490     0.02017070     0.12468917  0.42D-01  0.21D-01  1  1  9062.57  2917.29
   2      1.69697820    -2.60394319-28224.50545120     0.01734370    -0.07118840  0.87D-03  0.30D-02  2  2 12067.56  2975.10
   3      1.72426881    -2.60701451-28224.50852252    -0.00307132    -0.00771476  0.15D-02  0.27D-03  3  3 15021.31  2976.98
   4      1.73935677    -2.60489317-28224.50640118     0.00212134    -0.00534424  0.22D-03  0.45D-04  4  4 17969.08  2976.63
   5      1.74971154    -2.60416289-28224.50567089     0.00073029    -0.00239830  0.49D-04  0.66D-05  5  5 20982.16  2989.76
   6      1.75286148    -2.60397593-28224.50548394     0.00018695    -0.00029577  0.86D-05  0.23D-05  6  6 23929.99  2988.41
   7      1.75433347    -2.60382810-28224.50533611     0.00014783    -0.00003644  0.27D-05  0.40D-06  6  1 26917.50  2993.46
   8      1.75487102    -2.60379845-28224.50530646     0.00002965    -0.00007865  0.50D-06  0.13D-06  6  2 29858.62  2991.24
   9      1.75495718    -2.60380031-28224.50530832    -0.00000186     0.00001871  0.12D-06  0.33D-07  6  4 32835.06  2993.69
  10      1.75497511    -2.60380505-28224.50531306    -0.00000474     0.00001099  0.34D-07  0.77D-08  6  3 35775.09  2991.78
  11      1.75500185    -2.60380102-28224.50530903     0.00000403    -0.00001063  0.13D-07  0.34D-08  6  4 38735.69  2992.10
  12      1.75500953    -2.60380190-28224.50530991    -0.00000087    -0.00000121  0.31D-08  0.58D-09  6  5 41675.62  2990.65
  13      1.75500034    -2.60380363-28224.50531163    -0.00000173     0.00000428  0.80D-09  0.26D-09  6  1 44592.66  2987.64
  14      1.75500326    -2.60380300-28224.50531101     0.00000063    -0.00000093  0.22D-09  0.57D-10  6  6 47459.89  2981.56
  15      1.75500248    -2.60380343-28224.50531143    -0.00000043     0.00000063  0.66D-10  0.14D-10  6  2 50386.52  2980.13

 Norm of t1 vector:      0.26828868      S-energy:    -0.00000204      T1 diagnostic:  0.02235739
                                                                       D1 diagnostic:  0.08529316
                                                                       D2 diagnostic:  0.15379120 (internal)

 Largest off-diagonal element in interal  block of Fock matrix:  0.65D-05
 Largest off-diagonal element in external block of Fock matrix:  0.13D-04

 Block diagonalizing Fock operator

 Multipassing necessary in transformation. To avoid, increase memory by 1076.93 Mwords.

   CPU time for triples:   3636.25 sec for i =  1 -  5 / 36 (~   0.4 % done)
   CPU time for triples:   2615.27 sec for i =  6 -  6 / 36 (~   0.6 % done)
   CPU time for triples:   4007.02 sec for i =  7 -  7 / 36 (~   0.9 % done)
   CPU time for triples:   5601.69 sec for i =  8 -  8 / 36 (~   1.3 % done)
   CPU time for triples:   2571.13 sec for i =  9 -  9 / 36 (~   1.9 % done)
   CPU time for triples:  17566.14 sec for i = 10 - 20 / 36 (~  18.1 % done)
   CPU time for triples:   2437.68 sec for i = 21 - 21 / 36 (~  20.8 % done)
   CPU time for triples:  12233.73 sec for i = 22 - 25 / 36 (~  34.5 % done)
   CPU time for triples:   7013.72 sec for i = 26 - 26 / 36 (~  38.7 % done)
   CPU time for triples:  20619.01 sec for i = 27 - 28 / 36 (~  48.0 % done)
   CPU time for triples:   8528.96 sec for i = 29 - 30 / 36 (~  58.7 % done)
   CPU time for triples:   5978.35 sec for i = 31 - 31 / 36 (~  64.6 % done)
   CPU time for triples:   9626.20 sec for i = 32 - 32 / 36 (~  70.9 % done)
   CPU time for triples:   6174.33 sec for i = 33 - 33 / 36 (~  77.5 % done)
   CPU time for triples:  13483.30 sec for i = 34 - 34 / 36 (~  84.6 % done)
   CPU time for triples:   9848.07 sec for i = 35 - 35 / 36 (~  92.1 % done)
   CPU time for triples:  10228.25 sec for i = 36 - 36 / 36 (  100.0 % done)

 Total CPU time for triples: 142191.10 sec


 RESULTS
 =======

  Reference energy                   -28221.9015080079    
  CCSD singlet pair energy             -1.662151910274
  CCSD triplet pair energy             -0.941649473267
  CCSD correlation energy              -2.603803426554

  Triples (T) contribution             -0.129630952239
  Total correlation energy             -2.733434378793

  CCSD total energy                  -28224.5053114344    
  CCSD[T] energy                     -28224.6504825996    
  CCSD-T energy                      -28224.6300805750    
 !CCSD(T) total energy               -28224.6349423867    

 Timing summary (sec):

 STEP                 CPU(USER)    SYS     CPU(TOT)    WALL
 Transformation       9328.77    218.07   9546.84   9554.75
 CCSD iterations     45887.45    490.85  46378.30  44871.23
 Triples            142191.10   1132.08 143323.18 143278.93

 Program statistics:

 Available memory in ccsd:              4999994728
 Min. memory needed in ccsd:             488706660
 Max. memory used in ccsd:               698885046
 Max. memory used in cckext:             607356414 (15 integral passes)



 **********************************************************************************************************************************
 DATASETS  * FILE   NREC   LENGTH (MB)   RECORD NAMES
              1      23    30764.11       500      610      700      900      950      970     1000      129      960     1700   
                                          VAR    BASINP    GEOM    SYMINP    ZMAT    AOBASIS   BASIS     P2S    ABASIS    OPER   
                                         1101     1401     1411     1412     1650     1100     1400     1410     1200     1210   
                                          SR      EKINR    POTR     PVPR    MOLCAS      S      EKIN      POT      H0       H01  
                                         1080     1600     1380   
                                         AOSYM     SMH     JKOP   

              2       6       19.11       500      610      700     1000      520     2100   
                                          VAR    BASINP    GEOM     BASIS   MCVARS     RHF  

 PROGRAMS   *        TOTAL   CCSD(T)    HF-SCF       INT      FILE
 CPU TIMES  *    197406.89 195914.42    656.86    835.35      0.02
 REAL TIME  *    199325.41 SEC
 DISK USED  *        50.30 GB (local),      535.13 GB (total)
 SF USED    *        51.82 GB
 GA USED    *         0.01 MB       (max)       0.00 MB       (current)
 **********************************************************************************************************************************
 SETTING ENERGY_HF(1)   =    -28221.90150801  AU                              
 SETTING CORR_MP2(1)    =        -2.64145759  AU                              
 SETTING CORR_CCSDT(1)  =        -2.73343438  AU                              

 CCSD(T)/PA=CC-PVTZ-X2C,O=AUG-CC-PVTZ-X2C,H=AUG-CC-PVTZ-X2C,S=AUG-CC-PVTZ-X2C energy= -28224.634942386663

         CCSD(T)          HF-SCF
 -28224.63494239 -28221.90150801
 **********************************************************************************************************************************
 Molpro calculation terminated
