

 Parallel Execution: Process Information
 ==============================================================================
 Rank   Node Name                              NodeID   MyNodeRank  NodeMaster
    0   u-5-4.local                               0          0          0
    1   u-5-4.local                               0          1         -1
    2   u-5-4.local                               0          2         -1
    3   u-5-4.local                               0          3         -1
    4   u-5-4.local                               1          0          1
    5   u-5-4.local                               1          1         -1
    6   u-5-4.local                               1          2         -1
    7   u-5-4.local                               1          3         -1
 ==============================================================================


May use up to 31144MB of RAM as shared memory on node 0
May use up to 31250MB of RAM as shared memory on node 1

 *******************************************************************************
 *                                                                             *
 *  --------------------------------                                           *
 *   Amsterdam Modeling Suite (AMS)              2022.103                      *
 *  --------------------------------                                           *
 *                                               r104886 2022-06-17            *
 *                                                                             *
 *                                                                             *
 *                              =================                              *
 *                              |               |                              *
 *                              |     A M S     |                              *
 *                              |               |                              *
 *                              =================                              *
 *                                                                             *
 *                                                                             *
 *   Online information and documentation:  https://www.scm.com/support/       *
 *   E-mail:  support@scm.com   info@scm.com                                   *
 *                                                                             *
 *   Scientific publications using AMS results must be properly referenced     *
 *   See the User Manuals (or the web site) for recommended citations          *
 *   The terms and conditions of the End User License Agreement apply to       *
 *   the use of AMS, https://www.scm.com/license-terms/                        *
 *                                                                             *
 **********************  x86_64_linux_intel / intelmpi  ************************
 
 Licensed to: Dr. Val?rie Vallet / Laboratoire PhLAM UMR 8523 / Villeneuve d'Ascq Cedex / FRANCE 2023-02-21 11:49:39
 SCM User ID: u10325
  
 AMS 2022.103  RunTime: Feb22-2023 14:33:59  ShM Nodes: 2  Procs: 8

 AMS jobname: ams
 AMS jobid  : 1734678495

 Start   directory: /home/shaaban/ams/PhD/oxalate/pa_oh4_c2o4/gp/B21/
 Results directory: /home/shaaban/ams/PhD/oxalate/pa_oh4_c2o4/gp/B21/pa_oh4_c2o4.SR.b3lyp.tz2p.opt-freq-B21.results/
 Scratch directory: /state/partition1/shaaban/929325.phlam-s-sakura/amstmp_ams_kid0.1734678495/


 Communication costs MPI_COMM_WORLD:      1.671 usec per message,   0.0057 usec per 8-byte item
 Communication costs for intra-node:      0.859 usec per message,   0.0033 usec per 8-byte item

 RNG seed: 1884509734 142528492 1056985219 -503462079 -722382415 -2055424033 -1416616416 94494914



                      ************************************************************************
                      *  ADF 2022.103  RunTime: Feb22-2023 14:34:00  ShM Nodes: 2  Procs: 8  *
                      ************************************************************************
  
       ***************************
       *  GEOMETRY OPTIMIZATION  *
       ***************************

Optimization Method                    Quasi Newton
Optimization Coordinates               Delocalized Coordinates
Optimize lattice                       F
 
 ------------------------------------------------------
 Convergence criteria (Hartree,Angstrom)
 ------------------------------------------------------
 Maximum gradient               0.000100000000
 Maximum rms gradient           0.000066666667
 Maximum step allowed           0.001000000000
 Maximum rms step allowed       0.000666666667
 Maximum energy change allowe   0.000015000000
 Maximum stress energy allowe   0.000500000000
 
Initial model Hessian                  Automatic Hessian
 
------------------------------------
Quasi-Newton Optimizer Parameters
------------------------------------
Hessian Update Method                  BFGS
Maximum number of steps                  250
First GDIIS cycle                          0
Maximum GDIIS vectors                      0
Trust radius (bohr)                        0.200000
Trust radius varies                        T
Constraints converged at all steps         T
Use projector                              T
 
 Rigid motions settings for: old optimizer
 Atomic rotations (x,y,z):     T T T
 Atomic translations (x,y,z):  T T T
 Tolerance:                   1.000000000000000E-006
 
--------
Geometry
--------
Formula: C2H4O8Pa
Atoms
  Index Symbol   x (angstrom)   y (angstrom)   z (angstrom)
      1     Pa     0.32966179    -0.04088964     0.03021016
      2      O     1.09267423     1.55606841    -1.08252874
      3      H     1.50298618     2.08013131    -1.77366298
      4      O    -1.37454446     1.10762780     0.51432163
      5      H    -1.83104612     1.94929346     0.45068077
      6      O     0.30067347    -1.24838048    -1.69917249
      7      H     0.15840846    -2.09238006    -2.13223594
      8      O    -0.39458287    -1.63006067     1.17650163
      9      H    -0.87991524    -2.17839523     1.79625615
     10      O     2.58922195     0.33001323    -0.00010381
     11      O     2.17760109    -1.39297447    -0.00275908
     12      C     3.94959455     0.08098505    -0.21775340
     13      C     3.72538716    -1.42969869    -0.41565659
     14      O     5.09160521     0.44342967    -0.28442842
     15      O     4.75429433    -2.03446247    -0.54059985
 
Total System Charge            -1.00000
Bonding info available!
 
 
----------------
ADF Engine Input
----------------
 
 Basis
 Type TZ2P
 Core None
 End
 XC
 Hybrid B3LYP
 End
 NumericalQuality Good
 

 Title: *** (NO TITLE) ***

 Using automatic Hessian for delocalized coordinates.
 *** GO1_GOStep1 ***



 ======================
 RI Hartree-Fock Scheme
 ======================
  
 Fit Set Quality     : GOOD
 Threshold Quality   : GOOD
 Integration Quality : GOOD
 Response Quality    : DEFAULT
 Is Range Separated  :  F
 
 RIHartreeFock Dependency: number of modified vectors:           5
  
 Hartree-Fock exchange energy:   -543.925303389807     

 Energy gradients wrt nuclear displacements
 ==========================================

     Atom      Cartesian (a.u./angstrom)
                 X         Y         Z
 ----------------------------------------
     1 Pa   -0.157369  0.058345  0.064640
     2 O     0.080737 -0.062433  0.051635
     3 H    -0.005517  0.007895 -0.006030
     4 O     0.038664 -0.024990 -0.013494
     5 H    -0.001954  0.001814  0.001767
     6 O     0.055807 -0.012912  0.039065
     7 H    -0.005011 -0.003730 -0.009739
     8 O     0.026194  0.019053 -0.039724
     9 H    -0.001575 -0.000059  0.003821
    10 O    -0.299448 -0.389647 -0.057646
    11 O    -0.067040  0.405322  0.018637
    12 C     0.209447  0.103223  0.013881
    13 C     0.035255 -0.101057 -0.046330
    14 O     0.004855 -0.106566 -0.024003
    15 O     0.086956  0.105741  0.003519
 ----------------------------------------
 Mulliken charges used for AMS results%charges...
 
----------------------------------------------------------------------
Geometry Convergence after Step   1       (Hartree/Angstrom,Angstrom)
----------------------------------------------------------------------
current energy                               -4.33207563 Hartree
energy change                      -4.33207563     0.00001500    F
constrained gradient max            0.40532071     0.00010000    F
constrained gradient rms            0.11239119     0.00006667    F
gradient max                        0.40532071
gradient rms                        0.11239119
cart. step max                      0.07004916     0.00100000    F
cart. step rms                      0.02428829     0.00066667    F
 
 
--------
Geometry
--------
Formula: C2H4O8Pa
Atoms
  Index Symbol   x (angstrom)   y (angstrom)   z (angstrom)
      1     Pa     0.35909114    -0.04988965     0.02347205
      2      O     1.05327265     1.57613835    -1.10448166
      3      H     1.43293701     2.11048431    -1.80371451
      4      O    -1.34365053     1.11127992     0.51602449
      5      H    -1.79472972     1.95553047     0.45413336
      6      O     0.29594682    -1.24617294    -1.71594262
      7      H     0.14165921    -2.08668943    -2.14846394
      8      O    -0.37819536    -1.64020083     1.17312293
      9      H    -0.86652199    -2.18635048     1.79157188
     10      O     2.62288748     0.34807843     0.01117642
     11      O     2.20018217    -1.42141134     0.00381844
     12      C     3.94720459     0.08223536    -0.20599481
     13      C     3.72363456    -1.44445762    -0.40179568
     14      O     5.07899184     0.49031094    -0.26037438
     15      O     4.71930984    -2.09857828    -0.51348296
 
Total System Charge            -1.00000
Bonding info available!
 
 *** GO1_GOStep2 ***



 ======================
 RI Hartree-Fock Scheme
 ======================
  
 Fit Set Quality     : GOOD
 Threshold Quality   : GOOD
 Integration Quality : GOOD
 Response Quality    : DEFAULT
 Is Range Separated  :  F
 
 RIHartreeFock Dependency: number of modified vectors:           5
  
 Hartree-Fock exchange energy:   -543.943063425012     

 Energy gradients wrt nuclear displacements
 ==========================================

     Atom      Cartesian (a.u./angstrom)
                 X         Y         Z
 ----------------------------------------
     1 Pa   -0.160931  0.059451  0.064286
     2 O     0.071177 -0.046142  0.039769
     3 H    -0.006301  0.006737 -0.004002
     4 O     0.032278 -0.017830 -0.013951
     5 H    -0.002375  0.001183  0.002380
     6 O     0.051102 -0.018097  0.030879
     7 H    -0.004764 -0.000948 -0.008229
     8 O     0.023578  0.012038 -0.033967
     9 H    -0.001160  0.000183  0.003133
    10 O    -0.256271 -0.369358 -0.052061
    11 O    -0.076668  0.369201  0.028334
    12 C     0.183719  0.098543  0.015585
    13 C     0.058714 -0.100908 -0.057787
    14 O     0.013754 -0.082404 -0.020206
    15 O     0.074146  0.088352  0.005838
 ----------------------------------------
 Mulliken charges used for AMS results%charges...

 dE(predicted):    -0.49269E-01, dE(actual):    -0.52252E-01, Trust radius:    0.400000, all in a.u.
 
----------------------------------------------------------------------
Geometry Convergence after Step   2       (Hartree/Angstrom,Angstrom)
----------------------------------------------------------------------
current energy                               -4.38432778 Hartree
energy change                      -0.05225215     0.00001500    F
constrained gradient max            0.36936041     0.00010000    F
constrained gradient rms            0.10317859     0.00006667    F
gradient max                        0.36936041
gradient rms                        0.10317859
cart. step max                      0.09432892     0.00100000    F
cart. step rms                      0.04054055     0.00066667    F
 
 
--------
Geometry
--------
Formula: C2H4O8Pa
Atoms
  Index Symbol   x (angstrom)   y (angstrom)   z (angstrom)
      1     Pa     0.41851789    -0.06925907     0.01038130
      2      O     1.00524018     1.59900000    -1.13575993
      3      H     1.33860809     2.14551463    -1.84725015
      4      O    -1.28217033     1.11292264     0.51936135
      5      H    -1.72125082     1.96272733     0.45947697
      6      O     0.29635373    -1.24275721    -1.74462548
      7      H     0.12110040    -2.07865270    -2.17454865
      8      O    -0.34396072    -1.66138811     1.16502729
      9      H    -0.83876969    -2.20377211     1.78018119
     10      O     2.67841351     0.40192243     0.03288346
     11      O     2.24242450    -1.47305636     0.01650029
     12      C     3.92042656     0.09432070    -0.18932265
     13      C     3.69301807    -1.45717815    -0.37067599
     14      O     5.03438449     0.55896748    -0.23360657
     15      O     4.62968386    -2.18900428    -0.46895342
 
Total System Charge            -1.00000
Bonding info available!
 
 *** GO1_GOStep3 ***



 ======================
 RI Hartree-Fock Scheme
 ======================
  
 Fit Set Quality     : GOOD
 Threshold Quality   : GOOD
 Integration Quality : GOOD
 Response Quality    : DEFAULT
 Is Range Separated  :  F
 
 RIHartreeFock Dependency: number of modified vectors:           5
  
 Hartree-Fock exchange energy:   -544.006760603243     

 Energy gradients wrt nuclear displacements
 ==========================================

     Atom      Cartesian (a.u./angstrom)
                 X         Y         Z
 ----------------------------------------
     1 Pa   -0.150015  0.054376  0.059666
     2 O     0.058584 -0.025760  0.026520
     3 H    -0.006950  0.005032 -0.001384
     4 O     0.021857 -0.005719 -0.014824
     5 H    -0.003000 -0.000086  0.003414
     6 O     0.042483 -0.023125  0.019368
     7 H    -0.004220  0.002384 -0.006034
     8 O     0.018236  0.001223 -0.024341
     9 H    -0.000481  0.000514  0.002023
    10 O    -0.136726 -0.306561 -0.051977
    11 O    -0.088293  0.279044  0.038846
    12 C     0.105225  0.101771  0.020938
    13 C     0.090604 -0.095212 -0.068648
    14 O     0.006059 -0.057271 -0.013113
    15 O     0.046638  0.069390  0.009546
 ----------------------------------------
 Mulliken charges used for AMS results%charges...

 dE(predicted):    -0.89473E-01, dE(actual):    -0.87534E-01, Trust radius:    0.800000, all in a.u.
 
----------------------------------------------------------------------
Geometry Convergence after Step   3       (Hartree/Angstrom,Angstrom)
----------------------------------------------------------------------
current energy                               -4.47186222 Hartree
energy change                      -0.08753445     0.00001500    F
constrained gradient max            0.30656665     0.00010000    F
constrained gradient rms            0.08101064     0.00006667    F
gradient max                        0.30656665
gradient rms                        0.08101064
cart. step max                      0.21054466     0.00100000    F
cart. step rms                      0.07850961     0.00066667    F
 
 
--------
Geometry
--------
Formula: C2H4O8Pa
Atoms
  Index Symbol   x (angstrom)   y (angstrom)   z (angstrom)
      1     Pa     0.53693936    -0.09589758    -0.01983291
      2      O     0.89707235     1.62198088    -1.21035584
      3      H     1.13713479     2.17450635    -1.95284655
      4      O    -1.17131092     1.08801444     0.53752811
      5      H    -1.59452893     1.94521108     0.48485369
      6      O     0.30337876    -1.21041168    -1.80228636
      7      H     0.09324524    -2.03989735    -2.22756392
      8      O    -0.26871502    -1.68630993     1.14099331
      9      H    -0.77632856    -2.22225297     1.74964296
     10      O     2.76663012     0.53419176     0.09125799
     11      O     2.33012226    -1.53255201     0.03668633
     12      C     3.89766178     0.11277813    -0.14432362
     13      C     3.61622250    -1.46393927    -0.28842513
     14      O     5.00535677     0.62480253    -0.18197172
     15      O     4.41913920    -2.34991715    -0.39428732
 
Total System Charge            -1.00000
Bonding info available!
 
 *** GO1_GOStep4 ***



 ======================
 RI Hartree-Fock Scheme
 ======================
  
 Fit Set Quality     : GOOD
 Threshold Quality   : GOOD
 Integration Quality : GOOD
 Response Quality    : DEFAULT
 Is Range Separated  :  F
 
 RIHartreeFock Dependency: number of modified vectors:           6
  
 Hartree-Fock exchange energy:   -544.118772426629     

 Energy gradients wrt nuclear displacements
 ==========================================

     Atom      Cartesian (a.u./angstrom)
                 X         Y         Z
 ----------------------------------------
     1 Pa   -0.090226  0.026468  0.043357
     2 O     0.030671 -0.003159  0.011557
     3 H    -0.006294  0.003324  0.001232
     4 O     0.009917  0.009282 -0.018655
     5 H    -0.004037 -0.001700  0.005231
     6 O     0.026180 -0.019370  0.008057
     7 H    -0.003177  0.004340 -0.003999
     8 O     0.008047 -0.009090 -0.012138
     9 H     0.000473  0.000633  0.000809
    10 O     0.063649 -0.205608 -0.053425
    11 O     0.001381  0.133849  0.024245
    12 C    -0.077871  0.098660  0.028435
    13 C     0.040400 -0.048539 -0.050825
    14 O     0.009055 -0.014045 -0.001225
    15 O    -0.008168  0.024954  0.017345
 ----------------------------------------
 Mulliken charges used for AMS results%charges...

 dE(predicted):    -0.11227E+00, dE(actual):    -0.99988E-01, Trust radius:    1.000000, all in a.u.
 
----------------------------------------------------------------------
Geometry Convergence after Step   4       (Hartree/Angstrom,Angstrom)
----------------------------------------------------------------------
current energy                               -4.57185046 Hartree
energy change                      -0.09998824     0.00001500    F
constrained gradient max            0.20559991     0.00010000    F
constrained gradient rms            0.04854246     0.00006667    F
gradient max                        0.20559991
gradient rms                        0.04854246
cart. step max                      0.21265911     0.00100000    F
cart. step rms                      0.08682016     0.00066667    F
 
 
--------
Geometry
--------
Formula: C2H4O8Pa
Atoms
  Index Symbol   x (angstrom)   y (angstrom)   z (angstrom)
      1     Pa     0.62686104    -0.08666766    -0.07362213
      2      O     0.78112508     1.59161061    -1.37126204
      3      H     0.94027490     2.09969175    -2.16550566
      4      O    -1.10108816     1.02516012     0.59354584
      5      H    -1.52716168     1.88193434     0.57017988
      6      O     0.26438243    -1.14978550    -1.86493880
      7      H     0.02232352    -1.97885672    -2.27490833
      8      O    -0.20669735    -1.64348462     1.12639870
      9      H    -0.72268132    -2.15982322     1.74440696
     10      O     2.81633660     0.65750851     0.21187994
     11      O     2.37774077    -1.54657740     0.00231365
     12      C     3.94864744     0.09358719     0.02366743
     13      C     3.60348030    -1.46674646    -0.20060177
     14      O     5.06286652     0.59713934    -0.00569224
     15      O     4.30560963    -2.41438306    -0.49679240
 
Total System Charge            -1.00000
Bonding info available!
 
 *** GO1_GOStep5 ***



 ======================
 RI Hartree-Fock Scheme
 ======================
  
 Fit Set Quality     : GOOD
 Threshold Quality   : GOOD
 Integration Quality : GOOD
 Response Quality    : DEFAULT
 Is Range Separated  :  F
 
 RIHartreeFock Dependency: number of modified vectors:           5
  
 Hartree-Fock exchange energy:   -544.116342994157     

 Energy gradients wrt nuclear displacements
 ==========================================

     Atom      Cartesian (a.u./angstrom)
                 X         Y         Z
 ----------------------------------------
     1 Pa   -0.039451  0.008921  0.026560
     2 O     0.007607 -0.000323 -0.001664
     3 H    -0.003835  0.003520  0.002057
     4 O     0.002108  0.006224 -0.017319
     5 H    -0.003694 -0.002779  0.006355
     6 O     0.017305 -0.007487  0.005929
     7 H    -0.003121  0.004400 -0.003902
     8 O    -0.001839 -0.008388 -0.004932
     9 H     0.001012 -0.000606  0.000702
    10 O     0.017718 -0.086665 -0.026435
    11 O     0.133791  0.067337 -0.008401
    12 C    -0.044425  0.033050  0.014518
    13 C    -0.067309 -0.011321  0.007566
    14 O     0.022331  0.009091 -0.003474
    15 O    -0.038197 -0.014975  0.002440
 ----------------------------------------
 Mulliken charges used for AMS results%charges...

 dE(predicted):    -0.38123E-01, dE(actual):    -0.33572E-01, Trust radius:    1.000000, all in a.u.
 
----------------------------------------------------------------------
Geometry Convergence after Step   5       (Hartree/Angstrom,Angstrom)
----------------------------------------------------------------------
current energy                               -4.60542200 Hartree
energy change                      -0.03357154     0.00001500    F
constrained gradient max            0.13380906     0.00010000    F
constrained gradient rms            0.03150911     0.00006667    F
gradient max                        0.13380906
gradient rms                        0.03150911
cart. step max                      0.21333429     0.00100000    F
cart. step rms                      0.07635082     0.00066667    F
 
 
--------
Geometry
--------
Formula: C2H4O8Pa
Atoms
  Index Symbol   x (angstrom)   y (angstrom)   z (angstrom)
      1     Pa     0.66700419    -0.08775814    -0.14069387
      2      O     0.73277139     1.54657364    -1.50185808
      3      H     0.85637508     2.01050724    -2.32913411
      4      O    -1.03338925     0.98396011     0.65908305
      5      H    -1.44677502     1.84753516     0.66632566
      6      O     0.16398718    -1.11039584    -1.92193229
      7      H    -0.11503400    -1.93977147    -2.30915571
      8      O    -0.18121360    -1.58526956     1.12431045
      9      H    -0.69877269    -2.06764952     1.76766139
     10      O     2.81276259     0.67316409     0.31777786
     11      O     2.37237231    -1.59168365    -0.10931060
     12      C     3.94420076     0.06067153     0.13347016
     13      C     3.61963104    -1.46783084    -0.24881199
     14      O     5.04879400     0.56364412     0.20764205
     15      O     4.44930573    -2.33538964    -0.49630493
 
Total System Charge            -1.00000
Bonding info available!
 
 *** GO1_GOStep6 ***



 ======================
 RI Hartree-Fock Scheme
 ======================
  
 Fit Set Quality     : GOOD
 Threshold Quality   : GOOD
 Integration Quality : GOOD
 Response Quality    : DEFAULT
 Is Range Separated  :  F
 
 RIHartreeFock Dependency: number of modified vectors:           5
  
 Hartree-Fock exchange energy:   -544.086131381152     

 Energy gradients wrt nuclear displacements
 ==========================================

     Atom      Cartesian (a.u./angstrom)
                 X         Y         Z
 ----------------------------------------
     1 Pa   -0.010764  0.002765  0.008652
     2 O    -0.003139 -0.005807 -0.007453
     3 H    -0.001724  0.003886  0.001789
     4 O    -0.000292 -0.002656 -0.011909
     5 H    -0.003481 -0.003359  0.006775
     6 O     0.015464  0.003503  0.008090
     7 H    -0.003297  0.003653 -0.004072
     8 O    -0.010044 -0.001649  0.000643
     9 H     0.001345 -0.002064  0.000487
    10 O     0.019366 -0.038557 -0.017653
    11 O     0.070393  0.063764  0.022396
    12 C    -0.019262  0.002763  0.016346
    13 C    -0.078486 -0.012722 -0.024704
    14 O     0.006597  0.013849 -0.001171
    15 O     0.017324 -0.027368  0.001782
 ----------------------------------------
 Mulliken charges used for AMS results%charges...
 Rebuilding optimization coordinates

 dE(predicted):    -0.19050E-01, dE(actual):    -0.16422E-01, Trust radius:    1.000000, all in a.u.
 
----------------------------------------------------------------------
Geometry Convergence after Step   6       (Hartree/Angstrom,Angstrom)
----------------------------------------------------------------------
current energy                               -4.62184439 Hartree
energy change                      -0.01642239     0.00001500    F
constrained gradient max            0.07848230     0.00010000    F
constrained gradient rms            0.02189259     0.00006667    F
gradient max                        0.07848230
gradient rms                        0.02189259
cart. step max                      0.21116086     0.00100000    F
cart. step rms                      0.07730500     0.00066667    F
 
 
--------
Geometry
--------
Formula: C2H4O8Pa
Atoms
  Index Symbol   x (angstrom)   y (angstrom)   z (angstrom)
      1     Pa     0.68574049    -0.11822789    -0.22189200
      2      O     0.74095047     1.50660849    -1.59523737
      3      H     0.86051017     1.93466275    -2.44232967
      4      O    -0.94949012     0.96259531     0.70166953
      5      H    -1.31817015     1.84722520     0.70937960
      6      O     0.02807795    -1.11321698    -1.97467963
      7      H    -0.28841505    -1.95019762    -2.31596207
      8      O    -0.14267766    -1.55257533     1.12304418
      9      H    -0.65002603    -1.99355036     1.80250463
     10      O     2.75357702     0.65033025     0.44309819
     11      O     2.36006772    -1.66003365    -0.25554011
     12      C     3.91479785     0.06190927     0.22550874
     13      C     3.64983907    -1.44366992    -0.22808108
     14      O     4.99825759     0.55774102     0.41880291
     15      O     4.54898042    -2.18929331    -0.57121683
 
Total System Charge            -1.00000
Bonding info available!
 
 *** GO1_GOStep7 ***



 ======================
 RI Hartree-Fock Scheme
 ======================
  
 Fit Set Quality     : GOOD
 Threshold Quality   : GOOD
 Integration Quality : GOOD
 Response Quality    : DEFAULT
 Is Range Separated  :  F
 
 RIHartreeFock Dependency: number of modified vectors:           5
  
 Hartree-Fock exchange energy:   -544.059004661365     

 Energy gradients wrt nuclear displacements
 ==========================================

     Atom      Cartesian (a.u./angstrom)
                 X         Y         Z
 ----------------------------------------
     1 Pa    0.006093  0.003976 -0.012004
     2 O    -0.008617 -0.008569 -0.005685
     3 H    -0.000328  0.003239  0.001838
     4 O     0.000859 -0.009090 -0.006836
     5 H    -0.004025 -0.002764  0.007080
     6 O     0.015515  0.008688  0.008960
     7 H    -0.003470  0.002787 -0.003384
     8 O    -0.013448  0.005366  0.005468
     9 H     0.001872 -0.003053 -0.000328
    10 O     0.001075 -0.014949  0.000913
    11 O    -0.022161  0.026537  0.014393
    12 C     0.025427  0.005717 -0.028192
    13 C    -0.010351 -0.018081  0.021672
    14 O    -0.007443  0.005830  0.009501
    15 O     0.019005 -0.005634 -0.013396
 ----------------------------------------
 Mulliken charges used for AMS results%charges...

 dE(predicted):    -0.15788E-01, dE(actual):    -0.12010E-01, Trust radius:    1.000000, all in a.u.
 
----------------------------------------------------------------------
Geometry Convergence after Step   7       (Hartree/Angstrom,Angstrom)
----------------------------------------------------------------------
current energy                               -4.63385466 Hartree
energy change                      -0.01201027     0.00001500    F
constrained gradient max            0.02823519     0.00010000    F
constrained gradient rms            0.01157869     0.00006667    F
gradient max                        0.02823519
gradient rms                        0.01157869
cart. step max                      0.17024116     0.00100000    F
cart. step rms                      0.07325743     0.00066667    F
 
 
--------
Geometry
--------
Formula: C2H4O8Pa
Atoms
  Index Symbol   x (angstrom)   y (angstrom)   z (angstrom)
      1     Pa     0.68146629    -0.15250362    -0.27170062
      2      O     0.77028524     1.48508538    -1.63236990
      3      H     0.90366977     1.89686125    -2.48547503
      4      O    -0.87670796     1.00335572     0.70379508
      5      H    -1.19858496     1.90572955     0.66160168
      6      O    -0.07591946    -1.16566998    -1.98308569
      7      H    -0.39704639    -2.01893145    -2.27668247
      8      O    -0.07436373    -1.56506850     1.13547273
      9      H    -0.55591195    -1.98381749     1.84660182
     10      O     2.67907187     0.65150151     0.54343384
     11      O     2.38097627    -1.65183296    -0.42192220
     12      C     3.83471182     0.02011779     0.39553164
     13      C     3.63371114    -1.37105112    -0.35282370
     14      O     4.91449781     0.52561412     0.58904407
     15      O     4.57216397    -2.07908298    -0.63235224
 
Total System Charge            -1.00000
Bonding info available!
 
 *** GO1_GOStep8 ***



 ======================
 RI Hartree-Fock Scheme
 ======================
  
 Fit Set Quality     : GOOD
 Threshold Quality   : GOOD
 Integration Quality : GOOD
 Response Quality    : DEFAULT
 Is Range Separated  :  F
 
 RIHartreeFock Dependency: number of modified vectors:           5
  
 Hartree-Fock exchange energy:   -544.079238949735     

 Energy gradients wrt nuclear displacements
 ==========================================

     Atom      Cartesian (a.u./angstrom)
                 X         Y         Z
 ----------------------------------------
     1 Pa    0.015076 -0.008710 -0.019871
     2 O    -0.009112 -0.003990 -0.002308
     3 H    -0.000138  0.002389  0.001972
     4 O     0.000932 -0.003422 -0.003970
     5 H    -0.004198 -0.001346  0.006473
     6 O     0.015242  0.005855  0.006004
     7 H    -0.002891  0.002554 -0.001863
     8 O    -0.011736  0.004551  0.007939
     9 H     0.002005 -0.002775 -0.001310
    10 O     0.005641  0.017011 -0.013413
    11 O     0.021267  0.014587  0.033947
    12 C     0.009582 -0.038085  0.049094
    13 C    -0.028318 -0.004864 -0.064213
    14 O    -0.007962  0.013906 -0.016076
    15 O    -0.005391  0.002339  0.017598
 ----------------------------------------
 Mulliken charges used for AMS results%charges...

 dE(predicted):    -0.72997E-02, dE(actual):    -0.52309E-02, Trust radius:    1.000000, all in a.u.
 
----------------------------------------------------------------------
Geometry Convergence after Step   8       (Hartree/Angstrom,Angstrom)
----------------------------------------------------------------------
current energy                               -4.63908554 Hartree
energy change                      -0.00523088     0.00001500    F
constrained gradient max            0.06426765     0.00010000    F
constrained gradient rms            0.01734413     0.00006667    F
gradient max                        0.06426765
gradient rms                        0.01734413
cart. step max                      0.21561327     0.00100000    F
cart. step rms                      0.07050857     0.00066667    F
 
 
--------
Geometry
--------
Formula: C2H4O8Pa
Atoms
  Index Symbol   x (angstrom)   y (angstrom)   z (angstrom)
      1     Pa     0.68633643    -0.17527746    -0.32316211
      2      O     0.79202360     1.45626136    -1.69313925
      3      H     0.92832393     1.83725024    -2.56032209
      4      O    -0.80278114     1.01592277     0.72213763
      5      H    -1.08953986     1.92766590     0.63732285
      6      O    -0.20678617    -1.17285298    -1.98774992
      7      H    -0.54008242    -2.03537207    -2.23932122
      8      O     0.00279237    -1.56985070     1.13390151
      9      H    -0.45151262    -1.96654474     1.87493294
     10      O     2.60138663     0.62983775     0.63486692
     11      O     2.39817270    -1.64783216    -0.60571063
     12      C     3.77227155     0.02430433     0.45063818
     13      C     3.64084692    -1.32142191    -0.38374609
     14      O     4.83621892     0.46992528     0.80465734
     15      O     4.62434888    -1.97170838    -0.64623702
 
Total System Charge            -1.00000
Bonding info available!
 
 *** GO1_GOStep9 ***



 ======================
 RI Hartree-Fock Scheme
 ======================
  
 Fit Set Quality     : GOOD
 Threshold Quality   : GOOD
 Integration Quality : GOOD
 Response Quality    : DEFAULT
 Is Range Separated  :  F
 
 RIHartreeFock Dependency: number of modified vectors:           5
  
 Hartree-Fock exchange energy:   -544.065013339395     

 Energy gradients wrt nuclear displacements
 ==========================================

     Atom      Cartesian (a.u./angstrom)
                 X         Y         Z
 ----------------------------------------
     1 Pa    0.026823 -0.009125 -0.023459
     2 O    -0.010795 -0.004051 -0.001186
     3 H     0.000541  0.002072  0.001647
     4 O     0.001194 -0.002562 -0.000185
     5 H    -0.003671 -0.000788  0.005646
     6 O     0.013259  0.006546  0.003511
     7 H    -0.002069  0.001975 -0.001319
     8 O    -0.010141  0.006305  0.009777
     9 H     0.001806 -0.002968 -0.001749
    10 O    -0.008478  0.025141  0.005024
    11 O    -0.006110 -0.008613  0.019055
    12 C     0.014948 -0.026741  0.012730
    13 C    -0.010881  0.001727 -0.038047
    14 O    -0.003971  0.008121 -0.003999
    15 O    -0.002455  0.002960  0.012554
 ----------------------------------------
 Mulliken charges used for AMS results%charges...

 dE(predicted):    -0.91674E-02, dE(actual):    -0.79903E-02, Trust radius:    1.000000, all in a.u.
 
----------------------------------------------------------------------
Geometry Convergence after Step   9       (Hartree/Angstrom,Angstrom)
----------------------------------------------------------------------
current energy                               -4.64707585 Hartree
energy change                      -0.00799031     0.00001500    F
constrained gradient max            0.03810524     0.00010000    F
constrained gradient rms            0.01172492     0.00006667    F
gradient max                        0.03810524
gradient rms                        0.01172492
cart. step max                      0.21165446     0.00100000    F
cart. step rms                      0.08741333     0.00066667    F
 
 
--------
Geometry
--------
Formula: C2H4O8Pa
Atoms
  Index Symbol   x (angstrom)   y (angstrom)   z (angstrom)
      1     Pa     0.66823780    -0.18817571    -0.33453720
      2      O     0.88986446     1.43520374    -1.70644779
      3      H     1.05932799     1.77361406    -2.58609278
      4      O    -0.77419051     1.07209099     0.69579971
      5      H    -1.02192887     1.97747690     0.49380634
      6      O    -0.39790010    -1.17973763    -1.91870646
      7      H    -0.73406893    -2.05643017    -2.11380830
      8      O     0.11722986    -1.64354868     1.10860385
      9      H    -0.29515658    -2.04594674     1.87174696
     10      O     2.52133456     0.61135874     0.71031851
     11      O     2.41678467    -1.58567080    -0.81736509
     12      C     3.69642532     0.03611978     0.51836869
     13      C     3.64069937    -1.26482325    -0.39546749
     14      O     4.74624108     0.41248985     0.97890446
     15      O     4.65911959    -1.85371384    -0.68605438
 
Total System Charge            -1.00000
Bonding info available!
 
 *** GO1_GOStep10 ***



 ======================
 RI Hartree-Fock Scheme
 ======================
  
 Fit Set Quality     : GOOD
 Threshold Quality   : GOOD
 Integration Quality : GOOD
 Response Quality    : DEFAULT
 Is Range Separated  :  F
 
 RIHartreeFock Dependency: number of modified vectors:           5
  
 Hartree-Fock exchange energy:   -544.042236961791     

 Energy gradients wrt nuclear displacements
 ==========================================

     Atom      Cartesian (a.u./angstrom)
                 X         Y         Z
 ----------------------------------------
     1 Pa    0.024806 -0.003270 -0.001909
     2 O    -0.006563 -0.000629  0.001170
     3 H     0.000528  0.001843  0.000782
     4 O     0.000727  0.002843  0.000823
     5 H    -0.002317 -0.000258  0.002541
     6 O     0.007055  0.001241 -0.000772
     7 H    -0.001479  0.000542 -0.001423
     8 O    -0.002251  0.003113  0.001377
     9 H     0.000730 -0.001983 -0.001369
    10 O    -0.012052  0.020973  0.008968
    11 O    -0.031285 -0.028245 -0.015175
    12 C     0.005323  0.002891 -0.006600
    13 C     0.006279  0.007122  0.017505
    14 O    -0.001981 -0.002977 -0.000615
    15 O     0.012481 -0.003206 -0.005302
 ----------------------------------------
 Mulliken charges used for AMS results%charges...
 Rebuilding optimization coordinates

 dE(predicted):    -0.57982E-02, dE(actual):    -0.63034E-02, Trust radius:    1.000000, all in a.u.
 
----------------------------------------------------------------------
Geometry Convergence after Step  10       (Hartree/Angstrom,Angstrom)
----------------------------------------------------------------------
current energy                               -4.65337920 Hartree
energy change                      -0.00630335     0.00001500    F
constrained gradient max            0.03127406     0.00010000    F
constrained gradient rms            0.00958681     0.00006667    F
gradient max                        0.03127406
gradient rms                        0.00958681
cart. step max                      0.09085189     0.00100000    F
cart. step rms                      0.03747621     0.00066667    F
 
 
--------
Geometry
--------
Formula: C2H4O8Pa
Atoms
  Index Symbol   x (angstrom)   y (angstrom)   z (angstrom)
      1     Pa     0.65210401    -0.17803066    -0.33793880
      2      O     0.93822290     1.42771657    -1.72059851
      3      H     1.12417546     1.74067580    -2.60651806
      4      O    -0.79077090     1.07863068     0.69003666
      5      H    -1.03700258     1.97503204     0.44893948
      6      O    -0.47883543    -1.17375570    -1.88110578
      7      H    -0.81010584    -2.05698258    -2.05315449
      8      O     0.17244687    -1.67082288     1.08928527
      9      H    -0.21728420    -2.07947502     1.86171304
     10      O     2.51189625     0.62573971     0.70560014
     11      O     2.43204796    -1.52037220    -0.87869958
     12      C     3.68291177     0.04644458     0.53432209
     13      C     3.64456148    -1.22769716    -0.42253515
     14      O     4.72055409     0.36114345     1.06975635
     15      O     4.64709786    -1.84793940    -0.68003361
 
Total System Charge            -1.00000
Bonding info available!
 
 *** GO1_GOStep11 ***



 ======================
 RI Hartree-Fock Scheme
 ======================
  
 Fit Set Quality     : GOOD
 Threshold Quality   : GOOD
 Integration Quality : GOOD
 Response Quality    : DEFAULT
 Is Range Separated  :  F
 
 RIHartreeFock Dependency: number of modified vectors:           5
  
 Hartree-Fock exchange energy:   -544.048099509007     

 Energy gradients wrt nuclear displacements
 ==========================================

     Atom      Cartesian (a.u./angstrom)
                 X         Y         Z
 ----------------------------------------
     1 Pa    0.012844  0.000657  0.005090
     2 O    -0.002095  0.000429  0.000780
     3 H     0.000447  0.001626  0.000550
     4 O     0.000682  0.001897  0.001691
     5 H    -0.001268 -0.000895  0.000969
     6 O     0.003916 -0.001481 -0.001692
     7 H    -0.001080  0.000605 -0.001377
     8 O    -0.000078  0.002205 -0.002024
     9 H     0.000128 -0.001763 -0.000756
    10 O    -0.008919  0.017241  0.008212
    11 O    -0.015961 -0.027297 -0.012256
    12 C    -0.004129  0.012025 -0.009583
    13 C     0.015545  0.002429  0.009277
    14 O     0.003463 -0.006783  0.002562
    15 O    -0.003493 -0.000894 -0.001442
 ----------------------------------------
 Mulliken charges used for AMS results%charges...

 dE(predicted):    -0.15019E-02, dE(actual):    -0.20670E-02, Trust radius:    1.000000, all in a.u.
 
----------------------------------------------------------------------
Geometry Convergence after Step  11       (Hartree/Angstrom,Angstrom)
----------------------------------------------------------------------
current energy                               -4.65544622 Hartree
energy change                      -0.00206701     0.00001500    F
constrained gradient max            0.02726787     0.00010000    F
constrained gradient rms            0.00746455     0.00006667    F
gradient max                        0.02726787
gradient rms                        0.00746455
cart. step max                      0.04136256     0.00100000    F
cart. step rms                      0.01903362     0.00066667    F
 
 
--------
Geometry
--------
Formula: C2H4O8Pa
Atoms
  Index Symbol   x (angstrom)   y (angstrom)   z (angstrom)
      1     Pa     0.64901161    -0.17826778    -0.34935896
      2      O     0.95422346     1.40991299    -1.74746746
      3      H     1.14253377     1.70463798    -2.63916214
      4      O    -0.78677415     1.06632857     0.69962219
      5      H    -1.03106632     1.96399792     0.45946583
      6      O    -0.51509700    -1.15626979    -1.87987808
      7      H    -0.85139231    -2.03884543    -2.04543758
      8      O     0.18419947    -1.66865449     1.08535995
      9      H    -0.20042846    -2.06764070     1.86540335
     10      O     2.50460639     0.60681284     0.72072230
     11      O     2.44342589    -1.49480981    -0.90512566
     12      C     3.67467153     0.02194997     0.57568465
     13      C     3.65026863    -1.22707070    -0.41467148
     14      O     4.70781563     0.37356014     1.09406250
     15      O     4.66602159    -1.81533448    -0.70015037
 
Total System Charge            -1.00000
Bonding info available!
 
 *** GO1_GOStep12 ***



 ======================
 RI Hartree-Fock Scheme
 ======================
  
 Fit Set Quality     : GOOD
 Threshold Quality   : GOOD
 Integration Quality : GOOD
 Response Quality    : DEFAULT
 Is Range Separated  :  F
 
 RIHartreeFock Dependency: number of modified vectors:           5
  
 Hartree-Fock exchange energy:   -544.047222691747     

 Energy gradients wrt nuclear displacements
 ==========================================

     Atom      Cartesian (a.u./angstrom)
                 X         Y         Z
 ----------------------------------------
     1 Pa    0.007958  0.001527  0.003458
     2 O    -0.001507 -0.000652 -0.000820
     3 H     0.000462  0.001568  0.000487
     4 O     0.000990 -0.000900  0.002971
     5 H    -0.000844 -0.000649  0.000372
     6 O     0.003285 -0.000149 -0.001498
     7 H    -0.000649  0.000687 -0.001268
     8 O    -0.000288  0.003287 -0.000808
     9 H     0.000135 -0.001846 -0.000764
    10 O    -0.002489  0.018907  0.004766
    11 O    -0.018694 -0.022435 -0.015999
    12 C    -0.002729  0.000585  0.002681
    13 C     0.012166 -0.001214  0.012269
    14 O    -0.000236  0.000412 -0.002130
    15 O     0.002442  0.000872 -0.003717
 ----------------------------------------
 Mulliken charges used for AMS results%charges...
 Rebuilding optimization coordinates

 dE(predicted):    -0.82068E-03, dE(actual):    -0.10389E-02, Trust radius:    1.000000, all in a.u.
 
----------------------------------------------------------------------
Geometry Convergence after Step  12       (Hartree/Angstrom,Angstrom)
----------------------------------------------------------------------
current energy                               -4.65648515 Hartree
energy change                      -0.00103894     0.00001500    F
constrained gradient max            0.02240797     0.00010000    F
constrained gradient rms            0.00660347     0.00006667    F
gradient max                        0.02240797
gradient rms                        0.00660347
cart. step max                      0.08906637     0.00100000    F
cart. step rms                      0.03419919     0.00066667    F
 
 
--------
Geometry
--------
Formula: C2H4O8Pa
Atoms
  Index Symbol   x (angstrom)   y (angstrom)   z (angstrom)
      1     Pa     0.63009839    -0.17305569    -0.36495909
      2      O     0.98294939     1.38832259    -1.78017634
      3      H     1.17656098     1.65005840    -2.68106336
      4      O    -0.79625958     1.05910199     0.70330998
      5      H    -1.03683563     1.95581627     0.45206035
      6      O    -0.59886463    -1.13372051    -1.85799044
      7      H    -0.93699168    -2.01933068    -2.00287907
      8      O     0.22005787    -1.68921696     1.05978050
      9      H    -0.14763756    -2.07928206     1.85262844
     10      O     2.50734862     0.59821864     0.70564714
     11      O     2.47460786    -1.41565677    -0.93436492
     12      C     3.67768981     0.01483574     0.60799583
     13      C     3.67069477    -1.19662713    -0.42558334
     14      O     4.68818157     0.34463701     1.18312887
     15      O     4.68041954    -1.80379361    -0.69846551
 
Total System Charge            -1.00000
Bonding info available!
 
 *** GO1_GOStep13 ***



 ======================
 RI Hartree-Fock Scheme
 ======================
  
 Fit Set Quality     : GOOD
 Threshold Quality   : GOOD
 Integration Quality : GOOD
 Response Quality    : DEFAULT
 Is Range Separated  :  F
 
 RIHartreeFock Dependency: number of modified vectors:           5
  
 Hartree-Fock exchange energy:   -544.054406781092     

 Energy gradients wrt nuclear displacements
 ==========================================

     Atom      Cartesian (a.u./angstrom)
                 X         Y         Z
 ----------------------------------------
     1 Pa   -0.011609  0.003376  0.002039
     2 O     0.001919 -0.001117 -0.001713
     3 H     0.000323  0.001276  0.000496
     4 O     0.001550 -0.004636  0.004126
     5 H    -0.000168  0.000181 -0.001270
     6 O     0.001241  0.000286 -0.000898
     7 H    -0.000131  0.000576 -0.001121
     8 O     0.000586  0.002722 -0.000725
     9 H    -0.000030 -0.001587 -0.000813
    10 O     0.007138  0.011520 -0.001048
    11 O    -0.002570 -0.010680 -0.004524
    12 C    -0.003234  0.000677  0.009012
    13 C     0.002944 -0.003145  0.000942
    14 O    -0.001033  0.001149 -0.002841
    15 O     0.003074 -0.000599 -0.001662
 ----------------------------------------
 Mulliken charges used for AMS results%charges...

 dE(predicted):    -0.13213E-02, dE(actual):    -0.16781E-02, Trust radius:    1.000000, all in a.u.
 
----------------------------------------------------------------------
Geometry Convergence after Step  13       (Hartree/Angstrom,Angstrom)
----------------------------------------------------------------------
current energy                               -4.65816326 Hartree
energy change                      -0.00167811     0.00001500    F
constrained gradient max            0.01161139     0.00010000    F
constrained gradient rms            0.00388362     0.00006667    F
gradient max                        0.01161139
gradient rms                        0.00388362
cart. step max                      0.06811790     0.00100000    F
cart. step rms                      0.02621398     0.00066667    F
 
 
--------
Geometry
--------
Formula: C2H4O8Pa
Atoms
  Index Symbol   x (angstrom)   y (angstrom)   z (angstrom)
      1     Pa     0.63828289    -0.17525519    -0.37054485
      2      O     0.99715975     1.37104483    -1.80013924
      3      H     1.18652548     1.61061458    -2.70824168
      4      O    -0.79549224     1.05384153     0.69174796
      5      H    -1.03544492     1.94618826     0.42467455
      6      O    -0.63479772    -1.11713879    -1.84122713
      7      H    -0.97788675    -2.00331783    -1.97213021
      8      O     0.25001510    -1.68926684     1.06262333
      9      H    -0.11080628    -2.06445872     1.86590138
     10      O     2.49235375     0.58379910     0.74048682
     11      O     2.48886566    -1.37748118    -0.99312950
     12      C     3.66518812     0.00252148     0.63443813
     13      C     3.67437940    -1.16721396    -0.45029906
     14      O     4.66388250     0.29192137     1.25124676
     15      O     4.68979499    -1.76549142    -0.71633824
 
Total System Charge            -1.00000
Bonding info available!
 
 *** GO1_GOStep14 ***



 ======================
 RI Hartree-Fock Scheme
 ======================
  
 Fit Set Quality     : GOOD
 Threshold Quality   : GOOD
 Integration Quality : GOOD
 Response Quality    : DEFAULT
 Is Range Separated  :  F
 
 RIHartreeFock Dependency: number of modified vectors:           5
  
 Hartree-Fock exchange energy:   -544.052937247874     

 Energy gradients wrt nuclear displacements
 ==========================================

     Atom      Cartesian (a.u./angstrom)
                 X         Y         Z
 ----------------------------------------
     1 Pa   -0.005862  0.001968  0.003478
     2 O     0.001667 -0.002628 -0.002259
     3 H     0.000380  0.001299  0.000248
     4 O     0.000521 -0.005226  0.004128
     5 H     0.000412 -0.000074 -0.001507
     6 O     0.000006  0.001891 -0.000769
     7 H     0.000153  0.000221 -0.001073
     8 O     0.000537  0.004103 -0.000201
     9 H    -0.000153 -0.001572 -0.000731
    10 O     0.002425  0.011714  0.001880
    11 O    -0.004872 -0.012760 -0.009627
    12 C    -0.001311  0.002262  0.006793
    13 C     0.003501 -0.002037 -0.000688
    14 O     0.001488  0.000478 -0.000158
    15 O     0.001106  0.000361  0.000486
 ----------------------------------------
 Mulliken charges used for AMS results%charges...

 dE(predicted):    -0.34529E-03, dE(actual):    -0.41969E-03, Trust radius:    1.000000, all in a.u.
 
----------------------------------------------------------------------
Geometry Convergence after Step  14       (Hartree/Angstrom,Angstrom)
----------------------------------------------------------------------
current energy                               -4.65858295 Hartree
energy change                      -0.00041969     0.00001500    F
constrained gradient max            0.01273707     0.00010000    F
constrained gradient rms            0.00376951     0.00006667    F
gradient max                        0.01273707
gradient rms                        0.00376951
cart. step max                      0.04835508     0.00100000    F
cart. step rms                      0.01878249     0.00066667    F
 
 
--------
Geometry
--------
Formula: C2H4O8Pa
Atoms
  Index Symbol   x (angstrom)   y (angstrom)   z (angstrom)
      1     Pa     0.63616690    -0.18419678    -0.37581929
      2      O     1.00218375     1.35855636    -1.80452234
      3      H     1.18559166     1.57932038    -2.71870226
      4      O    -0.79337596     1.05996481     0.67446841
      5      H    -1.02452794     1.95369326     0.40423585
      6      O    -0.66881107    -1.10955287    -1.82946171
      7      H    -1.01924825    -1.99578847    -1.94148868
      8      O     0.25471558    -1.70724357     1.05254752
      9      H    -0.10611797    -2.06221336     1.86514226
     10      O     2.48981415     0.56067453     0.74931974
     11      O     2.51231701    -1.33630401    -1.00395079
     12      C     3.67077510    -0.00336660     0.64736678
     13      C     3.69306407    -1.14154708    -0.46286630
     14      O     4.65199867     0.26628875     1.29960184
     15      O     4.70747402    -1.73797812    -0.73680201
 
Total System Charge            -1.00000
Bonding info available!
 
 *** GO1_GOStep15 ***



 ======================
 RI Hartree-Fock Scheme
 ======================
  
 Fit Set Quality     : GOOD
 Threshold Quality   : GOOD
 Integration Quality : GOOD
 Response Quality    : DEFAULT
 Is Range Separated  :  F
 
 RIHartreeFock Dependency: number of modified vectors:           5
  
 Hartree-Fock exchange energy:   -544.061685641713     

 Energy gradients wrt nuclear displacements
 ==========================================

     Atom      Cartesian (a.u./angstrom)
                 X         Y         Z
 ----------------------------------------
     1 Pa   -0.009304 -0.000479  0.000560
     2 O     0.001705 -0.003248 -0.001140
     3 H     0.000303  0.001046  0.000248
     4 O    -0.000180 -0.004591  0.003452
     5 H     0.000476  0.000138 -0.001623
     6 O    -0.000697  0.003346  0.000336
     7 H     0.000299 -0.000197 -0.000948
     8 O     0.000721  0.003961  0.000131
     9 H    -0.000229 -0.001450 -0.000757
    10 O     0.003595  0.006527  0.000162
    11 O     0.004852 -0.005805 -0.001633
    12 C     0.002067  0.003832  0.003699
    13 C    -0.002071 -0.002743 -0.004684
    14 O    -0.000183 -0.000981  0.000762
    15 O    -0.001354  0.000646  0.001435
 ----------------------------------------
 Mulliken charges used for AMS results%charges...

 dE(predicted):    -0.44779E-03, dE(actual):    -0.63347E-03, Trust radius:    1.000000, all in a.u.
 
----------------------------------------------------------------------
Geometry Convergence after Step  15       (Hartree/Angstrom,Angstrom)
----------------------------------------------------------------------
current energy                               -4.65921642 Hartree
energy change                      -0.00063347     0.00001500    F
constrained gradient max            0.00930508     0.00010000    F
constrained gradient rms            0.00282251     0.00006667    F
gradient max                        0.00930508
gradient rms                        0.00282251
cart. step max                      0.04605060     0.00100000    F
cart. step rms                      0.01932618     0.00066667    F
 
 
--------
Geometry
--------
Formula: C2H4O8Pa
Atoms
  Index Symbol   x (angstrom)   y (angstrom)   z (angstrom)
      1     Pa     0.64008645    -0.20087571    -0.37336163
      2      O     1.00462076     1.34922291    -1.79216690
      3      H     1.17941656     1.55436671    -2.71179565
      4      O    -0.78720127     1.07448846     0.64459159
      5      H    -1.00433469     1.97118976     0.37407712
      6      O    -0.68215298    -1.11002491    -1.82234495
      7      H    -1.04633979    -1.99349770    -1.91198970
      8      O     0.23949747    -1.72892502     1.04941161
      9      H    -0.12969201    -2.05457871     1.87070430
     10      O     2.48099154     0.52036911     0.77760831
     11      O     2.52936495    -1.31348575    -1.01070777
     12      C     3.67406390    -0.01602940     0.66012111
     13      C     3.71151453    -1.11887150    -0.47628909
     14      O     4.64960539     0.25888650     1.31898354
     15      O     4.73257891    -1.69192752    -0.77777288
 
Total System Charge            -1.00000
Bonding info available!
 
 *** GO1_GOStep16 ***



 ======================
 RI Hartree-Fock Scheme
 ======================
  
 Fit Set Quality     : GOOD
 Threshold Quality   : GOOD
 Integration Quality : GOOD
 Response Quality    : DEFAULT
 Is Range Separated  :  F
 
 RIHartreeFock Dependency: number of modified vectors:           5
  
 Hartree-Fock exchange energy:   -544.066233801007     

 Energy gradients wrt nuclear displacements
 ==========================================

     Atom      Cartesian (a.u./angstrom)
                 X         Y         Z
 ----------------------------------------
     1 Pa   -0.005117 -0.003933 -0.001319
     2 O     0.000379 -0.003646  0.000447
     3 H     0.000228  0.000861  0.000272
     4 O    -0.001240 -0.002117  0.001651
     5 H     0.000266  0.000145 -0.001092
     6 O    -0.001164  0.004499  0.001301
     7 H     0.000390 -0.000405 -0.000782
     8 O     0.000634  0.003874  0.000206
     9 H    -0.000263 -0.001365 -0.000693
    10 O     0.001815  0.003932 -0.001319
    11 O     0.005892 -0.001028  0.001675
    12 C     0.002592  0.000586  0.000737
    13 C    -0.004608 -0.000509 -0.002792
    14 O    -0.000148 -0.000244  0.001327
    15 O     0.000344 -0.000651  0.000381
 ----------------------------------------
 Mulliken charges used for AMS results%charges...

 dE(predicted):    -0.33854E-03, dE(actual):    -0.51779E-03, Trust radius:    1.000000, all in a.u.
 
----------------------------------------------------------------------
Geometry Convergence after Step  16       (Hartree/Angstrom,Angstrom)
----------------------------------------------------------------------
current energy                               -4.65973421 Hartree
energy change                      -0.00051779     0.00001500    F
constrained gradient max            0.00589724     0.00010000    F
constrained gradient rms            0.00215231     0.00006667    F
gradient max                        0.00589724
gradient rms                        0.00215231
cart. step max                      0.05444902     0.00100000    F
cart. step rms                      0.02084510     0.00066667    F
 
 
--------
Geometry
--------
Formula: C2H4O8Pa
Atoms
  Index Symbol   x (angstrom)   y (angstrom)   z (angstrom)
      1     Pa     0.64544377    -0.21938716    -0.36563431
      2      O     1.00828487     1.34405033    -1.77072676
      3      H     1.17554133     1.53562627    -2.69485671
      4      O    -0.77574948     1.09276006     0.61622398
      5      H    -0.97610816     1.99451360     0.35205288
      6      O    -0.67268382    -1.12206187    -1.82406191
      7      H    -1.05502763    -2.00001060    -1.88934422
      8      O     0.20879045    -1.75006720     1.05063572
      9      H    -0.17205304    -2.04133072     1.87969878
     10      O     2.46750517     0.47226104     0.81496747
     11      O     2.53654045    -1.30860663    -1.01314188
     12      C     3.67351546    -0.02685727     0.66636321
     13      C     3.72347555    -1.09948316    -0.49121487
     14      O     4.65160479     0.26637903     1.31295507
     15      O     4.75294002    -1.63747850    -0.82484743
 
Total System Charge            -1.00000
Bonding info available!
 
 *** GO1_GOStep17 ***



 ======================
 RI Hartree-Fock Scheme
 ======================
  
 Fit Set Quality     : GOOD
 Threshold Quality   : GOOD
 Integration Quality : GOOD
 Response Quality    : DEFAULT
 Is Range Separated  :  F
 
 RIHartreeFock Dependency: number of modified vectors:           5
  
 Hartree-Fock exchange energy:   -544.070565957839     

 Energy gradients wrt nuclear displacements
 ==========================================

     Atom      Cartesian (a.u./angstrom)
                 X         Y         Z
 ----------------------------------------
     1 Pa    0.002794 -0.006467 -0.001411
     2 O    -0.001299 -0.003453  0.001653
     3 H     0.000139  0.000844  0.000250
     4 O    -0.001776  0.001089 -0.000546
     5 H    -0.000071 -0.000130 -0.000254
     6 O    -0.001348  0.004461  0.001512
     7 H     0.000430 -0.000285 -0.000623
     8 O     0.000306  0.003389  0.000548
     9 H    -0.000266 -0.001319 -0.000634
    10 O    -0.000393  0.001962 -0.002060
    11 O     0.002814  0.001189  0.002139
    12 C     0.001688 -0.001867 -0.001448
    13 C    -0.002340  0.000516  0.000139
    14 O    -0.000651  0.000141  0.000761
    15 O    -0.000026 -0.000071 -0.000027
 ----------------------------------------
 Mulliken charges used for AMS results%charges...

 dE(predicted):    -0.26294E-03, dE(actual):    -0.36767E-03, Trust radius:    1.000000, all in a.u.
 
----------------------------------------------------------------------
Geometry Convergence after Step  17       (Hartree/Angstrom,Angstrom)
----------------------------------------------------------------------
current energy                               -4.66010188 Hartree
energy change                      -0.00036767     0.00001500    F
constrained gradient max            0.00647378     0.00010000    F
constrained gradient rms            0.00182307     0.00006667    F
gradient max                        0.00647378
gradient rms                        0.00182307
cart. step max                      0.02994435     0.00100000    F
cart. step rms                      0.01315283     0.00066667    F
 
 
--------
Geometry
--------
Formula: C2H4O8Pa
Atoms
  Index Symbol   x (angstrom)   y (angstrom)   z (angstrom)
      1     Pa     0.64463788    -0.22714243    -0.36015531
      2      O     1.01684934     1.34294338    -1.75876301
      3      H     1.18394787     1.52343840    -2.68527763
      4      O    -0.76786089     1.10338338     0.60903854
      5      H    -0.95679056     2.01017643     0.35496570
      6      O    -0.65574594    -1.13809199    -1.83149256
      7      H    -1.05048879    -2.01157532    -1.87980282
      8      O     0.18515182    -1.76109561     1.05034104
      9      H    -0.20089430    -2.02969222     1.88478419
     10      O     2.45630061     0.44361468     0.83786457
     11      O     2.53369860    -1.30884789    -1.01408760
     12      C     3.66916790    -0.02955745     0.66702034
     13      C     3.72436761    -1.08857396    -0.50118689
     14      O     4.65235565     0.27886197     1.29894896
     15      O     4.75732290    -1.60753414    -0.85312849
 
Total System Charge            -1.00000
Bonding info available!
 
 *** GO1_GOStep18 ***



 ======================
 RI Hartree-Fock Scheme
 ======================
  
 Fit Set Quality     : GOOD
 Threshold Quality   : GOOD
 Integration Quality : GOOD
 Response Quality    : DEFAULT
 Is Range Separated  :  F
 
 RIHartreeFock Dependency: number of modified vectors:           5
  
 Hartree-Fock exchange energy:   -544.070749172855     

 Energy gradients wrt nuclear displacements
 ==========================================

     Atom      Cartesian (a.u./angstrom)
                 X         Y         Z
 ----------------------------------------
     1 Pa    0.005870 -0.006159  0.000037
     2 O    -0.001396 -0.002737  0.001390
     3 H     0.000028  0.000951  0.000230
     4 O    -0.001341  0.002318 -0.001280
     5 H    -0.000207 -0.000291  0.000084
     6 O    -0.001297  0.003231  0.000875
     7 H     0.000382 -0.000077 -0.000526
     8 O     0.000143  0.002675  0.000985
     9 H    -0.000304 -0.001329 -0.000591
    10 O    -0.001241  0.000555 -0.002799
    11 O     0.000126  0.001391  0.001492
    12 C    -0.000969 -0.001960 -0.001449
    13 C    -0.000288  0.001587  0.001731
    14 O     0.000241  0.000187  0.000384
    15 O     0.000253 -0.000343 -0.000564
 ----------------------------------------
 Mulliken charges used for AMS results%charges...

 dE(predicted):    -0.11982E-03, dE(actual):    -0.18706E-03, Trust radius:    1.000000, all in a.u.
 
----------------------------------------------------------------------
Geometry Convergence after Step  18       (Hartree/Angstrom,Angstrom)
----------------------------------------------------------------------
current energy                               -4.66028895 Hartree
energy change                      -0.00018706     0.00001500    F
constrained gradient max            0.00616585     0.00010000    F
constrained gradient rms            0.00179118     0.00006667    F
gradient max                        0.00616585
gradient rms                        0.00179118
cart. step max                      0.03352542     0.00100000    F
cart. step rms                      0.01656545     0.00066667    F
 
 
--------
Geometry
--------
Formula: C2H4O8Pa
Atoms
  Index Symbol   x (angstrom)   y (angstrom)   z (angstrom)
      1     Pa     0.63994720    -0.23035607    -0.35548243
      2      O     1.03480773     1.34406457    -1.74984362
      3      H     1.20649587     1.50355100    -2.67954526
      4      O    -0.76163327     1.11132361     0.61107753
      5      H    -0.93659388     2.02614331     0.37681531
      6      O    -0.62762655    -1.16317124    -1.84506196
      7      H    -1.03933290    -2.02978950    -1.86872233
      8      O     0.15718728    -1.77053394     1.04672335
      9      H    -0.22961689    -2.00701839     1.89067160
     10      O     2.44075636     0.41008926     0.86571941
     11      O     2.52482528    -1.30578042    -1.02087422
     12      C     3.66030409    -0.03079472     0.66623374
     13      C     3.71874764    -1.07641406    -0.51509826
     14      O     4.64911664     0.29542296     1.27975003
     15      O     4.75463513    -1.57642913    -0.88329384
 
Total System Charge            -1.00000
Bonding info available!
 
 *** GO1_GOStep19 ***



 ======================
 RI Hartree-Fock Scheme
 ======================
  
 Fit Set Quality     : GOOD
 Threshold Quality   : GOOD
 Integration Quality : GOOD
 Response Quality    : DEFAULT
 Is Range Separated  :  F
 
 RIHartreeFock Dependency: number of modified vectors:           5
  
 Hartree-Fock exchange energy:   -544.070194323191     

 Energy gradients wrt nuclear displacements
 ==========================================

     Atom      Cartesian (a.u./angstrom)
                 X         Y         Z
 ----------------------------------------
     1 Pa    0.007020 -0.003695  0.002557
     2 O    -0.000328 -0.001583 -0.000036
     3 H    -0.000163  0.001097  0.000218
     4 O    -0.000245  0.002223 -0.001287
     5 H    -0.000220 -0.000261  0.000170
     6 O    -0.000971  0.000976 -0.000404
     7 H     0.000228  0.000120 -0.000396
     8 O    -0.000003  0.001640  0.001816
     9 H    -0.000354 -0.001334 -0.000609
    10 O    -0.001122 -0.001304 -0.003105
    11 O    -0.003065  0.001198  0.000132
    12 C    -0.003106 -0.000283 -0.000243
    13 C     0.002435  0.001059  0.001957
    14 O     0.000281 -0.000080 -0.000369
    15 O    -0.000388  0.000228 -0.000401
 ----------------------------------------
 Mulliken charges used for AMS results%charges...

 dE(predicted):    -0.15002E-03, dE(actual):    -0.19671E-03, Trust radius:    1.000000, all in a.u.
 
----------------------------------------------------------------------
Geometry Convergence after Step  19       (Hartree/Angstrom,Angstrom)
----------------------------------------------------------------------
current energy                               -4.66048566 Hartree
energy change                      -0.00019671     0.00001500    F
constrained gradient max            0.00701877     0.00010000    F
constrained gradient rms            0.00173436     0.00006667    F
gradient max                        0.00701877
gradient rms                        0.00173436
cart. step max                      0.02445505     0.00100000    F
cart. step rms                      0.00883893     0.00066667    F
 
 
--------
Geometry
--------
Formula: C2H4O8Pa
Atoms
  Index Symbol   x (angstrom)   y (angstrom)   z (angstrom)
      1     Pa     0.63473869    -0.22726748    -0.35800064
      2      O     1.04464052     1.34764581    -1.75185017
      3      H     1.22183478     1.48932918    -2.68355658
      4      O    -0.76071923     1.11051352     0.61970687
      5      H    -0.92867733     2.03072369     0.40127035
      6      O    -0.61301306    -1.17816448    -1.85437189
      7      H    -1.03380576    -2.04078887    -1.86130091
      8      O     0.14685487    -1.77301883     1.03879300
      9      H    -0.23416383    -1.98816327     1.89120531
     10      O     2.43184845     0.39751528     0.87724723
     11      O     2.52040007    -1.29700088    -1.02895072
     12      C     3.65436375    -0.03099487     0.66646610
     13      C     3.71338459    -1.07100781    -0.52164407
     14      O     4.64462950     0.30086771     1.27444531
     15      O     4.74970370    -1.56988146    -0.89039019
 
Total System Charge            -1.00000
Bonding info available!
 
 *** GO1_GOStep20 ***



 ======================
 RI Hartree-Fock Scheme
 ======================
  
 Fit Set Quality     : GOOD
 Threshold Quality   : GOOD
 Integration Quality : GOOD
 Response Quality    : DEFAULT
 Is Range Separated  :  F
 
 RIHartreeFock Dependency: number of modified vectors:           5
  
 Hartree-Fock exchange energy:   -544.068934347810     

 Energy gradients wrt nuclear displacements
 ==========================================

     Atom      Cartesian (a.u./angstrom)
                 X         Y         Z
 ----------------------------------------
     1 Pa    0.004767 -0.001537  0.003134
     2 O     0.000897 -0.000981 -0.001081
     3 H    -0.000284  0.001092  0.000198
     4 O     0.000558  0.001159 -0.000646
     5 H    -0.000123 -0.000090 -0.000020
     6 O    -0.000542 -0.000345 -0.001036
     7 H     0.000086  0.000100 -0.000310
     8 O     0.000044  0.001194  0.002212
     9 H    -0.000433 -0.001349 -0.000632
    10 O    -0.001368 -0.001573 -0.002450
    11 O    -0.002659  0.001520  0.000394
    12 C    -0.002850  0.000365  0.000345
    13 C     0.001711  0.000402  0.000532
    14 O     0.000483 -0.000117 -0.000422
    15 O    -0.000289  0.000160 -0.000220
 ----------------------------------------
 Mulliken charges used for AMS results%charges...

 dE(predicted):    -0.72933E-04, dE(actual):    -0.99822E-04, Trust radius:    1.000000, all in a.u.
 
----------------------------------------------------------------------
Geometry Convergence after Step  20       (Hartree/Angstrom,Angstrom)
----------------------------------------------------------------------
current energy                               -4.66058548 Hartree
energy change                      -0.00009982     0.00001500    F
constrained gradient max            0.00476588     0.00010000    F
constrained gradient rms            0.00136417     0.00006667    F
gradient max                        0.00476588
gradient rms                        0.00136417
cart. step max                      0.02409994     0.00100000    F
cart. step rms                      0.00846101     0.00066667    F
 
 
--------
Geometry
--------
Formula: C2H4O8Pa
Atoms
  Index Symbol   x (angstrom)   y (angstrom)   z (angstrom)
      1     Pa     0.63132264    -0.21909027    -0.36385207
      2      O     1.05041734     1.35727335    -1.75639099
      3      H     1.23495704     1.47841900    -2.68980243
      4      O    -0.77007643     1.10117055     0.62637485
      5      H    -0.93584287     2.02565896     0.42381718
      6      O    -0.60357343    -1.18637961    -1.86058888
      7      H    -1.03162379    -2.04553734    -1.85035034
      8      O     0.14659188    -1.77191370     1.02661025
      9      H    -0.22214252    -1.96406333     1.89007420
     10      O     2.42811011     0.39369016     0.88283543
     11      O     2.51769828    -1.28535467    -1.04277728
     12      C     3.65196056    -0.03206991     0.66682462
     13      C     3.70828126    -1.07109294    -0.52488863
     14      O     4.64209325     0.29856758     1.27511744
     15      O     4.74384638    -1.57897058    -0.88393432
 
Total System Charge            -1.00000
Bonding info available!
 
 *** GO1_GOStep21 ***



 ======================
 RI Hartree-Fock Scheme
 ======================
  
 Fit Set Quality     : GOOD
 Threshold Quality   : GOOD
 Integration Quality : GOOD
 Response Quality    : DEFAULT
 Is Range Separated  :  F
 
 RIHartreeFock Dependency: number of modified vectors:           5
  
 Hartree-Fock exchange energy:   -544.066559617451     

 Energy gradients wrt nuclear displacements
 ==========================================

     Atom      Cartesian (a.u./angstrom)
                 X         Y         Z
 ----------------------------------------
     1 Pa    0.001913  0.000846  0.003203
     2 O     0.001930 -0.000774 -0.001585
     3 H    -0.000362  0.000940  0.000102
     4 O     0.000916 -0.000471 -0.000163
     5 H     0.000061  0.000115 -0.000268
     6 O    -0.000219 -0.001203 -0.001172
     7 H    -0.000075 -0.000022 -0.000230
     8 O     0.000138  0.001175  0.002012
     9 H    -0.000475 -0.001304 -0.000599
    10 O    -0.001668 -0.001189 -0.000919
    11 O    -0.003348  0.001042 -0.000590
    12 C    -0.000103  0.001188  0.000473
    13 C     0.000851 -0.000421 -0.000442
    14 O     0.000073 -0.000119 -0.000047
    15 O     0.000368  0.000195  0.000226
 ----------------------------------------
 Mulliken charges used for AMS results%charges...

 dE(predicted):    -0.67226E-04, dE(actual):    -0.93828E-04, Trust radius:    1.000000, all in a.u.
 
----------------------------------------------------------------------
Geometry Convergence after Step  21       (Hartree/Angstrom,Angstrom)
----------------------------------------------------------------------
current energy                               -4.66067931 Hartree
energy change                      -0.00009383     0.00001500    F
constrained gradient max            0.00334497     0.00010000    F
constrained gradient rms            0.00110521     0.00006667    F
gradient max                        0.00334497
gradient rms                        0.00110521
cart. step max                      0.02935365     0.00100000    F
cart. step rms                      0.01076497     0.00066667    F
 
 
--------
Geometry
--------
Formula: C2H4O8Pa
Atoms
  Index Symbol   x (angstrom)   y (angstrom)   z (angstrom)
      1     Pa     0.62658761    -0.21334801    -0.37759869
      2      O     1.04287441     1.36941358    -1.76548222
      3      H     1.23540494     1.46646315    -2.70042826
      4      O    -0.77130827     1.09201149     0.63586068
      5      H    -0.93193504     2.02172383     0.45317082
      6      O    -0.60119488    -1.19391254    -1.87014748
      7      H    -1.03629827    -2.04919313    -1.84004776
      8      O     0.14882060    -1.77453446     1.00539210
      9      H    -0.19928842    -1.93624768     1.88384546
     10      O     2.42294002     0.39283070     0.88214318
     11      O     2.52354087    -1.26880758    -1.05392303
     12      C     3.64850168    -0.03415448     0.66956815
     13      C     3.70625769    -1.07317987    -0.52128870
     14      O     4.63619147     0.29605729     1.28138993
     15      O     4.74092530    -1.59481506    -0.86338514
 
Total System Charge            -1.00000
Bonding info available!
 
 *** GO1_GOStep22 ***



 ======================
 RI Hartree-Fock Scheme
 ======================
  
 Fit Set Quality     : GOOD
 Threshold Quality   : GOOD
 Integration Quality : GOOD
 Response Quality    : DEFAULT
 Is Range Separated  :  F
 
 RIHartreeFock Dependency: number of modified vectors:           5
  
 Hartree-Fock exchange energy:   -544.068151827545     

 Energy gradients wrt nuclear displacements
 ==========================================

     Atom      Cartesian (a.u./angstrom)
                 X         Y         Z
 ----------------------------------------
     1 Pa   -0.002837  0.001549  0.000849
     2 O     0.002374 -0.000449 -0.001270
     3 H    -0.000398  0.000605  0.000017
     4 O     0.001188 -0.001283  0.000479
     5 H     0.000169  0.000283 -0.000474
     6 O     0.000270 -0.001534 -0.000678
     7 H    -0.000161 -0.000051 -0.000075
     8 O     0.000514  0.001430  0.001536
     9 H    -0.000549 -0.001176 -0.000572
    10 O    -0.001465 -0.000771  0.000238
    11 O     0.002110  0.002515  0.002386
    12 C     0.002755  0.000605  0.000160
    13 C    -0.003100 -0.002309 -0.003247
    14 O    -0.000618 -0.000368 -0.000479
    15 O    -0.000252  0.000953  0.001132
 ----------------------------------------
 Mulliken charges used for AMS results%charges...

 dE(predicted):    -0.67856E-04, dE(actual):    -0.82047E-04, Trust radius:    1.000000, all in a.u.
 
----------------------------------------------------------------------
Geometry Convergence after Step  22       (Hartree/Angstrom,Angstrom)
----------------------------------------------------------------------
current energy                               -4.66076136 Hartree
energy change                      -0.00008205     0.00001500    F
constrained gradient max            0.00329219     0.00010000    F
constrained gradient rms            0.00139862     0.00006667    F
gradient max                        0.00329219
gradient rms                        0.00139862
cart. step max                      0.03673539     0.00100000    F
cart. step rms                      0.01221103     0.00066667    F
 
 
--------
Geometry
--------
Formula: C2H4O8Pa
Atoms
  Index Symbol   x (angstrom)   y (angstrom)   z (angstrom)
      1     Pa     0.62832214    -0.20506833    -0.38721872
      2      O     1.03390752     1.38558234    -1.76936193
      3      H     1.23613495     1.45929188    -2.70476767
      4      O    -0.78877629     1.07617870     0.63101615
      5      H    -0.95184350     2.00812844     0.46213398
      6      O    -0.60109615    -1.19069798    -1.87288757
      7      H    -1.04212455    -2.04229082    -1.82519121
      8      O     0.15921014    -1.77359505     0.98909785
      9      H    -0.16255303    -1.90326957     1.88316928
     10      O     2.42397381     0.39477850     0.88302807
     11      O     2.52808201    -1.25569979    -1.07206759
     12      C     3.64914069    -0.04005798     0.67414439
     13      C     3.70628740    -1.07780100    -0.51890427
     14      O     4.63546985     0.28144910     1.29272139
     15      O     4.73788476    -1.61662123    -0.84584313
 
Total System Charge            -1.00000
Bonding info available!
 
 *** GO1_GOStep23 ***



 ======================
 RI Hartree-Fock Scheme
 ======================
  
 Fit Set Quality     : GOOD
 Threshold Quality   : GOOD
 Integration Quality : GOOD
 Response Quality    : DEFAULT
 Is Range Separated  :  F
 
 RIHartreeFock Dependency: number of modified vectors:           5
  
 Hartree-Fock exchange energy:   -544.064989832521     

 Energy gradients wrt nuclear displacements
 ==========================================

     Atom      Cartesian (a.u./angstrom)
                 X         Y         Z
 ----------------------------------------
     1 Pa   -0.003482  0.002225  0.000160
     2 O     0.002019 -0.000646 -0.000453
     3 H    -0.000386  0.000191 -0.000124
     4 O     0.000457 -0.002020  0.000154
     5 H     0.000336  0.000325 -0.000465
     6 O     0.000288 -0.001204  0.000064
     7 H    -0.000217 -0.000098  0.000061
     8 O     0.000692  0.002003  0.000404
     9 H    -0.000479 -0.000897 -0.000420
    10 O    -0.002736  0.000390  0.001840
    11 O    -0.000002  0.000792 -0.000166
    12 C     0.005109  0.000283 -0.000253
    13 C    -0.002943 -0.000758 -0.001293
    14 O    -0.000285 -0.000189  0.000072
    15 O     0.001629 -0.000395  0.000421
 ----------------------------------------
 Mulliken charges used for AMS results%charges...

 dE(predicted):    -0.62911E-04, dE(actual):    -0.81456E-04, Trust radius:    1.000000, all in a.u.
 
----------------------------------------------------------------------
Geometry Convergence after Step  23       (Hartree/Angstrom,Angstrom)
----------------------------------------------------------------------
current energy                               -4.66084281 Hartree
energy change                      -0.00008146     0.00001500    F
constrained gradient max            0.00511214     0.00010000    F
constrained gradient rms            0.00138302     0.00006667    F
gradient max                        0.00511214
gradient rms                        0.00138302
cart. step max                      0.02509176     0.00100000    F
cart. step rms                      0.00754696     0.00066667    F
 
 
--------
Geometry
--------
Formula: C2H4O8Pa
Atoms
  Index Symbol   x (angstrom)   y (angstrom)   z (angstrom)
      1     Pa     0.62957729    -0.20534111    -0.39541858
      2      O     1.01691453     1.39531398    -1.77060317
      3      H     1.22639419     1.45668188    -2.70556309
      4      O    -0.79018526     1.07145721     0.62737857
      5      H    -0.95228793     2.00497207     0.46737385
      6      O    -0.60311278    -1.18853530    -1.87788328
      7      H    -1.04706043    -2.03813239    -1.82131238
      8      O     0.16255431    -1.77784656     0.97723044
      9      H    -0.13746127    -1.88294490     1.88236004
     10      O     2.42374702     0.39394876     0.87979255
     11      O     2.53519570    -1.25138369    -1.07733942
[...]
    11     O      -0.058615   0.190973   0.209174
    12     C       0.018170  -0.080355  -0.079018
    13     C       0.006439   0.063535   0.093764
    14     O       0.008440  -0.066031  -0.087891
    15     O      -0.004558   0.070065   0.084128
 
 Mode:    29      Frequency (cm-1):      494.4916     Intensity (km/mol):        6.0715
 Index  Atom      ---- Displacements (x/y/z) ----
     1    Pa      -0.005322  -0.011375   0.019301
     2     O       0.024154   0.125014  -0.130921
     3     H       0.093878   0.137625  -0.051697
     4     O       0.029649  -0.028794  -0.027437
     5     H       0.019280  -0.018476   0.025137
     6     O      -0.017226  -0.015542  -0.030263
     7     H      -0.016388  -0.000975   0.049691
     8     O       0.047285   0.107231  -0.111661
     9     H      -0.056892   0.137057  -0.060172
    10     O      -0.072172  -0.159200   0.156763
    11     O      -0.028497  -0.160951   0.169806
    12     C       0.100823   0.443220  -0.352590
    13     C       0.139374   0.439411  -0.345924
    14     O      -0.063618  -0.188359   0.107540
    15     O      -0.025421  -0.193359   0.113771
 
 Mode:    30      Frequency (cm-1):      498.8766     Intensity (km/mol):      210.6024
 Index  Atom      ---- Displacements (x/y/z) ----
     1    Pa       0.042845  -0.008493   0.003465
     2     O      -0.057503  -0.085991   0.103067
     3     H       0.016020  -0.187859   0.155766
     4     O      -0.191556   0.203672   0.094900
     5     H      -0.343699   0.231716   0.347718
     6     O      -0.150344  -0.116281  -0.107801
     7     H      -0.200285  -0.139906  -0.384672
     8     O      -0.000439   0.093309  -0.108338
     9     H       0.109430   0.166881  -0.132934
    10     O      -0.039360  -0.163831  -0.219591
    11     O      -0.073750   0.170228   0.204786
    12     C      -0.003484  -0.059328  -0.093991
    13     C      -0.017981   0.077440   0.081649
    14     O      -0.023923  -0.065302  -0.087763
    15     O      -0.039511   0.068823   0.080841
 
 Mode:    31      Frequency (cm-1):      501.5439     Intensity (km/mol):      179.4288
 Index  Atom      ---- Displacements (x/y/z) ----
     1    Pa      -0.001690  -0.031442  -0.037763
     2     O      -0.018908   0.000549   0.037606
     3     H      -0.004183  -0.122088   0.020418
     4     O      -0.205363   0.240826   0.142381
     5     H      -0.384269   0.234253   0.271060
     6     O       0.233383   0.217255   0.226372
     7     H       0.365419   0.187888   0.467358
     8     O       0.007045  -0.020450   0.062752
     9     H      -0.058028  -0.158762   0.050597
    10     O       0.010006  -0.012503   0.020319
    11     O      -0.008089  -0.034176  -0.014082
    12     C       0.017167   0.047923  -0.006261
    13     C       0.002066   0.040053  -0.022435
    14     O       0.012320  -0.002967   0.029259
    15     O      -0.015300  -0.009285   0.011386
 
 Mode:    32      Frequency (cm-1):      539.6562     Intensity (km/mol):      298.3228
 Index  Atom      ---- Displacements (x/y/z) ----
     1    Pa      -0.011099  -0.043197   0.033962
     2     O       0.093655   0.215299  -0.216681
     3     H      -0.047883   0.456686  -0.308041
     4     O      -0.013525   0.041342  -0.006912
     5     H      -0.177693   0.049331   0.171716
     6     O       0.031533   0.042872   0.005318
     7     H       0.132190   0.030476   0.243592
     8     O       0.032348   0.220981  -0.229274
     9     H       0.237733   0.432467  -0.256317
    10     O       0.010574   0.052330  -0.037272
    11     O       0.014134   0.055483  -0.031148
    12     C      -0.021770  -0.080783   0.054448
    13     C      -0.020337  -0.079579   0.057377
    14     O       0.005017   0.027004  -0.025793
    15     O       0.009082   0.027895  -0.023295
 
 Mode:    33      Frequency (cm-1):      556.3455     Intensity (km/mol):        3.0208
 Index  Atom      ---- Displacements (x/y/z) ----
     1    Pa       0.000580  -0.001054  -0.006617
     2     O      -0.009417  -0.009136   0.028837
     3     H      -0.006145  -0.098065   0.008309
     4     O      -0.016838   0.023251   0.019169
     5     H      -0.029489   0.016196   0.001952
     6     O       0.020752   0.023412   0.029131
     7     H       0.030711   0.015081   0.016011
     8     O      -0.000789  -0.003944   0.023543
     9     H      -0.022659  -0.089491   0.008437
    10     O      -0.278754   0.279930   0.238573
    11     O       0.239713   0.214104   0.331340
    12     C      -0.324476  -0.031826  -0.072199
    13     C       0.310148  -0.114267   0.043958
    14     O      -0.185545  -0.169071  -0.315402
    15     O       0.234984  -0.223867  -0.240614
 
 Mode:    34      Frequency (cm-1):      583.3445     Intensity (km/mol):       64.5701
 Index  Atom      ---- Displacements (x/y/z) ----
     1    Pa       0.017593  -0.003017   0.003031
     2     O       0.065783   0.212695  -0.201731
     3     H       0.042042   0.281844  -0.214654
     4     O      -0.206678   0.207344   0.133833
     5     H      -0.257852   0.220650   0.215726
     6     O      -0.196989  -0.157763  -0.195072
     7     H      -0.215680  -0.169394  -0.284735
     8     O      -0.051064  -0.205741   0.197010
     9     H      -0.074330  -0.259707   0.195419
    10     O       0.004084   0.095754   0.119939
    11     O       0.025401  -0.092135  -0.114469
    12     C       0.021579   0.035971   0.058994
    13     C       0.034576  -0.046293  -0.046378
    14     O       0.044022   0.015615   0.034697
    15     O       0.051059  -0.029069  -0.021899
 
 Mode:    35      Frequency (cm-1):      777.2521     Intensity (km/mol):       95.5047
 Index  Atom      ---- Displacements (x/y/z) ----
     1    Pa       0.000763  -0.005812  -0.007860
     2     O      -0.000440  -0.000472   0.002462
     3     H       0.007149  -0.032773   0.002900
     4     O      -0.004365   0.001619   0.001339
     5     H      -0.002578   0.000841  -0.006583
     6     O       0.003391   0.000755   0.002621
     7     H       0.004461  -0.000743  -0.006356
     8     O      -0.000584  -0.000224   0.002598
     9     H      -0.016410  -0.033073   0.000636
    10     O       0.405524   0.077287   0.243480
    11     O      -0.433377   0.181982   0.094237
    12     C       0.053144  -0.236267  -0.289000
    13     C      -0.006243  -0.227600  -0.299710
    14     O      -0.329236   0.128555   0.046407
    15     O       0.313341   0.046606   0.162650
 
 Mode:    36      Frequency (cm-1):      850.8074     Intensity (km/mol):        0.0133
 Index  Atom      ---- Displacements (x/y/z) ----
     1    Pa      -0.000153   0.000021  -0.000035
     2     O       0.000405  -0.000258  -0.001320
     3     H      -0.003739   0.017323  -0.001524
     4     O      -0.000271   0.000543   0.000043
     5     H      -0.001251   0.000527   0.001030
     6     O      -0.000308  -0.000415  -0.000109
     7     H      -0.000382  -0.000526  -0.001184
     8     O       0.000108   0.000276   0.001548
     9     H      -0.010038  -0.015587   0.001636
    10     O      -0.021728  -0.107695   0.087233
    11     O       0.034991   0.105135  -0.085369
    12     C       0.145973   0.517360  -0.409203
    13     C      -0.134773  -0.518170   0.410419
    14     O      -0.041527  -0.120340   0.090157
    15     O       0.023116   0.122951  -0.092584
 
 Mode:    37      Frequency (cm-1):      863.9745     Intensity (km/mol):       82.4873
 Index  Atom      ---- Displacements (x/y/z) ----
     1    Pa       0.007540  -0.000881   0.001304
     2     O      -0.006534  -0.023929   0.020939
     3     H      -0.003958  -0.026016   0.027531
     4     O       0.020824  -0.017648  -0.011762
     5     H       0.015237  -0.018598  -0.002828
     6     O       0.019269   0.013000   0.018122
     7     H       0.017662   0.013903   0.006490
     8     O       0.005844   0.024051  -0.021131
     9     H       0.012979   0.024545  -0.027193
    10     O      -0.420568   0.000951  -0.143145
    11     O      -0.432153   0.106653  -0.009427
    12     C      -0.015836   0.268484   0.317178
    13     C       0.029672  -0.270897  -0.313261
    14     O       0.343012  -0.042396   0.076585
    15     O       0.348367  -0.045763   0.047799
 
 Mode:    38      Frequency (cm-1):     1151.6775     Intensity (km/mol):       57.0750
 Index  Atom      ---- Displacements (x/y/z) ----
     1    Pa      -0.000414   0.003047   0.004466
     2     O       0.002267  -0.006899  -0.008598
     3     H      -0.000263   0.067798   0.009148
     4     O      -0.001429  -0.004133  -0.005122
     5     H       0.011259   0.003737   0.010375
     6     O       0.001976  -0.004109  -0.004099
     7     H      -0.009495   0.006067   0.006734
     8     O      -0.000974  -0.006161  -0.008939
     9     H       0.017789   0.063483   0.002942
    10     O       0.329064  -0.156096  -0.082425
    11     O      -0.308743  -0.074545  -0.198215
    12     C      -0.400940   0.301350   0.249245
    13     C       0.352861   0.207533   0.387064
    14     O      -0.119222  -0.074749  -0.141455
    15     O       0.137891  -0.107991  -0.094875
 
 Mode:    39      Frequency (cm-1):     1297.7077     Intensity (km/mol):      582.7571
 Index  Atom      ---- Displacements (x/y/z) ----
     1    Pa       0.000005   0.000042  -0.000011
     2     O       0.000872   0.011823  -0.009230
     3     H       0.004617  -0.002930  -0.016784
     4     O      -0.008296   0.006686   0.005682
     5     H       0.000830   0.007476  -0.007341
     6     O      -0.007395  -0.004991  -0.008193
     7     H      -0.002940  -0.006602   0.008301
     8     O      -0.004577  -0.011754   0.008773
     9     H      -0.002974   0.005333   0.018503
    10     O       0.326782  -0.141750  -0.066329
    11     O       0.306783   0.060530   0.179728
    12     C      -0.364867   0.348722   0.320430
    13     C      -0.304438  -0.262537  -0.439506
    14     O      -0.050635  -0.051669  -0.085511
    15     O      -0.061436   0.065654   0.064403
 
 Mode:    40      Frequency (cm-1):     1738.2217     Intensity (km/mol):      158.3250
 Index  Atom      ---- Displacements (x/y/z) ----
     1    Pa      -0.000255   0.001143   0.001427
     2     O       0.000624  -0.001840  -0.001424
     3     H      -0.001223   0.011332   0.001938
     4     O      -0.000577  -0.000657  -0.000841
     5     H       0.002449   0.001068   0.001009
     6     O       0.001077  -0.000548  -0.000156
     7     H      -0.001772   0.002204  -0.000036
     8     O      -0.000149  -0.001121  -0.001927
     9     H       0.002376   0.010106   0.000898
    10     O       0.017205  -0.000066   0.006870
    11     O      -0.022047   0.004462  -0.001090
    12     C      -0.472930  -0.101065  -0.301950
    13     C       0.557308  -0.250322  -0.139640
    14     O       0.282568   0.077008   0.202869
    15     O      -0.338439   0.168321   0.106151
 
 Mode:    41      Frequency (cm-1):     1761.1473     Intensity (km/mol):     1135.9313
 Index  Atom      ---- Displacements (x/y/z) ----
     1    Pa      -0.002871   0.000271  -0.000555
     2     O       0.001530  -0.005845   0.004638
     3     H      -0.012620   0.007838   0.002566
     4     O       0.005497  -0.003229  -0.002518
     5     H      -0.002942  -0.007317   0.003284
     6     O       0.004956   0.002173   0.004265
     7     H       0.001440   0.006448  -0.004476
     8     O       0.004152   0.005534  -0.003469
     9     H      -0.012543  -0.006964  -0.007429
    10     O      -0.047904   0.015020   0.001135
    11     O      -0.044434  -0.002953  -0.017945
    12     C       0.501073   0.123589   0.343612
    13     C       0.491322  -0.234550  -0.142458
    14     O      -0.313850  -0.090294  -0.231773
    15     O      -0.311337   0.158933   0.103151
 
 Mode:    42      Frequency (cm-1):     3861.8900     Intensity (km/mol):       12.9232
 Index  Atom      ---- Displacements (x/y/z) ----
     1    Pa       0.000017  -0.000004   0.000007
     2     O       0.030440   0.007852  -0.027979
     3     H      -0.485696  -0.120542   0.443018
     4     O       0.000418  -0.002685   0.000827
     5     H      -0.009392   0.045626  -0.010946
     6     O      -0.002158  -0.003632   0.000444
     7     H       0.031691   0.055721  -0.010569
     8     O       0.017082  -0.011930   0.041430
     9     H      -0.274465   0.186044  -0.657953
    10     O       0.000385   0.000013   0.000092
    11     O       0.000394  -0.000105   0.000044
    12     C      -0.000451   0.000067  -0.000119
    13     C      -0.000474   0.000037  -0.000060
    14     O       0.000179   0.000024   0.000126
    15     O       0.000200  -0.000075  -0.000049
 
 Mode:    43      Frequency (cm-1):     3863.7871     Intensity (km/mol):       78.5026
 Index  Atom      ---- Displacements (x/y/z) ----
     1    Pa       0.000009   0.000029  -0.000017
     2     O      -0.004970  -0.001349   0.004635
     3     H       0.078894   0.019124  -0.071991
     4     O      -0.002550   0.012250  -0.002964
     5     H       0.040842  -0.196937   0.046826
     6     O       0.029169   0.051129  -0.009362
     7     H      -0.462633  -0.815629   0.154750
     8     O       0.004558  -0.002981   0.010806
     9     H      -0.073589   0.048617  -0.175111
    10     O       0.000033  -0.000005  -0.000024
    11     O      -0.000168   0.000055  -0.000001
    12     C       0.000009   0.000031   0.000027
    13     C       0.000159  -0.000024   0.000023
    14     O      -0.000012  -0.000013  -0.000017
    15     O      -0.000069   0.000023   0.000010
 
 Mode:    44      Frequency (cm-1):     3865.2784     Intensity (km/mol):       61.6105
 Index  Atom      ---- Displacements (x/y/z) ----
     1    Pa       0.000004   0.000017  -0.000009
     2     O      -0.008121  -0.001875   0.007312
     3     H       0.131564   0.031794  -0.119478
     4     O      -0.011776   0.055365  -0.012919
     5     H       0.183004  -0.881345   0.210467
     6     O      -0.008149  -0.014217   0.002476
     7     H       0.127782   0.225327  -0.042879
     8     O       0.004604  -0.003400   0.011445
     9     H      -0.074392   0.050317  -0.178635
    10     O       0.000217   0.000029   0.000085
    11     O       0.000096  -0.000024  -0.000039
    12     C      -0.000241   0.000013  -0.000074
    13     C      -0.000143   0.000059   0.000003
    14     O       0.000101   0.000015   0.000067
    15     O       0.000070  -0.000037  -0.000026
 
 Mode:    45      Frequency (cm-1):     3866.3205     Intensity (km/mol):      180.7954
 Index  Atom      ---- Displacements (x/y/z) ----
     1    Pa       0.000006  -0.000003  -0.000014
     2     O       0.032396   0.008312  -0.029757
     3     H      -0.516741  -0.127951   0.470699
     4     O      -0.003955   0.018579  -0.004362
     5     H       0.061510  -0.296467   0.070904
     6     O       0.004258   0.007480  -0.001430
     7     H      -0.068069  -0.120068   0.023135
     8     O      -0.014232   0.009816  -0.034379
     9     H       0.228395  -0.154195   0.546699
    10     O       0.000039  -0.000056   0.000045
    11     O       0.000034  -0.000071   0.000030
    12     C      -0.000048   0.000006   0.000051
    13     C      -0.000090   0.000012   0.000052
    14     O       0.000023   0.000007  -0.000018
    15     O       0.000039  -0.000014  -0.000036

PES point character: Geometry corresponds to a local minimum on the PES.




 ============================
 Statistical Thermal Analysis  ***  ideal gas assumed  ***
 ============================
  
 Pressure:                  1.000000 atm.
 Temperature:             298.150000 K



 Moments of Inertia [amu*bohr^2] and principal axis
 ==================================================

        1414.1054       3571.5067       3803.0699
 ------------------------------------------------
           0.9781         -0.0621         -0.1988
          -0.1182          0.6203         -0.7754
           0.1715          0.7819          0.5994


 The rotational contribution to the molecular entropy includes
 a term, dependent on the symmetry number sigma. The results 
 reported below were computed using sigma = 1, determined from
 the point group symmetry of the input geometry (NOSYM). 
 If this is not the correct symmetry, try symmetrizing the molecule before
 running the calculation (note: linear molecules should be aligned along one
 of the Cartesian axes).
 Contributions from frequencies below 20 1/cm are not included in vibrational sums.
 Their contributions, if any, are reported separately.


     Temp                                                        Transl      Rotat     Vibrat     Total
     ----                                                        ------      -----     ------     -----

     298.15   Entropy (cal/mol-K):                               43.752     31.330     56.899    131.981
              Nuclear Internal Energy (kcal/mol):                 0.889      0.889     54.134     55.912
              Constant Volume Heat Capacity (cal/mol-K):          2.981      2.981     48.565     54.527
          (c) Constant Volume Heat Capacity (cal/mol-K):          2.981      2.981     43.606     49.567

       Summary of energy terms
                                                   hartree              eV         kcal/mol           kJ/mol
                                      --------------------     -----------       ----------      -----------
      Energy from Engine:               -4.661264800661108       -126.8395         -2924.99        -12238.15
      Nuclear Internal Energy:           0.089101205804003          2.4246            55.91           233.94
  (c) Nuclear Internal Energy:           0.086545528850338          2.3550            54.31           227.23
      Internal Energy U:                -4.572163594857106       -124.4149         -2869.08        -12004.21
      pV/n = RT:                         0.000944186013486          0.0257             0.59             2.48
      Enthalpy H:                       -4.571219408843620       -124.3892         -2868.48        -12001.73
      -T*S:                             -0.062708317682376         -1.7064           -39.35          -164.64
  (c) -T*S:                             -0.060645982068104         -1.6503           -38.06          -159.23
      Gibbs free energy:                -4.633927726525996       -126.0956         -2907.83        -12166.38
 
 
 
  (c) The properties marked with this symbol have been corrected using 'low vibrational frequency free rotor
      interpolation corrections'. For those terms all positive frequencies are used (also ones below 20 1/cm),
      but the contribution to the partition function of small vibrational frequencies is modified as described
      in the following paper:
      S. Grimme, 'Supramolecular Binding Thermodynamics by Dispersion-Corrected Density Functional Theory'
      (Chem. Eur. J. 2012, 18, 9955-9964)
      Configuration: Dampener Frequency          :   100.000 1/cm
                     Dampener Alpha              :     4.000
                     Averaging Moment of Inertia : 1.000E-44 kg m2

--------------
Atomic charges
--------------
  Index   Atom    Charge
      1     Pa    2.6688
      2      O   -0.6565
      3      H    0.0767
      4      O   -0.6751
      5      H    0.0948
      6      O   -0.6767
      7      H    0.0980
      8      O   -0.6572
      9      H    0.0784
     10      O   -0.7404
     11      O   -0.7411
     12      C    0.6430
     13      C    0.6438
     14      O   -0.5783
     15      O   -0.5783


Dipole moment vector    (Debye):   -11.72194224    2.18067581    0.57130085
              magnitude (Debye):    11.93673580


Final PES point is a local minimum. Geometry optimization successful!


AMS application finished. Exiting.
NORMAL TERMINATION
     Total cpu time:   66928.05
  Total system time:    1309.34
 Total elapsed time:   68256.05
