 Entering Gaussian System, Link 0=/home/pcmt/gaussian/g16.C.01/g16/g16
 AtFile(1): /home/shaaban/basis.gaussian/Pa-def-TZVP
 AtFile(1): /home/shaaban/basis.gaussian/Pa-ECP60MWB
 Initial command:
 /home/pcmt/gaussian/g16.C.01/g16/l1.exe "/state/partition2/shaaban/972881.phlam-s-sakura/Gau-150193.inp" -scrdir="/state/partition2/shaaban/972881.phlam-s-sakura/"
 Entering Link 1 = /home/pcmt/gaussian/g16.C.01/g16/l1.exe PID=    150194.
  
 Copyright (c) 1988-2019, Gaussian, Inc.  All Rights Reserved.
  
 This is part of the Gaussian(R) 16 program.  It is based on
 the Gaussian(R) 09 system (copyright 2009, Gaussian, Inc.),
 the Gaussian(R) 03 system (copyright 2003, Gaussian, Inc.),
 the Gaussian(R) 98 system (copyright 1998, Gaussian, Inc.),
 the Gaussian(R) 94 system (copyright 1995, Gaussian, Inc.),
 the Gaussian 92(TM) system (copyright 1992, Gaussian, Inc.),
 the Gaussian 90(TM) system (copyright 1990, Gaussian, Inc.),
 the Gaussian 88(TM) system (copyright 1988, Gaussian, Inc.),
 the Gaussian 86(TM) system (copyright 1986, Carnegie Mellon
 University), and the Gaussian 82(TM) system (copyright 1983,
 Carnegie Mellon University). Gaussian is a federally registered
 trademark of Gaussian, Inc.
  
 This software contains proprietary and confidential information,
 including trade secrets, belonging to Gaussian, Inc.
  
 This software is provided under written license and may be
 used, copied, transmitted, or stored only in accord with that
 written license.
  
 The following legend is applicable only to US Government
 contracts under FAR:
  
                    RESTRICTED RIGHTS LEGEND
  
 Use, reproduction and disclosure by the US Government is
 subject to restrictions as set forth in subparagraphs (a)
 and (c) of the Commercial Computer Software - Restricted
 Rights clause in FAR 52.227-19.
  
 Gaussian, Inc.
 340 Quinnipiac St., Bldg. 40, Wallingford CT 06492
  
  
 ---------------------------------------------------------------
 Warning -- This program may not be used in any manner that
 competes with the business of Gaussian, Inc. or will provide
 assistance to any competitor of Gaussian, Inc.  The licensee
 of this program is prohibited from giving any competitor of
 Gaussian, Inc. access to this program.  By using this program,
 the user acknowledges that Gaussian, Inc. is engaged in the
 business of creating and licensing software in the field of
 computational chemistry and represents and warrants to the
 licensee that it is not a competitor of Gaussian, Inc. and that
 it will not use this program in any manner prohibited above.
 ---------------------------------------------------------------
  

 Cite this work as:
 Gaussian 16, Revision C.01,
 M. J. Frisch, G. W. Trucks, H. B. Schlegel, G. E. Scuseria, 
 M. A. Robb, J. R. Cheeseman, G. Scalmani, V. Barone, 
 G. A. Petersson, H. Nakatsuji, X. Li, M. Caricato, A. V. Marenich, 
 J. Bloino, B. G. Janesko, R. Gomperts, B. Mennucci, H. P. Hratchian, 
 J. V. Ortiz, A. F. Izmaylov, J. L. Sonnenberg, D. Williams-Young, 
 F. Ding, F. Lipparini, F. Egidi, J. Goings, B. Peng, A. Petrone, 
 T. Henderson, D. Ranasinghe, V. G. Zakrzewski, J. Gao, N. Rega, 
 G. Zheng, W. Liang, M. Hada, M. Ehara, K. Toyota, R. Fukuda, 
 J. Hasegawa, M. Ishida, T. Nakajima, Y. Honda, O. Kitao, H. Nakai, 
 T. Vreven, K. Throssell, J. A. Montgomery, Jr., J. E. Peralta, 
 F. Ogliaro, M. J. Bearpark, J. J. Heyd, E. N. Brothers, K. N. Kudin, 
 V. N. Staroverov, T. A. Keith, R. Kobayashi, J. Normand, 
 K. Raghavachari, A. P. Rendell, J. C. Burant, S. S. Iyengar, 
 J. Tomasi, M. Cossi, J. M. Millam, M. Klene, C. Adamo, R. Cammi, 
 J. W. Ochterski, R. L. Martin, K. Morokuma, O. Farkas, 
 J. B. Foresman, and D. J. Fox, Gaussian, Inc., Wallingford CT, 2019.
 
 ******************************************
 Gaussian 16:  ES64L-G16RevC.01  3-Jul-2019
                 4-Jul-2023 
 ******************************************
 %mem=16Gb
 %NProc=8
 Will use up to    8 processors via shared memory.
 %chk=pao_oh2_br_h2o-bp86-cosmors-deftzvp-klamt.chk
 ----------------------------------------------------------------------
 #p BP86/GEN Pseudo=Read GFInput GFPrint IOP(6/7=3) Symm=(Loose) Int=(U
 ltraFine) Guess=(Harris) SCRF=(COSMORS) Scf=(NoVarAcc,MaxCycle=100,con
 ver=8)
 ----------------------------------------------------------------------
 1/38=1,172=1/1;
 2/12=2,17=4,18=3,40=1/2;
 3/5=7,11=2,16=1,17=8,24=110,25=1,30=1,70=12101,74=404,75=-5/1,2,3;
 4/11=8/1;
 5/5=2,6=8,7=100,38=1/2;
 6/7=3,8=2,9=2,10=2,28=1/1;
 99/5=1,9=1/99;
 Leave Link    1 at Tue Jul  4 11:12:22 2023, MaxMem=  2147483648 cpu:               0.7 elap:               0.1
 (Enter /home/pcmt/gaussian/g16.C.01/g16/l101.exe)
 --------------------------------------------------------------------
 pao_oh2_br_h2o-bp86-cosmors-deftzvp-klamt.com SGP in PCM calculation
 --------------------------------------------------------------------
 Symbolic Z-matrix:
 Charge =  0 Multiplicity = 1
 Pa                   -0.16098   0.07362   0.80252 
 O                     1.10867   1.52552  -0.11014 
 O                    -1.74014   0.80804  -0.35975 
 Br                   -0.92895   1.64837   3.10836 
 H                    -1.8284    1.55175  -0.97179 
 O                     0.03139  -1.63455  -1.00304 
 H                    -0.47027  -1.65284  -1.82875 
 H                     0.7128   -2.31682  -1.06398 
 H                     2.06359   1.62057  -0.01164 
 O                     1.18719  -0.85412   1.67519 
 
 ITRead=  0  0  0  0  0  0  0  0  0  0
 MicOpt= -1 -1 -1 -1 -1 -1 -1 -1 -1 -1
 NAtoms=     10 NQM=       10 NQMF=       0 NMMI=      0 NMMIF=      0
                NMic=       0 NMicF=      0.
                    Isotopes and Nuclear Properties:
 (Nuclear quadrupole moments (NQMom) in fm**2, nuclear magnetic moments (NMagM)
  in nuclear magnetons)

  Atom         1           2           3           4           5           6           7           8           9          10
 IAtWgt=         231          16          16          79           1          16           1           1           1          16
 AtmWgt= 231.0359000  15.9949146  15.9949146  78.9183361   1.0078250  15.9949146   1.0078250   1.0078250   1.0078250  15.9949146
 NucSpn=           3           0           0           3           1           0           1           1           1           0
 AtZEff=  -0.0000000  -0.0000000  -0.0000000  -0.0000000  -0.0000000  -0.0000000  -0.0000000  -0.0000000  -0.0000000  -0.0000000
 NQMom= -172.0000000   0.0000000   0.0000000  31.3000000   0.0000000   0.0000000   0.0000000   0.0000000   0.0000000   0.0000000
 NMagM=    2.0100000   0.0000000   0.0000000   2.1063990   2.7928460   0.0000000   2.7928460   2.7928460   2.7928460   0.0000000
 AtZNuc=  91.0000000   8.0000000   8.0000000  35.0000000   1.0000000   8.0000000   1.0000000   1.0000000   1.0000000   8.0000000
 Leave Link  101 at Tue Jul  4 11:12:22 2023, MaxMem=  2147483648 cpu:               0.7 elap:               0.1
 (Enter /home/pcmt/gaussian/g16.C.01/g16/l202.exe)
                          Input orientation:                          
 ---------------------------------------------------------------------
 Center     Atomic      Atomic             Coordinates (Angstroms)
 Number     Number       Type             X           Y           Z
 ---------------------------------------------------------------------
      1         91           0       -0.160985    0.073619    0.802522
      2          8           0        1.108665    1.525522   -0.110136
      3          8           0       -1.740139    0.808042   -0.359747
      4         35           0       -0.928949    1.648369    3.108359
      5          1           0       -1.828400    1.551750   -0.971791
      6          8           0        0.031389   -1.634553   -1.003042
      7          1           0       -0.470267   -1.652842   -1.828746
      8          1           0        0.712804   -2.316817   -1.063984
      9          1           0        2.063589    1.620570   -0.011638
     10          8           0        1.187195   -0.854123    1.675191
 ---------------------------------------------------------------------
                    Distance matrix (angstroms):
                    1          2          3          4          5
     1  Pa   0.000000
     2  O    2.133771   0.000000
     3  O    2.093794   2.948351   0.000000
     4  Br   2.895943   3.811256   3.659499   0.000000
     5  H    2.848391   3.060963   0.967207   4.179231   0.000000
     6  O    2.492975   3.455992   3.085192   5.348218   3.689487
     7  H    3.162261   3.943177   3.134723   5.956793   3.584454
     8  H    3.156190   3.978706   4.034553   5.985523   4.629474
     9  H    2.829248   0.964684   3.905090   4.323244   4.009266
    10  O    1.854682   2.975949   3.933580   3.576940   4.678521
                    6          7          8          9         10
     6  O    0.000000
     7  H    0.966322   0.000000
     8  H    0.966190   1.557363   0.000000
     9  H    3.963400   4.520788   4.293607   0.000000
    10  O    3.019585   3.957613   3.141274   3.120507   0.000000
 Stoichiometry    BrH4O4Pa
 Framework group  C1[X(BrH4O4Pa)]
 Deg. of freedom    24
 Full point group                 C1      NOp   1
 Largest Abelian subgroup         C1      NOp   1
 Largest concise Abelian subgroup C1      NOp   1
                         Standard orientation:                         
 ---------------------------------------------------------------------
 Center     Atomic      Atomic             Coordinates (Angstroms)
 Number     Number       Type             X           Y           Z
 ---------------------------------------------------------------------
      1         91           0        0.439108   -0.052203   -0.067623
      2          8           0        0.682217    0.185114    2.038928
      3          8           0        0.592305    2.026952   -0.261576
      4         35           0       -2.455813    0.007070   -0.116702
      5          1           0        0.655939    2.753410    0.373798
      6          8           0        2.867607   -0.023784   -0.630213
      7          1           0        3.420091    0.761431   -0.739660
      8          1           0        3.452539   -0.792667   -0.644235
      9          1           0        0.779940   -0.506816    2.703983
     10          8           0        0.568639   -1.902321   -0.079088
 ---------------------------------------------------------------------
 Rotational constants (GHZ):           2.3142977           0.6483574           0.6097838
 Leave Link  202 at Tue Jul  4 11:12:22 2023, MaxMem=  2147483648 cpu:               0.1 elap:               0.0
 (Enter /home/pcmt/gaussian/g16.C.01/g16/l301.exe)
 General basis read from cards:  (5D, 7F)
 Centers:       1
 S 3 1.00
     Exponent=  1.2047376000D+04 Coefficients=  3.4500000000D-04
     Exponent=  1.8116841000D+03 Coefficients=  2.7420000000D-03
     Exponent=  3.4770104000D+02 Coefficients=  1.0053000000D-02
 S 1 1.00
     Exponent=  9.8678010000D+01 Coefficients=  1.0000000000D+00
 S 3 1.00
     Exponent=  5.7507376000D+01 Coefficients=  5.1528000000D-02
     Exponent=  3.3502601000D+01 Coefficients= -2.3692400000D-01
     Exponent=  1.9554451000D+01 Coefficients=  7.1904800000D-01
 S 1 1.00
     Exponent=  9.7164210000D+00 Coefficients=  1.0000000000D+00
 S 1 1.00
     Exponent=  2.6920960000D+00 Coefficients=  1.0000000000D+00
 S 1 1.00
     Exponent=  1.4538470000D+00 Coefficients=  1.0000000000D+00
 S 1 1.00
     Exponent=  5.7435200000D-01 Coefficients=  1.0000000000D+00
 S 1 1.00
     Exponent=  2.6346800000D-01 Coefficients=  1.0000000000D+00
 S 1 1.00
     Exponent=  5.6557000000D-02 Coefficients=  1.0000000000D+00
 S 1 1.00
     Exponent=  2.3169000000D-02 Coefficients=  1.0000000000D+00
 P 5 1.00
     Exponent=  2.9033676000D+03 Coefficients=  3.5000000000D-05
     Exponent=  6.4486356000D+02 Coefficients=  2.0500000000D-04
     Exponent=  2.2025896000D+02 Coefficients=  1.2510000000D-03
     Exponent=  8.0276401000D+01 Coefficients=  2.4570000000D-03
     Exponent=  2.4080211000D+01 Coefficients=  1.1190000000D-02
 P 1 1.00
     Exponent=  1.4077580000D+01 Coefficients=  1.0000000000D+00
 P 1 1.00
     Exponent=  8.2658460000D+00 Coefficients=  1.0000000000D+00
 P 1 1.00
     Exponent=  3.5948000000D+00 Coefficients=  1.0000000000D+00
 P 1 1.00
     Exponent=  1.7531110000D+00 Coefficients=  1.0000000000D+00
 P 1 1.00
     Exponent=  6.5776700000D-01 Coefficients=  1.0000000000D+00
 P 1 1.00
     Exponent=  2.8463900000D-01 Coefficients=  1.0000000000D+00
 P 1 1.00
     Exponent=  1.0054300000D-01 Coefficients=  1.0000000000D+00
 P 1 1.00
     Exponent=  3.0190000000D-02 Coefficients=  1.0000000000D+00
 D 6 1.00
     Exponent=  4.4814991000D+02 Coefficients=  2.6000000000D-05
     Exponent=  1.5446145000D+02 Coefficients=  2.2800000000D-04
     Exponent=  6.0925377000D+01 Coefficients=  9.0400000000D-04
     Exponent=  1.7032091000D+01 Coefficients=  2.5647000000D-02
     Exponent=  1.0018877000D+01 Coefficients= -1.0575100000D-01
     Exponent=  3.4091930000D+00 Coefficients=  4.4743200000D-01
 D 1 1.00
     Exponent=  1.6702130000D+00 Coefficients=  1.0000000000D+00
 D 1 1.00
     Exponent=  7.4109500000D-01 Coefficients=  1.0000000000D+00
 D 1 1.00
     Exponent=  2.6139300000D-01 Coefficients=  1.0000000000D+00
 D 1 1.00
     Exponent=  8.2811000000D-02 Coefficients=  1.0000000000D+00
 F 5 1.00
     Exponent=  8.7991327000D+01 Coefficients=  2.2600000000D-04
     Exponent=  2.8340195000D+01 Coefficients=  2.3230000000D-03
     Exponent=  1.2440994000D+01 Coefficients=  4.5850000000D-03
     Exponent=  3.9572960000D+00 Coefficients=  1.5696100000D-01
     Exponent=  1.8759440000D+00 Coefficients=  3.4497700000D-01
 F 1 1.00
     Exponent=  8.2758900000D-01 Coefficients=  1.0000000000D+00
 F 1 1.00
     Exponent=  3.3274800000D-01 Coefficients=  1.0000000000D+00
 F 1 1.00
     Exponent=  1.1468500000D-01 Coefficients=  1.0000000000D+00
 G 1 1.00
     Exponent=  3.5000000000D-01 Coefficients=  1.0000000000D+00
 ****
 Centers:       2      3      6     10
 Def2TZVP
 ****
 Centers:       5      7      8      9
 Def2TZVP
 ****
 Centers:       4
 Def2TZVP
 ****
 ======================================================================================================
                                       Pseudopotential Parameters
 ======================================================================================================
  Center     Atomic      Valence      Angular      Power
  Number     Number     Electrons     Momentum     of R      Exponent        Coefficient   SO-Coeffient
 ======================================================================================================
    1         91           31
                                      H and up 
                                                     2        1.0000000        0.00000000    0.00000000
                                      S - H
                                                     2       15.2691737      475.47573283    0.00000000
                                      P - H
                                                     2        9.9577370      207.66485962    0.00000000
                                      D - H
                                                     2        8.9431413      156.67411988    0.00000000
                                      F - H
                                                     2        7.0104666       67.98223685    0.00000000
                                      G - H
                                                     2       12.2010560      -57.63059989    0.00000000
    2          8
                                   No pseudopotential on this center.
    3          8
                                   No pseudopotential on this center.
    4         35
                                   No pseudopotential on this center.
    5          1
                                   No pseudopotential on this center.
    6          8
                                   No pseudopotential on this center.
    7          1
                                   No pseudopotential on this center.
    8          1
                                   No pseudopotential on this center.
    9          1
                                   No pseudopotential on this center.
   10          8
                                   No pseudopotential on this center.
 ======================================================================================================
 Ernie: Thresh=  0.10000D-02 Tol=  0.10000D-05 Strict=F.
 AO basis set in the form of general basis input (Overlap normalization):
      1 0
 S   3 1.00       0.000000000000
      0.1204737600D+05  0.2857094961D-01
      0.1811684100D+04  0.2270769386D+00
      0.3477010400D+03  0.8325326273D+00
 S   3 1.00       0.000000000000
      0.5750737600D+02  0.9569327984D-01
      0.3350260100D+02 -0.4399944619D+00
      0.1955445100D+02  0.1335352847D+01
 S   1 1.00       0.000000000000
      0.9867801000D+02  0.1000000000D+01
 S   1 1.00       0.000000000000
      0.9716421000D+01  0.1000000000D+01
 S   1 1.00       0.000000000000
      0.2692096000D+01  0.1000000000D+01
 S   1 1.00       0.000000000000
      0.1453847000D+01  0.1000000000D+01
 S   1 1.00       0.000000000000
      0.5743520000D+00  0.1000000000D+01
 S   1 1.00       0.000000000000
      0.2634680000D+00  0.1000000000D+01
 S   1 1.00       0.000000000000
      0.5655700000D-01  0.1000000000D+01
 S   1 1.00       0.000000000000
      0.2316900000D-01  0.1000000000D+01
 P   5 1.00       0.000000000000
      0.2903367600D+04  0.2594222647D-02
      0.6448635600D+03  0.1519473264D-01
      0.2202589600D+03  0.9272492945D-01
      0.8027640100D+02  0.1821144298D+00
      0.2408021100D+02  0.8294100404D+00
 P   1 1.00       0.000000000000
      0.1407758000D+02  0.1000000000D+01
 P   1 1.00       0.000000000000
      0.8265846000D+01  0.1000000000D+01
 P   1 1.00       0.000000000000
      0.3594800000D+01  0.1000000000D+01
 P   1 1.00       0.000000000000
      0.1753111000D+01  0.1000000000D+01
 P   1 1.00       0.000000000000
      0.6577670000D+00  0.1000000000D+01
 P   1 1.00       0.000000000000
      0.2846390000D+00  0.1000000000D+01
 P   1 1.00       0.000000000000
      0.1005430000D+00  0.1000000000D+01
 P   1 1.00       0.000000000000
      0.3019000000D-01  0.1000000000D+01
 D   6 1.00       0.000000000000
      0.4481499100D+03  0.6556927566D-04
      0.1544614500D+03  0.5749921096D-03
      0.6092537700D+02  0.2279793277D-02
      0.1703209100D+02  0.6467904664D-01
      0.1001887700D+02 -0.2666929411D+00
      0.3409193000D+01  0.1128376621D+01
 D   1 1.00       0.000000000000
      0.1670213000D+01  0.1000000000D+01
 D   1 1.00       0.000000000000
      0.7410950000D+00  0.1000000000D+01
 D   1 1.00       0.000000000000
      0.2613930000D+00  0.1000000000D+01
 D   1 1.00       0.000000000000
      0.8281100000D-01  0.1000000000D+01
 F   5 1.00       0.000000000000
      0.8799132700D+02  0.4766318191D-03
      0.2834019500D+02  0.4899184583D-02
      0.1244099400D+02  0.9669720755D-02
      0.3957296000D+01  0.3310292343D+00
      0.1875944000D+01  0.7275531640D+00
 F   1 1.00       0.000000000000
      0.8275890000D+00  0.1000000000D+01
 F   1 1.00       0.000000000000
      0.3327480000D+00  0.1000000000D+01
 F   1 1.00       0.000000000000
      0.1146850000D+00  0.1000000000D+01
 G   1 1.00       0.000000000000
      0.3500000000D+00  0.1000000000D+01
 ****
      2 0
 S   6 1.00       0.000000000000
      0.2703238263D+05  0.5722733521D-03
      0.4052387139D+04  0.4435323349D-02
      0.9223272271D+03  0.2302010771D-01
      0.2612407099D+03  0.9282249067D-01
      0.8535464135D+02  0.2937850001D+00
      0.3103503524D+02  0.6740160450D+00
 S   2 1.00       0.000000000000
      0.1226086073D+02  0.6383993703D+00
      0.4998707601D+01  0.3953458713D+00
 S   1 1.00       0.000000000000
      0.1170310816D+01  0.1000000000D+01
 S   1 1.00       0.000000000000
      0.4647474099D+00  0.1000000000D+01
 S   1 1.00       0.000000000000
      0.1850453636D+00  0.1000000000D+01
 P   4 1.00       0.000000000000
      0.6327495480D+02  0.1201833222D-01
      0.1462704938D+02  0.8300542179D-01
      0.4450122346D+01  0.3199174393D+00
      0.1527579965D+01  0.7071554292D+00
 P   1 1.00       0.000000000000
      0.5293511794D+00  0.1000000000D+01
 P   1 1.00       0.000000000000
      0.1747842127D+00  0.1000000000D+01
 D   1 1.00       0.000000000000
      0.2314000000D+01  0.1000000000D+01
 D   1 1.00       0.000000000000
      0.6450000000D+00  0.1000000000D+01
 F   1 1.00       0.000000000000
      0.1428000000D+01  0.1000000000D+01
 ****
      3 0
 S   6 1.00       0.000000000000
      0.2703238263D+05  0.5722733521D-03
      0.4052387139D+04  0.4435323349D-02
      0.9223272271D+03  0.2302010771D-01
      0.2612407099D+03  0.9282249067D-01
      0.8535464135D+02  0.2937850001D+00
      0.3103503524D+02  0.6740160450D+00
 S   2 1.00       0.000000000000
      0.1226086073D+02  0.6383993703D+00
      0.4998707601D+01  0.3953458713D+00
 S   1 1.00       0.000000000000
      0.1170310816D+01  0.1000000000D+01
 S   1 1.00       0.000000000000
      0.4647474099D+00  0.1000000000D+01
 S   1 1.00       0.000000000000
      0.1850453636D+00  0.1000000000D+01
 P   4 1.00       0.000000000000
      0.6327495480D+02  0.1201833222D-01
      0.1462704938D+02  0.8300542179D-01
      0.4450122346D+01  0.3199174393D+00
      0.1527579965D+01  0.7071554292D+00
 P   1 1.00       0.000000000000
      0.5293511794D+00  0.1000000000D+01
 P   1 1.00       0.000000000000
      0.1747842127D+00  0.1000000000D+01
 D   1 1.00       0.000000000000
      0.2314000000D+01  0.1000000000D+01
 D   1 1.00       0.000000000000
      0.6450000000D+00  0.1000000000D+01
 F   1 1.00       0.000000000000
      0.1428000000D+01  0.1000000000D+01
 ****
      4 0
 S   8 1.00       0.000000000000
      0.5650732526D+06  0.2313996799D-03
      0.8470172318D+05  0.1794480895D-02
      0.1927627190D+05  0.9336632833D-02
      0.5456428458D+04  0.3802214115D-01
      0.1776950350D+04  0.1243860819D+00
      0.6391939828D+03  0.2976826547D+00
      0.2487882396D+03  0.4351247869D+00
      0.9867830549D+02  0.2384543263D+00
 S   4 1.00       0.000000000000
      0.6060782457D+03 -0.2580299811D-01
      0.1884559848D+03 -0.1214377016D+00
      0.3149714451D+02  0.5492715414D+00
      0.1373600832D+02  0.5403867432D+00
 S   2 1.00       0.000000000000
      0.2120321277D+02 -0.4189765707D+00
      0.3761642018D+01  0.1196292202D+01
 S   1 1.00       0.000000000000
      0.1773593396D+01  0.1000000000D+01
 S   1 1.00       0.000000000000
      0.4519741366D+00  0.1000000000D+01
 S   1 1.00       0.000000000000
      0.1661337710D+00  0.1000000000D+01
 P   6 1.00       0.000000000000
      0.3019695572D+04  0.2697896720D-02
      0.7153548113D+03  0.2206117705D-01
      0.2299832875D+03  0.1046886297D+00
      0.8616784462D+02  0.3030971016D+00
      0.3466787080D+02  0.4819318191D+00
      0.1411387031D+02  0.2637288336D+00
 P   4 1.00       0.000000000000
      0.5708565308D+02 -0.1928818758D-01
      0.8819384584D+01  0.2886445949D+00
      0.3934030287D+01  0.5105806350D+00
      0.1799883038D+01  0.2962687446D+00
 P   1 1.00       0.000000000000
      0.6689941051D+00  0.1000000000D+01
 P   1 1.00       0.000000000000
      0.2713623823D+00  0.1000000000D+01
 P   1 1.00       0.000000000000
      0.1008379024D+00  0.1000000000D+01
 D   5 1.00       0.000000000000
      0.1688537026D+03  0.9842827717D-02
      0.4997794992D+02  0.6812837709D-01
      0.1827491334D+02  0.2357380148D+00
      0.7245569463D+01  0.4427795439D+00
      0.2856231503D+01  0.4633455553D+00
 D   1 1.00       0.000000000000
      0.1045962114D+01  0.1000000000D+01
 D   1 1.00       0.000000000000
      0.5686565500D+00  0.1000000000D+01
 D   1 1.00       0.000000000000
      0.2203149000D+00  0.1000000000D+01
 F   1 1.00       0.000000000000
      0.5708331200D+00  0.1000000000D+01
 ****
      5 0
 S   3 1.00       0.000000000000
      0.3406134100D+02  0.2543930721D-01
      0.5123574600D+01  0.1900859489D+00
      0.1164662600D+01  0.8524411301D+00
 S   1 1.00       0.000000000000
      0.3272304100D+00  0.1000000000D+01
 S   1 1.00       0.000000000000
      0.1030724100D+00  0.1000000000D+01
 P   1 1.00       0.000000000000
      0.8000000000D+00  0.1000000000D+01
 ****
      6 0
 S   6 1.00       0.000000000000
      0.2703238263D+05  0.5722733521D-03
      0.4052387139D+04  0.4435323349D-02
      0.9223272271D+03  0.2302010771D-01
      0.2612407099D+03  0.9282249067D-01
      0.8535464135D+02  0.2937850001D+00
      0.3103503524D+02  0.6740160450D+00
 S   2 1.00       0.000000000000
      0.1226086073D+02  0.6383993703D+00
      0.4998707601D+01  0.3953458713D+00
 S   1 1.00       0.000000000000
      0.1170310816D+01  0.1000000000D+01
 S   1 1.00       0.000000000000
      0.4647474099D+00  0.1000000000D+01
 S   1 1.00       0.000000000000
      0.1850453636D+00  0.1000000000D+01
 P   4 1.00       0.000000000000
      0.6327495480D+02  0.1201833222D-01
      0.1462704938D+02  0.8300542179D-01
      0.4450122346D+01  0.3199174393D+00
      0.1527579965D+01  0.7071554292D+00
 P   1 1.00       0.000000000000
      0.5293511794D+00  0.1000000000D+01
 P   1 1.00       0.000000000000
      0.1747842127D+00  0.1000000000D+01
 D   1 1.00       0.000000000000
      0.2314000000D+01  0.1000000000D+01
 D   1 1.00       0.000000000000
      0.6450000000D+00  0.1000000000D+01
 F   1 1.00       0.000000000000
      0.1428000000D+01  0.1000000000D+01
 ****
      7 0
 S   3 1.00       0.000000000000
      0.3406134100D+02  0.2543930721D-01
      0.5123574600D+01  0.1900859489D+00
      0.1164662600D+01  0.8524411301D+00
 S   1 1.00       0.000000000000
      0.3272304100D+00  0.1000000000D+01
 S   1 1.00       0.000000000000
      0.1030724100D+00  0.1000000000D+01
 P   1 1.00       0.000000000000
      0.8000000000D+00  0.1000000000D+01
 ****
      8 0
 S   3 1.00       0.000000000000
      0.3406134100D+02  0.2543930721D-01
      0.5123574600D+01  0.1900859489D+00
      0.1164662600D+01  0.8524411301D+00
 S   1 1.00       0.000000000000
      0.3272304100D+00  0.1000000000D+01
 S   1 1.00       0.000000000000
      0.1030724100D+00  0.1000000000D+01
 P   1 1.00       0.000000000000
      0.8000000000D+00  0.1000000000D+01
 ****
      9 0
 S   3 1.00       0.000000000000
      0.3406134100D+02  0.2543930721D-01
      0.5123574600D+01  0.1900859489D+00
      0.1164662600D+01  0.8524411301D+00
 S   1 1.00       0.000000000000
      0.3272304100D+00  0.1000000000D+01
 S   1 1.00       0.000000000000
      0.1030724100D+00  0.1000000000D+01
 P   1 1.00       0.000000000000
      0.8000000000D+00  0.1000000000D+01
 ****
     10 0
 S   6 1.00       0.000000000000
      0.2703238263D+05  0.5722733521D-03
      0.4052387139D+04  0.4435323349D-02
      0.9223272271D+03  0.2302010771D-01
      0.2612407099D+03  0.9282249067D-01
      0.8535464135D+02  0.2937850001D+00
      0.3103503524D+02  0.6740160450D+00
 S   2 1.00       0.000000000000
      0.1226086073D+02  0.6383993703D+00
      0.4998707601D+01  0.3953458713D+00
 S   1 1.00       0.000000000000
      0.1170310816D+01  0.1000000000D+01
 S   1 1.00       0.000000000000
      0.4647474099D+00  0.1000000000D+01
 S   1 1.00       0.000000000000
      0.1850453636D+00  0.1000000000D+01
 P   4 1.00       0.000000000000
      0.6327495480D+02  0.1201833222D-01
      0.1462704938D+02  0.8300542179D-01
      0.4450122346D+01  0.3199174393D+00
      0.1527579965D+01  0.7071554292D+00
 P   1 1.00       0.000000000000
      0.5293511794D+00  0.1000000000D+01
 P   1 1.00       0.000000000000
      0.1747842127D+00  0.1000000000D+01
 D   1 1.00       0.000000000000
      0.2314000000D+01  0.1000000000D+01
 D   1 1.00       0.000000000000
      0.6450000000D+00  0.1000000000D+01
 F   1 1.00       0.000000000000
      0.1428000000D+01  0.1000000000D+01
 ****

 AO basis set (Overlap normalization):
 Atom Pa1      Shell     1 S   3     bf    1 -     1          0.829793079613         -0.098649660216         -0.127789885245
      0.1204737600D+05  0.2857094961D-01
      0.1811684100D+04  0.2270769386D+00
      0.3477010400D+03  0.8325326273D+00
 Atom Pa1      Shell     2 S   3     bf    2 -     2          0.829793079613         -0.098649660216         -0.127789885245
      0.5750737600D+02  0.9569327984D-01
      0.3350260100D+02 -0.4399944619D+00
      0.1955445100D+02  0.1335352847D+01
 Atom Pa1      Shell     3 S   1     bf    3 -     3          0.829793079613         -0.098649660216         -0.127789885245
      0.9867801000D+02  0.1000000000D+01
 Atom Pa1      Shell     4 S   1     bf    4 -     4          0.829793079613         -0.098649660216         -0.127789885245
      0.9716421000D+01  0.1000000000D+01
 Atom Pa1      Shell     5 S   1     bf    5 -     5          0.829793079613         -0.098649660216         -0.127789885245
      0.2692096000D+01  0.1000000000D+01
 Atom Pa1      Shell     6 S   1     bf    6 -     6          0.829793079613         -0.098649660216         -0.127789885245
      0.1453847000D+01  0.1000000000D+01
 Atom Pa1      Shell     7 S   1     bf    7 -     7          0.829793079613         -0.098649660216         -0.127789885245
      0.5743520000D+00  0.1000000000D+01
 Atom Pa1      Shell     8 S   1     bf    8 -     8          0.829793079613         -0.098649660216         -0.127789885245
      0.2634680000D+00  0.1000000000D+01
 Atom Pa1      Shell     9 S   1     bf    9 -     9          0.829793079613         -0.098649660216         -0.127789885245
      0.5655700000D-01  0.1000000000D+01
 Atom Pa1      Shell    10 S   1     bf   10 -    10          0.829793079613         -0.098649660216         -0.127789885245
      0.2316900000D-01  0.1000000000D+01
 Atom Pa1      Shell    11 P   5     bf   11 -    13          0.829793079613         -0.098649660216         -0.127789885245
      0.2903367600D+04  0.2594222647D-02
      0.6448635600D+03  0.1519473264D-01
      0.2202589600D+03  0.9272492945D-01
      0.8027640100D+02  0.1821144298D+00
      0.2408021100D+02  0.8294100404D+00
 Atom Pa1      Shell    12 P   1     bf   14 -    16          0.829793079613         -0.098649660216         -0.127789885245
      0.1407758000D+02  0.1000000000D+01
 Atom Pa1      Shell    13 P   1     bf   17 -    19          0.829793079613         -0.098649660216         -0.127789885245
      0.8265846000D+01  0.1000000000D+01
 Atom Pa1      Shell    14 P   1     bf   20 -    22          0.829793079613         -0.098649660216         -0.127789885245
      0.3594800000D+01  0.1000000000D+01
 Atom Pa1      Shell    15 P   1     bf   23 -    25          0.829793079613         -0.098649660216         -0.127789885245
      0.1753111000D+01  0.1000000000D+01
 Atom Pa1      Shell    16 P   1     bf   26 -    28          0.829793079613         -0.098649660216         -0.127789885245
      0.6577670000D+00  0.1000000000D+01
 Atom Pa1      Shell    17 P   1     bf   29 -    31          0.829793079613         -0.098649660216         -0.127789885245
      0.2846390000D+00  0.1000000000D+01
 Atom Pa1      Shell    18 P   1     bf   32 -    34          0.829793079613         -0.098649660216         -0.127789885245
      0.1005430000D+00  0.1000000000D+01
 Atom Pa1      Shell    19 P   1     bf   35 -    37          0.829793079613         -0.098649660216         -0.127789885245
      0.3019000000D-01  0.1000000000D+01
 Atom Pa1      Shell    20 D   6     bf   38 -    42          0.829793079613         -0.098649660216         -0.127789885245
      0.4481499100D+03  0.6556927566D-04
      0.1544614500D+03  0.5749921096D-03
      0.6092537700D+02  0.2279793277D-02
      0.1703209100D+02  0.6467904664D-01
      0.1001887700D+02 -0.2666929411D+00
      0.3409193000D+01  0.1128376621D+01
 Atom Pa1      Shell    21 D   1     bf   43 -    47          0.829793079613         -0.098649660216         -0.127789885245
      0.1670213000D+01  0.1000000000D+01
 Atom Pa1      Shell    22 D   1     bf   48 -    52          0.829793079613         -0.098649660216         -0.127789885245
      0.7410950000D+00  0.1000000000D+01
 Atom Pa1      Shell    23 D   1     bf   53 -    57          0.829793079613         -0.098649660216         -0.127789885245
      0.2613930000D+00  0.1000000000D+01
 Atom Pa1      Shell    24 D   1     bf   58 -    62          0.829793079613         -0.098649660216         -0.127789885245
      0.8281100000D-01  0.1000000000D+01
 Atom Pa1      Shell    25 F   5     bf   63 -    69          0.829793079613         -0.098649660216         -0.127789885245
      0.8799132700D+02  0.4766318191D-03
      0.2834019500D+02  0.4899184583D-02
      0.1244099400D+02  0.9669720755D-02
      0.3957296000D+01  0.3310292343D+00
      0.1875944000D+01  0.7275531640D+00
 Atom Pa1      Shell    26 F   1     bf   70 -    76          0.829793079613         -0.098649660216         -0.127789885245
      0.8275890000D+00  0.1000000000D+01
 Atom Pa1      Shell    27 F   1     bf   77 -    83          0.829793079613         -0.098649660216         -0.127789885245
      0.3327480000D+00  0.1000000000D+01
 Atom Pa1      Shell    28 F   1     bf   84 -    90          0.829793079613         -0.098649660216         -0.127789885245
      0.1146850000D+00  0.1000000000D+01
 Atom Pa1      Shell    29 G   1     bf   91 -    99          0.829793079613         -0.098649660216         -0.127789885245
      0.3500000000D+00  0.1000000000D+01
 Atom O2       Shell    30 S   6     bf  100 -   100          1.289203482670          0.349814416310          3.853015456676
      0.2703238263D+05  0.5722733521D-03
      0.4052387139D+04  0.4435323349D-02
      0.9223272271D+03  0.2302010771D-01
      0.2612407099D+03  0.9282249067D-01
      0.8535464135D+02  0.2937850001D+00
      0.3103503524D+02  0.6740160450D+00
 Atom O2       Shell    31 S   2     bf  101 -   101          1.289203482670          0.349814416310          3.853015456676
      0.1226086073D+02  0.6383993703D+00
      0.4998707601D+01  0.3953458713D+00
 Atom O2       Shell    32 S   1     bf  102 -   102          1.289203482670          0.349814416310          3.853015456676
      0.1170310816D+01  0.1000000000D+01
 Atom O2       Shell    33 S   1     bf  103 -   103          1.289203482670          0.349814416310          3.853015456676
      0.4647474099D+00  0.1000000000D+01
 Atom O2       Shell    34 S   1     bf  104 -   104          1.289203482670          0.349814416310          3.853015456676
      0.1850453636D+00  0.1000000000D+01
 Atom O2       Shell    35 P   4     bf  105 -   107          1.289203482670          0.349814416310          3.853015456676
      0.6327495480D+02  0.1201833222D-01
      0.1462704938D+02  0.8300542179D-01
      0.4450122346D+01  0.3199174393D+00
      0.1527579965D+01  0.7071554292D+00
 Atom O2       Shell    36 P   1     bf  108 -   110          1.289203482670          0.349814416310          3.853015456676
      0.5293511794D+00  0.1000000000D+01
 Atom O2       Shell    37 P   1     bf  111 -   113          1.289203482670          0.349814416310          3.853015456676
      0.1747842127D+00  0.1000000000D+01
 Atom O2       Shell    38 D   1     bf  114 -   118          1.289203482670          0.349814416310          3.853015456676
      0.2314000000D+01  0.1000000000D+01
 Atom O2       Shell    39 D   1     bf  119 -   123          1.289203482670          0.349814416310          3.853015456676
      0.6450000000D+00  0.1000000000D+01
 Atom O2       Shell    40 F   1     bf  124 -   130          1.289203482670          0.349814416310          3.853015456676
      0.1428000000D+01  0.1000000000D+01
 Atom O3       Shell    41 S   6     bf  131 -   131          1.119293610397          3.830385031287         -0.494306297527
      0.2703238263D+05  0.5722733521D-03
      0.4052387139D+04  0.4435323349D-02
      0.9223272271D+03  0.2302010771D-01
      0.2612407099D+03  0.9282249067D-01
      0.8535464135D+02  0.2937850001D+00
      0.3103503524D+02  0.6740160450D+00
 Atom O3       Shell    42 S   2     bf  132 -   132          1.119293610397          3.830385031287         -0.494306297527
      0.1226086073D+02  0.6383993703D+00
      0.4998707601D+01  0.3953458713D+00
 Atom O3       Shell    43 S   1     bf  133 -   133          1.119293610397          3.830385031287         -0.494306297527
      0.1170310816D+01  0.1000000000D+01
 Atom O3       Shell    44 S   1     bf  134 -   134          1.119293610397          3.830385031287         -0.494306297527
      0.4647474099D+00  0.1000000000D+01
 Atom O3       Shell    45 S   1     bf  135 -   135          1.119293610397          3.830385031287         -0.494306297527
      0.1850453636D+00  0.1000000000D+01
 Atom O3       Shell    46 P   4     bf  136 -   138          1.119293610397          3.830385031287         -0.494306297527
      0.6327495480D+02  0.1201833222D-01
      0.1462704938D+02  0.8300542179D-01
      0.4450122346D+01  0.3199174393D+00
      0.1527579965D+01  0.7071554292D+00
 Atom O3       Shell    47 P   1     bf  139 -   141          1.119293610397          3.830385031287         -0.494306297527
      0.5293511794D+00  0.1000000000D+01
 Atom O3       Shell    48 P   1     bf  142 -   144          1.119293610397          3.830385031287         -0.494306297527
      0.1747842127D+00  0.1000000000D+01
 Atom O3       Shell    49 D   1     bf  145 -   149          1.119293610397          3.830385031287         -0.494306297527
      0.2314000000D+01  0.1000000000D+01
 Atom O3       Shell    50 D   1     bf  150 -   154          1.119293610397          3.830385031287         -0.494306297527
      0.6450000000D+00  0.1000000000D+01
 Atom O3       Shell    51 F   1     bf  155 -   161          1.119293610397          3.830385031287         -0.494306297527
      0.1428000000D+01  0.1000000000D+01
 Atom Br4      Shell    52 S   8     bf  162 -   162         -4.640813275329          0.013359522825         -0.220534188090
      0.5650732526D+06  0.2313996799D-03
      0.8470172318D+05  0.1794480895D-02
      0.1927627190D+05  0.9336632833D-02
      0.5456428458D+04  0.3802214115D-01
      0.1776950350D+04  0.1243860819D+00
      0.6391939828D+03  0.2976826547D+00
      0.2487882396D+03  0.4351247869D+00
      0.9867830549D+02  0.2384543263D+00
 Atom Br4      Shell    53 S   4     bf  163 -   163         -4.640813275329          0.013359522825         -0.220534188090
      0.6060782457D+03 -0.2580299811D-01
      0.1884559848D+03 -0.1214377016D+00
      0.3149714451D+02  0.5492715414D+00
      0.1373600832D+02  0.5403867432D+00
 Atom Br4      Shell    54 S   2     bf  164 -   164         -4.640813275329          0.013359522825         -0.220534188090
      0.2120321277D+02 -0.4189765707D+00
      0.3761642018D+01  0.1196292202D+01
 Atom Br4      Shell    55 S   1     bf  165 -   165         -4.640813275329          0.013359522825         -0.220534188090
      0.1773593396D+01  0.1000000000D+01
 Atom Br4      Shell    56 S   1     bf  166 -   166         -4.640813275329          0.013359522825         -0.220534188090
      0.4519741366D+00  0.1000000000D+01
 Atom Br4      Shell    57 S   1     bf  167 -   167         -4.640813275329          0.013359522825         -0.220534188090
      0.1661337710D+00  0.1000000000D+01
 Atom Br4      Shell    58 P   6     bf  168 -   170         -4.640813275329          0.013359522825         -0.220534188090
      0.3019695572D+04  0.2697896720D-02
      0.7153548113D+03  0.2206117705D-01
      0.2299832875D+03  0.1046886297D+00
      0.8616784462D+02  0.3030971016D+00
      0.3466787080D+02  0.4819318191D+00
      0.1411387031D+02  0.2637288336D+00
 Atom Br4      Shell    59 P   4     bf  171 -   173         -4.640813275329          0.013359522825         -0.220534188090
      0.5708565308D+02 -0.1928818758D-01
      0.8819384584D+01  0.2886445949D+00
      0.3934030287D+01  0.5105806350D+00
      0.1799883038D+01  0.2962687446D+00
 Atom Br4      Shell    60 P   1     bf  174 -   176         -4.640813275329          0.013359522825         -0.220534188090
      0.6689941051D+00  0.1000000000D+01
 Atom Br4      Shell    61 P   1     bf  177 -   179         -4.640813275329          0.013359522825         -0.220534188090
      0.2713623823D+00  0.1000000000D+01
 Atom Br4      Shell    62 P   1     bf  180 -   182         -4.640813275329          0.013359522825         -0.220534188090
      0.1008379024D+00  0.1000000000D+01
 Atom Br4      Shell    63 D   5     bf  183 -   187         -4.640813275329          0.013359522825         -0.220534188090
      0.1688537026D+03  0.9842827717D-02
      0.4997794992D+02  0.6812837709D-01
      0.1827491334D+02  0.2357380148D+00
      0.7245569463D+01  0.4427795439D+00
      0.2856231503D+01  0.4633455553D+00
 Atom Br4      Shell    64 D   1     bf  188 -   192         -4.640813275329          0.013359522825         -0.220534188090
      0.1045962114D+01  0.1000000000D+01
 Atom Br4      Shell    65 D   1     bf  193 -   197         -4.640813275329          0.013359522825         -0.220534188090
      0.5686565500D+00  0.1000000000D+01
 Atom Br4      Shell    66 D   1     bf  198 -   202         -4.640813275329          0.013359522825         -0.220534188090
      0.2203149000D+00  0.1000000000D+01
 Atom Br4      Shell    67 F   1     bf  203 -   209         -4.640813275329          0.013359522825         -0.220534188090
      0.5708331200D+00  0.1000000000D+01
 Atom H5       Shell    68 S   3     bf  210 -   210          1.239544158067          5.203190503721          0.706375604924
      0.3406134100D+02  0.2543930721D-01
      0.5123574600D+01  0.1900859489D+00
      0.1164662600D+01  0.8524411301D+00
 Atom H5       Shell    69 S   1     bf  211 -   211          1.239544158067          5.203190503721          0.706375604924
      0.3272304100D+00  0.1000000000D+01
 Atom H5       Shell    70 S   1     bf  212 -   212          1.239544158067          5.203190503721          0.706375604924
      0.1030724100D+00  0.1000000000D+01
 Atom H5       Shell    71 P   1     bf  213 -   215          1.239544158067          5.203190503721          0.706375604924
      0.8000000000D+00  0.1000000000D+01
 Atom O6       Shell    72 S   6     bf  216 -   216          5.418991327444         -0.044944471276         -1.190930529340
      0.2703238263D+05  0.5722733521D-03
      0.4052387139D+04  0.4435323349D-02
      0.9223272271D+03  0.2302010771D-01
      0.2612407099D+03  0.9282249067D-01
      0.8535464135D+02  0.2937850001D+00
      0.3103503524D+02  0.6740160450D+00
 Atom O6       Shell    73 S   2     bf  217 -   217          5.418991327444         -0.044944471276         -1.190930529340
      0.1226086073D+02  0.6383993703D+00
      0.4998707601D+01  0.3953458713D+00
 Atom O6       Shell    74 S   1     bf  218 -   218          5.418991327444         -0.044944471276         -1.190930529340
      0.1170310816D+01  0.1000000000D+01
 Atom O6       Shell    75 S   1     bf  219 -   219          5.418991327444         -0.044944471276         -1.190930529340
      0.4647474099D+00  0.1000000000D+01
 Atom O6       Shell    76 S   1     bf  220 -   220          5.418991327444         -0.044944471276         -1.190930529340
      0.1850453636D+00  0.1000000000D+01
 Atom O6       Shell    77 P   4     bf  221 -   223          5.418991327444         -0.044944471276         -1.190930529340
      0.6327495480D+02  0.1201833222D-01
      0.1462704938D+02  0.8300542179D-01
      0.4450122346D+01  0.3199174393D+00
      0.1527579965D+01  0.7071554292D+00
 Atom O6       Shell    78 P   1     bf  224 -   226          5.418991327444         -0.044944471276         -1.190930529340
      0.5293511794D+00  0.1000000000D+01
 Atom O6       Shell    79 P   1     bf  227 -   229          5.418991327444         -0.044944471276         -1.190930529340
      0.1747842127D+00  0.1000000000D+01
 Atom O6       Shell    80 D   1     bf  230 -   234          5.418991327444         -0.044944471276         -1.190930529340
      0.2314000000D+01  0.1000000000D+01
 Atom O6       Shell    81 D   1     bf  235 -   239          5.418991327444         -0.044944471276         -1.190930529340
      0.6450000000D+00  0.1000000000D+01
 Atom O6       Shell    82 F   1     bf  240 -   246          5.418991327444         -0.044944471276         -1.190930529340
      0.1428000000D+01  0.1000000000D+01
 Atom H7       Shell    83 S   3     bf  247 -   247          6.463035153218          1.438895535075         -1.397755404572
      0.3406134100D+02  0.2543930721D-01
      0.5123574600D+01  0.1900859489D+00
      0.1164662600D+01  0.8524411301D+00
 Atom H7       Shell    84 S   1     bf  248 -   248          6.463035153218          1.438895535075         -1.397755404572
      0.3272304100D+00  0.1000000000D+01
 Atom H7       Shell    85 S   1     bf  249 -   249          6.463035153218          1.438895535075         -1.397755404572
      0.1030724100D+00  0.1000000000D+01
 Atom H7       Shell    86 P   1     bf  250 -   252          6.463035153218          1.438895535075         -1.397755404572
      0.8000000000D+00  0.1000000000D+01
 Atom H8       Shell    87 S   3     bf  253 -   253          6.524352918364         -1.497923502809         -1.217427734779
      0.3406134100D+02  0.2543930721D-01
      0.5123574600D+01  0.1900859489D+00
      0.1164662600D+01  0.8524411301D+00
 Atom H8       Shell    88 S   1     bf  254 -   254          6.524352918364         -1.497923502809         -1.217427734779
      0.3272304100D+00  0.1000000000D+01
 Atom H8       Shell    89 S   1     bf  255 -   255          6.524352918364         -1.497923502809         -1.217427734779
      0.1030724100D+00  0.1000000000D+01
 Atom H8       Shell    90 P   1     bf  256 -   258          6.524352918364         -1.497923502809         -1.217427734779
      0.8000000000D+00  0.1000000000D+01
 Atom H9       Shell    91 S   3     bf  259 -   259          1.473872738624         -0.957743285872          5.109787826821
      0.3406134100D+02  0.2543930721D-01
      0.5123574600D+01  0.1900859489D+00
      0.1164662600D+01  0.8524411301D+00
 Atom H9       Shell    92 S   1     bf  260 -   260          1.473872738624         -0.957743285872          5.109787826821
      0.3272304100D+00  0.1000000000D+01
 Atom H9       Shell    93 S   1     bf  261 -   261          1.473872738624         -0.957743285872          5.109787826821
      0.1030724100D+00  0.1000000000D+01
 Atom H9       Shell    94 P   1     bf  262 -   264          1.473872738624         -0.957743285872          5.109787826821
      0.8000000000D+00  0.1000000000D+01
 Atom O10      Shell    95 S   6     bf  265 -   265          1.074572757426         -3.594865409993         -0.149454148804
      0.2703238263D+05  0.5722733521D-03
      0.4052387139D+04  0.4435323349D-02
      0.9223272271D+03  0.2302010771D-01
      0.2612407099D+03  0.9282249067D-01
      0.8535464135D+02  0.2937850001D+00
      0.3103503524D+02  0.6740160450D+00
 Atom O10      Shell    96 S   2     bf  266 -   266          1.074572757426         -3.594865409993         -0.149454148804
      0.1226086073D+02  0.6383993703D+00
      0.4998707601D+01  0.3953458713D+00
 Atom O10      Shell    97 S   1     bf  267 -   267          1.074572757426         -3.594865409993         -0.149454148804
      0.1170310816D+01  0.1000000000D+01
 Atom O10      Shell    98 S   1     bf  268 -   268          1.074572757426         -3.594865409993         -0.149454148804
      0.4647474099D+00  0.1000000000D+01
 Atom O10      Shell    99 S   1     bf  269 -   269          1.074572757426         -3.594865409993         -0.149454148804
      0.1850453636D+00  0.1000000000D+01
 Atom O10      Shell   100 P   4     bf  270 -   272          1.074572757426         -3.594865409993         -0.149454148804
      0.6327495480D+02  0.1201833222D-01
      0.1462704938D+02  0.8300542179D-01
      0.4450122346D+01  0.3199174393D+00
      0.1527579965D+01  0.7071554292D+00
 Atom O10      Shell   101 P   1     bf  273 -   275          1.074572757426         -3.594865409993         -0.149454148804
      0.5293511794D+00  0.1000000000D+01
 Atom O10      Shell   102 P   1     bf  276 -   278          1.074572757426         -3.594865409993         -0.149454148804
      0.1747842127D+00  0.1000000000D+01
 Atom O10      Shell   103 D   1     bf  279 -   283          1.074572757426         -3.594865409993         -0.149454148804
      0.2314000000D+01  0.1000000000D+01
 Atom O10      Shell   104 D   1     bf  284 -   288          1.074572757426         -3.594865409993         -0.149454148804
      0.6450000000D+00  0.1000000000D+01
 Atom O10      Shell   105 F   1     bf  289 -   295          1.074572757426         -3.594865409993         -0.149454148804
      0.1428000000D+01  0.1000000000D+01
 Effective core potential in the form of general ECP input:
      1 0
 Pa1-ECP   5 60
 H component
  1
  2        1.0000000        0.00000000    0.00000000
 S-H projection
  1
  2       15.2691737      475.47573283    0.00000000
 P-H projection
  1
  2        9.9577370      207.66485962    0.00000000
 D-H projection
  1
  2        8.9431413      156.67411988    0.00000000
 F-H projection
  1
  2        7.0104666       67.98223685    0.00000000
 G-H projection
  1
  2       12.2010560      -57.63059989    0.00000000
 
 There are   345 symmetry adapted cartesian basis functions of A   symmetry.
 There are   295 symmetry adapted basis functions of A   symmetry.
   295 basis functions,   558 primitive gaussians,   345 cartesian basis functions
    51 alpha electrons       51 beta electrons
       nuclear repulsion energy       727.0736071604 Hartrees.
 IExCor=  404 DFT=T Ex=B Corr=P86 ExCW=0 ScaHFX=  0.000000
 ScaDFX=  1.000000  1.000000  1.000000  1.000000 ScalE2=  1.000000  1.000000
 IRadAn=      5 IRanWt=     -1 IRanGd=            0 ICorTp=0 IEmpDi=  4
 NAtoms=   10 NActive=   10 NUniq=   10 SFac= 1.00D+00 NAtFMM=   60 NAOKFM=F Big=F
 Integral buffers will be    131072 words long.
 Raffenetti 2 integral format.
 Two-electron integral symmetry is turned on.
 Warning! Using old PCM defaults because the COSMOthermo output has been requested.
 These settings can be overridden by following keywords.
 ------------------------------------------------------------------------------
 Polarizable Continuum Model (PCM)
 =================================
 Model                : C-PCM.
 Atomic radii         : Klamt.
 XCosmo               : -1.000 (infinite dielectric limit)
 Polarization charges : Electronic and nuclear charges.
 Charge compensation  : Type 3 (Electronic density weighted correction).
 Solution method      : On-the-fly selection.
 Cavity type          : VdW (van der Waals Surface) (Alpha=1.000).
 Cavity algorithm     : GePol (No added spheres)
                        Default sphere list used, NSphG=   10.
                        Tesserae with average area of 0.200 Ang**2.
                        Smoothing algorithm: None.
                        Polarization charges: point-like.
                        Self-potential: constant (ISelfS= 1).
                        Self-field    : global E.n sum rule (ISelfD= 3).
 Solvent              : Water, Eps=  78.355300 Eps(inf)=   1.777849
 ------------------------------------------------------------------------------
 Spheres list:
 ISph  on   Nord     Re0    Alpha      Xe            Ye            Ze
    1  Pa      1    2.0000  1.170      0.439108     -0.052203     -0.067623
    2   O      2    1.7200  1.000      0.682217      0.185114      2.038928
    3   O      3    1.7200  1.000      0.592305      2.026952     -0.261576
    4  Br      4    2.1600  1.000     -2.455813      0.007070     -0.116702
    5   H      5    1.3000  1.000      0.655939      2.753410      0.373798
    6   O      6    1.7200  1.000      2.867607     -0.023784     -0.630213
    7   H      7    1.3000  1.000      3.420091      0.761431     -0.739660
    8   H      8    1.3000  1.000      3.452539     -0.792667     -0.644235
    9   H      9    1.3000  1.000      0.779940     -0.506816      2.703983
   10   O     10    1.7200  1.000      0.568639     -1.902321     -0.079088
 ------------------------------------------------------------------------------
 GePol: Number of generator spheres                  =      10
 GePol: Total number of spheres                      =      10
 GePol: Number of exposed spheres                    =      10 (100.00%)
 GePol: Number of tesserae                           =    1063
 GePol: Average area of tesserae                     =       0.16 Ang**2
 GePol: Minimum area of tessera                      =   0.12D-02 Ang**2
 GePol: Maximum area of tessera                      =    0.35817 Ang**2
 GePol: Number of small tesserae                     =       4
 GePol: Fraction of small tesserae (<1% of avg)      =       0.38%
 GePol: Total count of vertices                      =    3492
 GePol: Maximum number of vertices in a tessera      =       6
 GePol: Cavity surface area                          =    171.701 Ang**2
 GePol: Cavity volume                                =    143.755 Ang**3
 DisRep: Neglecting contributions from atom    1 of solute.
 Leave Link  301 at Tue Jul  4 11:12:22 2023, MaxMem=  2147483648 cpu:               1.0 elap:               0.2
 (Enter /home/pcmt/gaussian/g16.C.01/g16/l302.exe)
 NPDir=0 NMtPBC=     1 NCelOv=     1 NCel=       1 NClECP=     1 NCelD=      1
         NCelK=      1 NCelE2=     1 NClLst=     1 CellRange=     0.0.
 One-electron integrals computed using PRISM.
 One-electron integral symmetry used in STVInt
   1 Symmetry operations used in ECPInt.
 ECPInt:  NShTT=    5565 NPrTT=   18162 LenC2=    5263 LenP2D=   12707.
 LDataN:  DoStor=T MaxTD1= 9 Len=  602
 NBasis=   295 RedAO= T EigKep=  6.22D-04  NBF=   295
 NBsUse=   295 1.00D-06 EigRej= -1.00D+00 NBFU=   295
 Precomputing XC quadrature grid using
 IXCGrd= 4 IRadAn=           5 IRanWt=          -1 IRanGd=           0 AccXCQ= 0.00D+00.
 Defaulting to unpruned grid for atomic number  91.
 Generated NRdTot=       0 NPtTot=           0 NUsed=           0 NTot=          32
 NSgBfM=   337   337   337   337   337 MxSgAt=    10 MxSgA2=    10.
 Leave Link  302 at Tue Jul  4 11:12:23 2023, MaxMem=  2147483648 cpu:               6.4 elap:               0.9
 (Enter /home/pcmt/gaussian/g16.C.01/g16/l303.exe)
 DipDrv:  MaxL=1.
 Leave Link  303 at Tue Jul  4 11:12:23 2023, MaxMem=  2147483648 cpu:               0.4 elap:               0.1
 (Enter /home/pcmt/gaussian/g16.C.01/g16/l401.exe)
 ExpMin= 2.32D-02 ExpMax= 5.65D+05 ExpMxC= 1.20D+04 IAcc=3 IRadAn=         5 AccDes= 0.00D+00
 Harris functional with IExCor=  404 and IRadAn=       5 diagonalized for initial guess.
 HarFok:  IExCor=  404 AccDes= 0.00D+00 IRadAn=         5 IDoV= 1 UseB2=F ITyADJ=14
 ICtDFT=  3500011 ScaDFX=  1.000000  1.000000  1.000000  1.000000
 Defaulting to unpruned grid for atomic number  91.
 FoFCou: FMM=F IPFlag=           0 FMFlag=      100000 FMFlg1=           0
         NFxFlg=           0 DoJE=T BraDBF=F KetDBF=T FulRan=T
         wScrn=  0.000000 ICntrl=       500 IOpCl=  0 I1Cent=   200000004 NGrid=           0
         NMat0=    1 NMatS0=      1 NMatT0=    0 NMatD0=    1 NMtDS0=    0 NMtDT0=    0
 Petite list used in FoFCou.
 Harris En= -3321.28289084146    
 JPrj=0 DoOrth=F DoCkMO=F.
 Leave Link  401 at Tue Jul  4 11:12:25 2023, MaxMem=  2147483648 cpu:              16.3 elap:               2.1
 (Enter /home/pcmt/gaussian/g16.C.01/g16/l502.exe)
 Keep J ints in memory in canonical form, NReq=973832043.
 FoFCou: FMM=F IPFlag=           0 FMFlag=           0 FMFlg1=           0
         NFxFlg=           0 DoJE=F BraDBF=F KetDBF=F FulRan=T
         wScrn=  0.000000 ICntrl=       600 IOpCl=  0 I1Cent=           0 NGrid=           0
         NMat0=    1 NMatS0=  43660 NMatT0=    0 NMatD0=    1 NMtDS0=    0 NMtDT0=    0
 Symmetry not used in FoFCou.
 Two-electron integral symmetry not used.
 Closed shell SCF:
 Using DIIS extrapolation, IDIIS=  1040.
 NGot=  2147483648 LenX=  1194120032 LenY=  1194000566
 Requested convergence on RMS density matrix=1.00D-08 within 100 cycles.
 Requested convergence on MAX density matrix=1.00D-06.
 Requested convergence on             energy=1.00D-06.
 No special actions if energy rises.

 Cycle   1  Pass 1  IDiag  1:
 Defaulting to unpruned grid for atomic number  91.
 Defaulting to unpruned grid for atomic number  91.
 Defaulting to unpruned grid for atomic number  91.
 Defaulting to unpruned grid for atomic number  91.
 Defaulting to unpruned grid for atomic number  91.
 Defaulting to unpruned grid for atomic number  91.
 Defaulting to unpruned grid for atomic number  91.
 Defaulting to unpruned grid for atomic number  91.
 Inv3:  Mode=1 IEnd=     3389907.
 Iteration    1 A*A^-1 deviation from unit magnitude is 5.33D-15 for   1058.
 Iteration    1 A*A^-1 deviation from orthogonality  is 1.67D-15 for   1062    312.
 Iteration    1 A^-1*A deviation from unit magnitude is 5.33D-15 for   1058.
 Iteration    1 A^-1*A deviation from orthogonality  is 1.98D-15 for   1056   1028.
 E= -3318.82318523453    
 DIIS: error= 5.02D-02 at cycle   1 NSaved=   1.
 NSaved= 1 IEnMin= 1 EnMin= -3318.82318523453     IErMin= 1 ErrMin= 5.02D-02
 ErrMax= 5.02D-02  0.00D+00 EMaxC= 1.00D-01 BMatC= 1.57D+00 BMatP= 1.57D+00
 IDIUse=3 WtCom= 4.98D-01 WtEn= 5.02D-01
 Coeff-Com:  0.100D+01
 Coeff-En:   0.100D+01
 Coeff:      0.100D+01
 Gap=     0.097 Goal=   None    Shift=    0.000
 GapD=    0.097 DampG=0.500 DampE=0.250 DampFc=0.1250 IDamp=-1.
 Damping current iteration by 1.25D-01
 RMSDP=1.31D-02 MaxDP=1.23D+00              OVMax= 9.98D-01

 Cycle   2  Pass 1  IDiag  1:
 E= -3318.87687677313     Delta-E=       -0.053691538601 Rises=F Damp=T
 DIIS: error= 3.41D-02 at cycle   2 NSaved=   2.
 NSaved= 2 IEnMin= 2 EnMin= -3318.87687677313     IErMin= 2 ErrMin= 3.41D-02
 ErrMax= 3.41D-02  0.00D+00 EMaxC= 1.00D-01 BMatC= 2.78D-01 BMatP= 1.57D+00
 IDIUse=3 WtCom= 6.59D-01 WtEn= 3.41D-01
 Coeff-Com: -0.673D-01 0.107D+01
 Coeff-En:   0.475D+00 0.525D+00
 Coeff:      0.118D+00 0.882D+00
 Gap=    -0.119 Goal=   None    Shift=    0.000
 RMSDP=3.70D-03 MaxDP=1.03D-01 DE=-5.37D-02 OVMax= 9.31D-01

 Cycle   3  Pass 1  IDiag  1:
 E= -3319.13596141312     Delta-E=       -0.259084639990 Rises=F Damp=F
 DIIS: error= 5.10D-02 at cycle   3 NSaved=   3.
 NSaved= 3 IEnMin= 3 EnMin= -3319.13596141312     IErMin= 2 ErrMin= 3.41D-02
 ErrMax= 5.10D-02  0.00D+00 EMaxC= 1.00D-01 BMatC= 8.63D-01 BMatP= 2.78D-01
 IDIUse=2 WtCom= 0.00D+00 WtEn= 1.00D+00
 EnCoef did     2 forward-backward iterations
 Coeff-En:   0.231D+00 0.260D+00 0.509D+00
 Coeff:      0.231D+00 0.260D+00 0.509D+00
 Gap=     0.297 Goal=   None    Shift=    0.000
 RMSDP=8.03D-03 MaxDP=4.54D-01 DE=-2.59D-01 OVMax= 8.58D-01

 Cycle   4  Pass 1  IDiag  1:
 E= -3293.50425515860     Delta-E=       25.631706254516 Rises=F Damp=F
 DIIS: error= 3.91D-01 at cycle   4 NSaved=   4.
 NSaved= 4 IEnMin= 3 EnMin= -3319.13596141312     IErMin= 2 ErrMin= 3.41D-02
 ErrMax= 3.91D-01  0.00D+00 EMaxC= 1.00D-01 BMatC= 4.59D+01 BMatP= 2.78D-01
 IDIUse=2 WtCom= 0.00D+00 WtEn= 1.00D+00
 EnCoef did   100 forward-backward iterations
 Coeff-En:   0.406D+00 0.138D-02 0.523D+00 0.691D-01
 Coeff:      0.406D+00 0.138D-02 0.523D+00 0.691D-01
 Gap=    -0.017 Goal=   None    Shift=    0.000
 RMSDP=5.36D-03 MaxDP=3.00D-01 DE= 2.56D+01 OVMax= 9.91D-01

 Cycle   5  Pass 1  IDiag  1:
 E= -3318.84464281601     Delta-E=      -25.340387657412 Rises=F Damp=F
 DIIS: error= 8.19D-02 at cycle   5 NSaved=   5.
 NSaved= 5 IEnMin= 3 EnMin= -3319.13596141312     IErMin= 2 ErrMin= 3.41D-02
 ErrMax= 8.19D-02  0.00D+00 EMaxC= 1.00D-01 BMatC= 1.69D+00 BMatP= 2.78D-01
 IDIUse=2 WtCom= 0.00D+00 WtEn= 1.00D+00
 EnCoef did     2 forward-backward iterations
 Coeff-En:   0.321D+00 0.000D+00 0.282D+00 0.000D+00 0.397D+00
 Coeff:      0.321D+00 0.000D+00 0.282D+00 0.000D+00 0.397D+00
 Gap=     0.150 Goal=   None    Shift=    0.000
 RMSDP=2.50D-03 MaxDP=1.65D-01 DE=-2.53D+01 OVMax= 2.63D-01

 Cycle   6  Pass 1  IDiag  1:
 E= -3319.78707806302     Delta-E=       -0.942435247010 Rises=F Damp=F
 DIIS: error= 1.17D-02 at cycle   6 NSaved=   6.
 NSaved= 6 IEnMin= 6 EnMin= -3319.78707806302     IErMin= 6 ErrMin= 1.17D-02
 ErrMax= 1.17D-02  0.00D+00 EMaxC= 1.00D-01 BMatC= 6.02D-02 BMatP= 2.78D-01
 IDIUse=3 WtCom= 8.83D-01 WtEn= 1.17D-01
 Coeff-Com: -0.756D-01 0.228D+00 0.101D+00-0.678D-02 0.100D+00 0.654D+00
 Coeff-En:   0.000D+00 0.000D+00 0.000D+00 0.000D+00 0.107D+00 0.893D+00
 Coeff:     -0.668D-01 0.201D+00 0.892D-01-0.599D-02 0.101D+00 0.682D+00
 Gap=     0.147 Goal=   None    Shift=    0.000
 RMSDP=5.31D-04 MaxDP=2.51D-02 DE=-9.42D-01 OVMax= 5.94D-02

 Cycle   7  Pass 1  IDiag  1:
 E= -3319.80967847867     Delta-E=       -0.022600415652 Rises=F Damp=F
 DIIS: error= 7.99D-03 at cycle   7 NSaved=   7.
 NSaved= 7 IEnMin= 7 EnMin= -3319.80967847867     IErMin= 7 ErrMin= 7.99D-03
 ErrMax= 7.99D-03  0.00D+00 EMaxC= 1.00D-01 BMatC= 3.82D-02 BMatP= 6.02D-02
 IDIUse=3 WtCom= 9.20D-01 WtEn= 7.99D-02
 EnCoef did     7 forward-backward iterations
 Coeff-Com: -0.887D-01 0.128D+00 0.232D-01-0.219D-02 0.552D-01 0.508D+00
 Coeff-Com:  0.376D+00
 Coeff-En:   0.000D+00 0.000D+00 0.000D+00 0.000D+00 0.392D-01 0.340D+00
 Coeff-En:   0.621D+00
 Coeff:     -0.816D-01 0.118D+00 0.213D-01-0.201D-02 0.539D-01 0.495D+00
 Coeff:      0.396D+00
 Gap=     0.139 Goal=   None    Shift=    0.000
 RMSDP=3.99D-04 MaxDP=1.78D-02 DE=-2.26D-02 OVMax= 4.26D-02

 Cycle   8  Pass 1  IDiag  1:
 E= -3319.83434562797     Delta-E=       -0.024667149299 Rises=F Damp=F
 DIIS: error= 3.12D-03 at cycle   8 NSaved=   8.
 NSaved= 8 IEnMin= 8 EnMin= -3319.83434562797     IErMin= 8 ErrMin= 3.12D-03
 ErrMax= 3.12D-03  0.00D+00 EMaxC= 1.00D-01 BMatC= 4.90D-03 BMatP= 3.82D-02
 IDIUse=3 WtCom= 9.69D-01 WtEn= 3.12D-02
 Coeff-Com: -0.400D-01 0.292D-01-0.189D-01-0.194D-03 0.291D-01 0.135D+00
 Coeff-Com:  0.221D+00 0.645D+00
 Coeff-En:   0.000D+00 0.000D+00 0.000D+00 0.000D+00 0.000D+00 0.000D+00
 Coeff-En:   0.000D+00 0.100D+01
 Coeff:     -0.387D-01 0.283D-01-0.184D-01-0.188D-03 0.282D-01 0.131D+00
 Coeff:      0.214D+00 0.656D+00
 Gap=     0.129 Goal=   None    Shift=    0.000
 RMSDP=2.54D-04 MaxDP=2.00D-02 DE=-2.47D-02 OVMax= 1.91D-02

 Cycle   9  Pass 1  IDiag  1:
 E= -3319.83856676277     Delta-E=       -0.004221134801 Rises=F Damp=F
 DIIS: error= 9.36D-04 at cycle   9 NSaved=   9.
 NSaved= 9 IEnMin= 9 EnMin= -3319.83856676277     IErMin= 9 ErrMin= 9.36D-04
 ErrMax= 9.36D-04  0.00D+00 EMaxC= 1.00D-01 BMatC= 9.97D-04 BMatP= 4.90D-03
 IDIUse=3 WtCom= 9.91D-01 WtEn= 9.36D-03
 Coeff-Com:  0.150D-02-0.119D-01-0.166D-01 0.479D-03 0.596D-02-0.772D-01
 Coeff-Com:  0.205D-01 0.451D+00 0.626D+00
 Coeff-En:   0.000D+00 0.000D+00 0.000D+00 0.000D+00 0.000D+00 0.000D+00
 Coeff-En:   0.000D+00 0.000D+00 0.100D+01
 Coeff:      0.149D-02-0.118D-01-0.164D-01 0.474D-03 0.591D-02-0.765D-01
 Coeff:      0.203D-01 0.447D+00 0.629D+00
 Gap=     0.122 Goal=   None    Shift=    0.000
 RMSDP=2.52D-04 MaxDP=1.48D-02 DE=-4.22D-03 OVMax= 2.62D-02

 Cycle  10  Pass 1  IDiag  1:
 E= -3319.83988065461     Delta-E=       -0.001313891841 Rises=F Damp=F
 DIIS: error= 2.26D-03 at cycle  10 NSaved=  10.
 NSaved=10 IEnMin=10 EnMin= -3319.83988065461     IErMin= 9 ErrMin= 9.36D-04
 ErrMax= 2.26D-03  0.00D+00 EMaxC= 1.00D-01 BMatC= 2.37D-03 BMatP= 9.97D-04
 IDIUse=3 WtCom= 9.91D-01 WtEn= 9.36D-03
 Coeff-Com:  0.132D-01-0.184D-01-0.982D-02 0.397D-03-0.659D-03-0.912D-01
 Coeff-Com: -0.680D-02 0.333D+00 0.516D+00 0.265D+00
 Coeff-En:   0.000D+00 0.000D+00 0.000D+00 0.000D+00 0.000D+00 0.000D+00
 Coeff-En:   0.000D+00 0.000D+00 0.000D+00 0.100D+01
 Coeff:      0.130D-01-0.182D-01-0.973D-02 0.393D-03-0.653D-03-0.903D-01
 Coeff:     -0.674D-02 0.330D+00 0.511D+00 0.272D+00
 Gap=     0.119 Goal=   None    Shift=    0.000
 RMSDP=8.11D-05 MaxDP=4.93D-03 DE=-1.31D-03 OVMax= 9.41D-03

 Cycle  11  Pass 1  IDiag  1:
 E= -3319.83974623602     Delta-E=        0.000134418595 Rises=F Damp=F
 DIIS: error= 2.67D-03 at cycle  11 NSaved=  11.
 NSaved=11 IEnMin=10 EnMin= -3319.83988065461     IErMin= 9 ErrMin= 9.36D-04
 ErrMax= 2.67D-03  0.00D+00 EMaxC= 1.00D-01 BMatC= 3.12D-03 BMatP= 9.97D-04
 IDIUse=3 WtCom= 9.91D-01 WtEn= 9.36D-03
 Coeff-Com:  0.828D-02-0.765D-02-0.488D-02 0.329D-03-0.210D-02-0.364D-01
 Coeff-Com:  0.439D-01 0.355D+00 0.267D+00-0.526D+00 0.902D+00
 Coeff-En:   0.000D+00 0.000D+00 0.000D+00 0.000D+00 0.000D+00 0.000D+00
 Coeff-En:   0.000D+00 0.000D+00 0.000D+00 0.877D+00 0.123D+00
 Coeff:      0.821D-02-0.758D-02-0.484D-02 0.326D-03-0.208D-02-0.360D-01
 Coeff:      0.435D-01 0.352D+00 0.264D+00-0.513D+00 0.895D+00
 Gap=     0.124 Goal=   None    Shift=    0.000
 RMSDP=1.38D-04 MaxDP=1.28D-02 DE= 1.34D-04 OVMax= 1.24D-02

 Cycle  12  Pass 1  IDiag  1:
 E= -3319.84017169454     Delta-E=       -0.000425458525 Rises=F Damp=F
 DIIS: error= 1.41D-03 at cycle  12 NSaved=  12.
 NSaved=12 IEnMin=12 EnMin= -3319.84017169454     IErMin= 9 ErrMin= 9.36D-04
 ErrMax= 1.41D-03  0.00D+00 EMaxC= 1.00D-01 BMatC= 7.98D-04 BMatP= 9.97D-04
 IDIUse=3 WtCom= 9.91D-01 WtEn= 9.36D-03
 Coeff-Com: -0.334D-03 0.967D-03 0.384D-03 0.148D-03-0.629D-02 0.768D-01
 Coeff-Com:  0.803D-01 0.132D+00-0.267D+00-0.182D+01 0.161D+01 0.119D+01
 Coeff-En:   0.000D+00 0.000D+00 0.000D+00 0.000D+00 0.000D+00 0.000D+00
 Coeff-En:   0.000D+00 0.000D+00 0.000D+00 0.000D+00 0.944D-01 0.906D+00
 Coeff:     -0.331D-03 0.957D-03 0.380D-03 0.146D-03-0.623D-02 0.761D-01
 Coeff:      0.796D-01 0.131D+00-0.265D+00-0.180D+01 0.160D+01 0.118D+01
 Gap=     0.128 Goal=   None    Shift=    0.000
 RMSDP=9.68D-05 MaxDP=9.33D-03 DE=-4.25D-04 OVMax= 8.08D-03

 Cycle  13  Pass 1  IDiag  1:
 E= -3319.84057576125     Delta-E=       -0.000404066701 Rises=F Damp=F
 DIIS: error= 6.69D-04 at cycle  13 NSaved=  13.
 NSaved=13 IEnMin=13 EnMin= -3319.84057576125     IErMin=13 ErrMin= 6.69D-04
 ErrMax= 6.69D-04  0.00D+00 EMaxC= 1.00D-01 BMatC= 3.79D-04 BMatP= 7.98D-04
 IDIUse=3 WtCom= 9.93D-01 WtEn= 6.69D-03
 EnCoef did   100 forward-backward iterations
 Coeff-Com:  0.266D-02-0.193D-02 0.213D-02 0.679D-04-0.721D-02 0.544D-01
 Coeff-Com:  0.454D-01 0.187D-01-0.287D+00-0.132D+01 0.129D+01 0.839D+00
 Coeff-Com:  0.362D+00
 Coeff-En:   0.000D+00 0.000D+00 0.000D+00 0.000D+00 0.000D+00 0.000D+00
 Coeff-En:   0.000D+00 0.000D+00 0.000D+00 0.000D+00 0.277D+00 0.558D-02
 Coeff-En:   0.718D+00
 Coeff:      0.264D-02-0.192D-02 0.211D-02 0.675D-04-0.716D-02 0.541D-01
 Coeff:      0.451D-01 0.186D-01-0.285D+00-0.131D+01 0.128D+01 0.834D+00
 Coeff:      0.365D+00
 Gap=     0.126 Goal=   None    Shift=    0.000
 RMSDP=1.11D-04 MaxDP=6.60D-03 DE=-4.04D-04 OVMax= 1.21D-02

 Cycle  14  Pass 1  IDiag  1:
 E= -3319.84118536693     Delta-E=       -0.000609605686 Rises=F Damp=F
 DIIS: error= 1.38D-04 at cycle  14 NSaved=  14.
 NSaved=14 IEnMin=14 EnMin= -3319.84118536693     IErMin=14 ErrMin= 1.38D-04
 ErrMax= 1.38D-04  0.00D+00 EMaxC= 1.00D-01 BMatC= 1.93D-05 BMatP= 3.79D-04
 IDIUse=3 WtCom= 9.99D-01 WtEn= 1.38D-03
 Coeff-Com:  0.294D-03-0.894D-03 0.944D-03 0.802D-05-0.136D-02 0.214D-01
 Coeff-Com:  0.123D-01-0.296D-01-0.149D+00-0.374D+00 0.396D+00 0.841D-01
 Coeff-Com:  0.132D+00 0.908D+00
 Coeff-En:   0.000D+00 0.000D+00 0.000D+00 0.000D+00 0.000D+00 0.000D+00
 Coeff-En:   0.000D+00 0.000D+00 0.000D+00 0.000D+00 0.000D+00 0.000D+00
 Coeff-En:   0.000D+00 0.100D+01
 Coeff:      0.293D-03-0.892D-03 0.943D-03 0.801D-05-0.135D-02 0.213D-01
 Coeff:      0.123D-01-0.295D-01-0.149D+00-0.373D+00 0.395D+00 0.840D-01
 Coeff:      0.132D+00 0.908D+00
 Gap=     0.121 Goal=   None    Shift=    0.000
 RMSDP=6.07D-05 MaxDP=3.71D-03 DE=-6.10D-04 OVMax= 7.03D-03

 Cycle  15  Pass 1  IDiag  1:
 E= -3319.84116200844     Delta-E=        0.000023358492 Rises=F Damp=F
 DIIS: error= 2.68D-04 at cycle  15 NSaved=  15.
 NSaved=15 IEnMin=14 EnMin= -3319.84118536693     IErMin=14 ErrMin= 1.38D-04
 ErrMax= 2.68D-04  0.00D+00 EMaxC= 1.00D-01 BMatC= 5.50D-05 BMatP= 1.93D-05
 IDIUse=3 WtCom= 9.99D-01 WtEn= 1.38D-03
 Coeff-Com: -0.640D-03-0.220D-03-0.355D-03-0.102D-04 0.708D-04 0.125D-01
 Coeff-Com:  0.910D-02-0.860D-03-0.598D-01-0.214D+00 0.178D+00 0.629D-01
 Coeff-Com:  0.113D+00 0.551D+00 0.349D+00
 Coeff-En:   0.000D+00 0.000D+00 0.000D+00 0.000D+00 0.000D+00 0.000D+00
 Coeff-En:   0.000D+00 0.000D+00 0.000D+00 0.000D+00 0.000D+00 0.000D+00
 Coeff-En:   0.000D+00 0.616D+00 0.384D+00
 Coeff:     -0.639D-03-0.220D-03-0.355D-03-0.101D-04 0.707D-04 0.125D-01
 Coeff:      0.909D-02-0.859D-03-0.597D-01-0.213D+00 0.178D+00 0.628D-01
 Coeff:      0.113D+00 0.551D+00 0.349D+00
 Gap=     0.123 Goal=   None    Shift=    0.000
 RMSDP=3.90D-05 MaxDP=2.31D-03 DE= 2.34D-05 OVMax= 4.44D-03

 Cycle  16  Pass 1  IDiag  1:
 E= -3319.84121993645     Delta-E=       -0.000057928009 Rises=F Damp=F
 DIIS: error= 2.92D-05 at cycle  16 NSaved=  16.
 NSaved=16 IEnMin=16 EnMin= -3319.84121993645     IErMin=16 ErrMin= 2.92D-05
 ErrMax= 2.92D-05  0.00D+00 EMaxC= 1.00D-01 BMatC= 6.85D-07 BMatP= 1.93D-05
 IDIUse=1 WtCom= 1.00D+00 WtEn= 0.00D+00
 Coeff-Com: -0.335D-04-0.254D-03-0.629D-04 0.226D-05-0.199D-04 0.306D-02
 Coeff-Com:  0.117D-02-0.419D-02-0.947D-02-0.212D-01 0.195D-01-0.168D-01
 Coeff-Com:  0.225D-01 0.187D+00 0.148D+00 0.671D+00
 Coeff:     -0.335D-04-0.254D-03-0.629D-04 0.226D-05-0.199D-04 0.306D-02
 Coeff:      0.117D-02-0.419D-02-0.947D-02-0.212D-01 0.195D-01-0.168D-01
 Coeff:      0.225D-01 0.187D+00 0.148D+00 0.671D+00
 Gap=     0.122 Goal=   None    Shift=    0.000
 RMSDP=7.24D-06 MaxDP=4.11D-04 DE=-5.79D-05 OVMax= 7.98D-04

 Cycle  17  Pass 1  IDiag  1:
 E= -3319.84122038678     Delta-E=       -0.000000450327 Rises=F Damp=F
 DIIS: error= 3.27D-05 at cycle  17 NSaved=  17.
 NSaved=17 IEnMin=17 EnMin= -3319.84122038678     IErMin=16 ErrMin= 2.92D-05
 ErrMax= 3.27D-05  0.00D+00 EMaxC= 1.00D-01 BMatC= 5.86D-07 BMatP= 6.85D-07
 IDIUse=1 WtCom= 1.00D+00 WtEn= 0.00D+00
 Coeff-Com:  0.192D-04-0.595D-04-0.458D-04 0.142D-05 0.660D-05 0.488D-03
 Coeff-Com: -0.217D-03-0.130D-02 0.346D-02 0.136D-01-0.147D-01-0.179D-01
 Coeff-Com:  0.411D-02 0.549D-01 0.461D-01 0.410D+00 0.502D+00
 Coeff:      0.192D-04-0.595D-04-0.458D-04 0.142D-05 0.660D-05 0.488D-03
 Coeff:     -0.217D-03-0.130D-02 0.346D-02 0.136D-01-0.147D-01-0.179D-01
 Coeff:      0.411D-02 0.549D-01 0.461D-01 0.410D+00 0.502D+00
 Gap=     0.122 Goal=   None    Shift=    0.000
 RMSDP=2.55D-06 MaxDP=1.38D-04 DE=-4.50D-07 OVMax= 2.68D-04

 Cycle  18  Pass 1  IDiag  1:
 E= -3319.84122076742     Delta-E=       -0.000000380645 Rises=F Damp=F
 DIIS: error= 5.51D-06 at cycle  18 NSaved=  18.
 NSaved=18 IEnMin=18 EnMin= -3319.84122076742     IErMin=18 ErrMin= 5.51D-06
 ErrMax= 5.51D-06  0.00D+00 EMaxC= 1.00D-01 BMatC= 1.15D-08 BMatP= 5.86D-07
 IDIUse=1 WtCom= 1.00D+00 WtEn= 0.00D+00
 Coeff-Com:  0.775D-05-0.141D-04-0.141D-05 0.287D-06 0.185D-06 0.227D-04
 Coeff-Com: -0.487D-04-0.792D-04 0.981D-03 0.492D-02-0.586D-02-0.416D-02
 Coeff-Com: -0.979D-03 0.525D-02 0.357D-02 0.655D-01 0.103D+00 0.827D+00
 Coeff:      0.775D-05-0.141D-04-0.141D-05 0.287D-06 0.185D-06 0.227D-04
 Coeff:     -0.487D-04-0.792D-04 0.981D-03 0.492D-02-0.586D-02-0.416D-02
 Coeff:     -0.979D-03 0.525D-02 0.357D-02 0.655D-01 0.103D+00 0.827D+00
 Gap=     0.122 Goal=   None    Shift=    0.000
 RMSDP=2.77D-07 MaxDP=2.49D-05 DE=-3.81D-07 OVMax= 2.13D-05

 Cycle  19  Pass 1  IDiag  1:
 E= -3319.84122075789     Delta-E=        0.000000009530 Rises=F Damp=F
 DIIS: error= 7.88D-07 at cycle  19 NSaved=  19.
 NSaved=19 IEnMin=18 EnMin= -3319.84122076742     IErMin=19 ErrMin= 7.88D-07
 ErrMax= 7.88D-07  0.00D+00 EMaxC= 1.00D-01 BMatC= 3.07D-10 BMatP= 1.15D-08
 IDIUse=1 WtCom= 1.00D+00 WtEn= 0.00D+00
 Coeff-Com:  0.239D-05-0.475D-05 0.170D-05 0.737D-07-0.451D-07 0.276D-06
 Coeff-Com: -0.142D-05 0.334D-04 0.277D-03 0.176D-02-0.218D-02-0.137D-02
 Coeff-Com: -0.780D-03 0.186D-03 0.124D-03 0.112D-01 0.252D-01 0.381D+00
 Coeff-Com:  0.585D+00
 Coeff:      0.239D-05-0.475D-05 0.170D-05 0.737D-07-0.451D-07 0.276D-06
 Coeff:     -0.142D-05 0.334D-04 0.277D-03 0.176D-02-0.218D-02-0.137D-02
 Coeff:     -0.780D-03 0.186D-03 0.124D-03 0.112D-01 0.252D-01 0.381D+00
 Coeff:      0.585D+00
 Gap=     0.122 Goal=   None    Shift=    0.000
 RMSDP=6.25D-08 MaxDP=4.46D-06 DE= 9.53D-09 OVMax= 6.85D-06

 Cycle  20  Pass 1  IDiag  1:
 E= -3319.84122075734     Delta-E=        0.000000000552 Rises=F Damp=F
 DIIS: error= 2.12D-07 at cycle  20 NSaved=  20.
 NSaved=20 IEnMin=18 EnMin= -3319.84122076742     IErMin=20 ErrMin= 2.12D-07
 ErrMax= 2.12D-07  0.00D+00 EMaxC= 1.00D-01 BMatC= 3.73D-11 BMatP= 3.07D-10
 IDIUse=1 WtCom= 1.00D+00 WtEn= 0.00D+00
 Coeff-Com:  0.531D-06-0.120D-05 0.103D-05 0.132D-07-0.208D-06 0.203D-05
 Coeff-Com:  0.508D-05 0.168D-04 0.417D-04 0.427D-03-0.474D-03-0.394D-03
 Coeff-Com: -0.328D-03-0.217D-03 0.831D-04-0.987D-03 0.223D-02 0.882D-01
 Coeff-Com:  0.243D+00 0.669D+00
 Coeff:      0.531D-06-0.120D-05 0.103D-05 0.132D-07-0.208D-06 0.203D-05
 Coeff:      0.508D-05 0.168D-04 0.417D-04 0.427D-03-0.474D-03-0.394D-03
 Coeff:     -0.328D-03-0.217D-03 0.831D-04-0.987D-03 0.223D-02 0.882D-01
 Coeff:      0.243D+00 0.669D+00
 Gap=     0.122 Goal=   None    Shift=    0.000
 RMSDP=3.72D-08 MaxDP=2.15D-06 DE= 5.52D-10 OVMax= 4.31D-06

 Cycle  21  Pass 1  IDiag  1:
 E= -3319.84122075697     Delta-E=        0.000000000371 Rises=F Damp=F
 DIIS: error= 5.79D-08 at cycle  21 NSaved=  20.
 NSaved=20 IEnMin=17 EnMin= -3319.84122076742     IErMin=20 ErrMin= 5.79D-08
 ErrMax= 5.79D-08  0.00D+00 EMaxC= 1.00D-01 BMatC= 2.15D-12 BMatP= 3.73D-11
 IDIUse=1 WtCom= 1.00D+00 WtEn= 0.00D+00
 Coeff-Com:  0.977D-07-0.223D-06 0.218D-06-0.137D-06 0.137D-05 0.211D-05
 Coeff-Com:  0.508D-05 0.575D-05 0.659D-04-0.343D-04-0.808D-04-0.903D-04
 Coeff-Com: -0.132D-03 0.308D-04-0.138D-02-0.110D-02 0.545D-02 0.463D-01
 Coeff-Com:  0.221D+00 0.730D+00
 Coeff:      0.977D-07-0.223D-06 0.218D-06-0.137D-06 0.137D-05 0.211D-05
 Coeff:      0.508D-05 0.575D-05 0.659D-04-0.343D-04-0.808D-04-0.903D-04
 Coeff:     -0.132D-03 0.308D-04-0.138D-02-0.110D-02 0.545D-02 0.463D-01
 Coeff:      0.221D+00 0.730D+00
 Gap=     0.122 Goal=   None    Shift=    0.000
 RMSDP=6.18D-09 MaxDP=4.09D-07 DE= 3.71D-10 OVMax= 6.97D-07

 Error on nuclear    polarization charges =  0.01468
 Error on electronic polarization charges = -0.04928
 SCF Done:  E(RB-P86) =  -3319.84122076     A.U. after   21 cycles
            NFock= 21  Conv=0.62D-08     -V/T= 2.0928
 KE= 3.037936150088D+03 PE=-9.247315673926D+03 EE= 2.162464695920D+03
 --------------------------------------------------------------------
 Variational C-PCM results
 =========================
 <psi(f)|   H    |psi(f)>                     (a.u.) =   -3319.778543
 <psi(f)|H+V(f)/2|psi(f)>                     (a.u.) =   -3319.841221
 Total free energy in solution:
 - with all non electrostatic terms           (a.u.) =   -3319.823506
 --------------------------------------------------------------------
 (Polarized solute)-Solvent               (kcal/mol) =     -39.33
 --------------------------------------------------------------------
 Cavitation energy                        (kcal/mol) =      22.00
 Dispersion energy                        (kcal/mol) =     -12.17
 Repulsion energy                         (kcal/mol) =       1.29
 Total non electrostatic                  (kcal/mol) =      11.12
 --------------------------------------------------------------------
 Partition over spheres:
 Sphere  on Atom  Surface  Charge   GEl     GCav    GDR
    1     Pa1      18.22  -0.326   -6.85    1.08   -0.20
    2      O2      17.43   0.178   -1.73    2.54   -0.96
    3      O3      17.00   0.120   -0.22    2.42   -0.88
    4     Br4      47.07   0.392   -8.34    5.72   -3.37
    5      H5       9.21  -0.135   -2.43    1.30   -0.86
    6      O6      13.94  -0.045   -1.72    2.01   -0.74
    7      H7       9.20  -0.170   -6.50    1.30   -0.88
    8      H8       9.20  -0.169   -5.98    1.30   -0.89
    9      H9       9.19  -0.120   -1.44    1.30   -0.86
   10      O10     21.24   0.274   -4.13    3.04   -1.25
 --------------------------------------------------------------------
 - cavitation energy not included in the total energy.
 - dispersion energy not included in the total energy.
 - repulsion  energy not included in the total energy.
 After PCM corrections, the energy is  -3319.84122076     a.u.
 --------------------------------------------------------------------
 Writing COSMO formatted file "pao_oh2_br_h2o-bp86-cosmors-deftzvp-klamt.cosmo"
 Recomputed dielectric energy= -0.062891 old= -0.062678 diff=-2.14D-04
 Leave Link  502 at Tue Jul  4 11:14:50 2023, MaxMem=  2147483648 cpu:             804.7 elap:             144.3
 (Enter /home/pcmt/gaussian/g16.C.01/g16/l601.exe)
 Copying SCF densities to generalized density rwf, IOpCl= 0 IROHF=0.

 **********************************************************************

            Population analysis using the SCF Density.

 **********************************************************************

 Orbital symmetries:
       Occupied  (A) (A) (A) (A) (A) (A) (A) (A) (A) (A) (A) (A)
                 (A) (A) (A) (A) (A) (A) (A) (A) (A) (A) (A) (A)
                 (A) (A) (A) (A) (A) (A) (A) (A) (A) (A) (A) (A)
                 (A) (A) (A) (A) (A) (A) (A) (A) (A) (A) (A) (A)
                 (A) (A) (A)
       Virtual   (A) (A) (A) (A) (A) (A) (A) (A) (A) (A) (A) (A)
                 (A) (A) (A) (A) (A) (A) (A) (A) (A) (A) (A) (A)
                 (A) (A) (A) (A) (A) (A) (A) (A) (A) (A) (A) (A)
                 (A) (A) (A) (A) (A) (A) (A) (A) (A) (A) (A) (A)
                 (A) (A) (A) (A) (A) (A) (A) (A) (A) (A) (A) (A)
                 (A) (A) (A) (A) (A) (A) (A) (A) (A) (A) (A) (A)
                 (A) (A) (A) (A) (A) (A) (A) (A) (A) (A) (A) (A)
                 (A) (A) (A) (A) (A) (A) (A) (A) (A) (A) (A) (A)
                 (A) (A) (A) (A) (A) (A) (A) (A) (A) (A) (A) (A)
                 (A) (A) (A) (A) (A) (A) (A) (A) (A) (A) (A) (A)
                 (A) (A) (A) (A) (A) (A) (A) (A) (A) (A) (A) (A)
                 (A) (A) (A) (A) (A) (A) (A) (A) (A) (A) (A) (A)
                 (A) (A) (A) (A) (A) (A) (A) (A) (A) (A) (A) (A)
                 (A) (A) (A) (A) (A) (A) (A) (A) (A) (A) (A) (A)
                 (A) (A) (A) (A) (A) (A) (A) (A) (A) (A) (A) (A)
                 (A) (A) (A) (A) (A) (A) (A) (A) (A) (A) (A) (A)
                 (A) (A) (A) (A) (A) (A) (A) (A) (A) (A) (A) (A)
                 (A) (A) (A) (A) (A) (A) (A) (A) (A) (A) (A) (A)
                 (A) (A) (A) (A) (A) (A) (A) (A) (A) (A) (A) (A)
                 (A) (A) (A) (A) (A) (A) (A) (A) (A) (A) (A) (A)
                 (A) (A) (A) (A)
 The electronic state is 1-A.
 Alpha  occ. eigenvalues -- -481.10594 -61.79770 -55.70937 -55.70881 -55.70860
 Alpha  occ. eigenvalues --  -18.82225 -18.77212 -18.75863 -18.74601 -11.08820
 Alpha  occ. eigenvalues --   -8.37192  -7.15772  -7.15636  -7.13976  -6.24346
 Alpha  occ. eigenvalues --   -6.24185  -6.24122  -3.51539  -3.51495  -3.50679
 Alpha  occ. eigenvalues --   -3.50527  -3.49906  -2.44798  -2.44760  -2.44713
 Alpha  occ. eigenvalues --   -2.44589  -2.44586  -1.71429  -0.97971  -0.97768
 Alpha  occ. eigenvalues --   -0.91980  -0.87968  -0.83116  -0.79387  -0.68252
 Alpha  occ. eigenvalues --   -0.65727  -0.52772  -0.43306  -0.41736  -0.41177
 Alpha  occ. eigenvalues --   -0.32387  -0.31917  -0.30740  -0.29089  -0.29014
 Alpha  occ. eigenvalues --   -0.28480  -0.27822  -0.26511  -0.25772  -0.24708
 Alpha  occ. eigenvalues --   -0.23917
 Alpha virt. eigenvalues --   -0.11681  -0.10948  -0.10574  -0.10345  -0.09317
 Alpha virt. eigenvalues --   -0.07712  -0.07035  -0.02375  -0.02079  -0.00944
 Alpha virt. eigenvalues --    0.01012   0.01826   0.02690   0.04080   0.04667
 Alpha virt. eigenvalues --    0.05833   0.07905   0.09641   0.10184   0.11319
 Alpha virt. eigenvalues --    0.13382   0.17960   0.19839   0.21186   0.22229
[...]
   XY=              1.5559   XZ=             -5.3972   YZ=             -0.7678
 Traceless Quadrupole moment (field-independent basis, Debye-Ang):
   XX=              7.3888   YY=             -7.7441   ZZ=              0.3553
   XY=              1.5559   XZ=             -5.3972   YZ=             -0.7678
 Octapole moment (field-independent basis, Debye-Ang**2):
  XXX=            150.1538  YYY=             34.4365  ZZZ=             -3.8749  XYY=             13.1865
  XXY=             -1.2266  XXZ=            -20.8446  XZZ=             10.5580  YZZ=            -12.3987
  YYZ=              7.1919  XYZ=             -1.6159
 Hexadecapole moment (field-independent basis, Debye-Ang**3):
 XXXX=           -930.9724 YYYY=           -375.2604 ZZZZ=           -233.9101 XXXY=             -5.4756
 XXXZ=            -82.9488 YYYX=             22.9094 YYYZ=             25.1413 ZZZX=              6.0474
 ZZZY=            -30.2570 XXYY=           -243.1597 XXZZ=           -244.6864 YYZZ=           -109.8202
 XXYZ=             -3.0470 YYXZ=             -0.4210 ZZXY=             -8.3229
 N-N= 7.270736071604D+02 E-N=-9.247315664793D+03  KE= 3.037936150088D+03
 Orbital energies and kinetic energies (alpha):
                                 1                 2
   1         O              -481.105936        595.240281
   2         O               -61.797698        117.224766
   3         O               -55.709374        116.498363
   4         O               -55.708811        116.504746
   5         O               -55.708597        116.504719
   6         O               -18.822252         29.113713
   7         O               -18.772115         29.111846
   8         O               -18.758631         29.113776
   9         O               -18.746008         29.109957
  10         O               -11.088202          4.703910
  11         O                -8.371917         27.785109
  12         O                -7.157721          5.036458
  13         O                -7.156358          5.036823
  14         O                -7.139763          5.032896
  15         O                -6.243459         25.783966
  16         O                -6.241855         25.790145
  17         O                -6.241216         25.790618
  18         O                -3.515387          6.836205
  19         O                -3.514949          6.836697
  20         O                -3.506794          6.831517
  21         O                -3.505265          6.832063
  22         O                -3.499058          6.826989
  23         O                -2.447983         21.392772
  24         O                -2.447598         21.395538
  25         O                -2.447132         21.396372
  26         O                -2.445892         21.402125
  27         O                -2.445857         21.401951
  28         O                -1.714294          6.382452
  29         O                -0.979705          2.285527
  30         O                -0.977681          2.676101
  31         O                -0.919801          2.433174
  32         O                -0.879676          3.067856
  33         O                -0.831157          2.217874
  34         O                -0.793866          2.569375
  35         O                -0.682518          3.214171
  36         O                -0.657270          3.946172
  37         O                -0.527719          1.890090
  38         O                -0.433063          2.251858
  39         O                -0.417364          2.494993
  40         O                -0.411771          4.217219
  41         O                -0.323873          2.355286
  42         O                -0.319169          2.437694
  43         O                -0.307400          2.065621
  44         O                -0.290886          2.397465
  45         O                -0.290139          2.475070
  46         O                -0.284797          3.124502
  47         O                -0.278216          5.196313
  48         O                -0.265108          3.351865
  49         O                -0.257715          5.544240
  50         O                -0.247081          2.538133
  51         O                -0.239174          3.300701
  52         V                -0.116810        115.923230
  53         V                -0.109479          5.302245
  54         V                -0.105742          5.444218
  55         V                -0.103451          5.172480
  56         V                -0.093170        159.462931
  57         V                -0.077123         72.437385
  58         V                -0.070347         18.601050
  59         V                -0.023749          7.447195
  60         V                -0.020788         23.552145
  61         V                -0.009443          2.626141
  62         V                 0.010120          1.044286
  63         V                 0.018265          0.826221
  64         V                 0.026895          1.056801
  65         V                 0.040800          1.860293
  66         V                 0.046669          2.212663
  67         V                 0.058327          2.158629
  68         V                 0.079050         13.590640
  69         V                 0.096414          7.605483
  70         V                 0.101836          4.597938
  71         V                 0.113194          1.176192
  72         V                 0.133816          1.245629
  73         V                 0.179598          1.159468
  74         V                 0.198393          1.254778
  75         V                 0.211859          1.530525
  76         V                 0.222289          1.515035
  77         V                 0.229364          1.391139
  78         V                 0.248808          1.637201
  79         V                 0.253811          1.584481
  80         V                 0.263599          1.554819
  81         V                 0.267788          1.350393
  82         V                 0.272677          1.404723
  83         V                 0.277832          1.547241
  84         V                 0.292643          1.505417
  85         V                 0.307543          1.274041
  86         V                 0.316469          1.515226
  87         V                 0.338404          1.796693
  88         V                 0.352326          1.393546
  89         V                 0.362379          1.862722
  90         V                 0.384268          1.481386
  91         V                 0.394833          1.559512
  92         V                 0.401427          1.506789
  93         V                 0.438031          1.915354
  94         V                 0.443789          2.093779
  95         V                 0.451730          1.965839
  96         V                 0.466690          1.701914
  97         V                 0.474586          1.815558
  98         V                 0.489260          1.662478
  99         V                 0.509393          1.774989
 100         V                 0.527676          1.727694
 101         V                 0.530160          1.692654
 102         V                 0.550430          1.548393
 103         V                 0.566735          1.811588
 104         V                 0.573584          1.507894
 105         V                 0.590245          1.642502
 106         V                 0.621881          1.551044
 107         V                 0.627954          1.707051
 108         V                 0.649213          5.270960
 109         V                 0.665993          1.808214
 110         V                 0.668581          1.683338
 111         V                 0.695821          1.610491
 112         V                 0.715316          1.545432
 113         V                 0.735387          1.599800
 114         V                 0.797041          2.049267
 115         V                 0.843972          2.060515
 116         V                 0.905543          3.311043
 117         V                 0.937119          3.287356
 118         V                 1.019423          2.504167
 119         V                 1.036532          2.681076
 120         V                 1.044190          2.750849
 121         V                 1.066476          2.600543
 122         V                 1.096290          2.571143
 123         V                 1.103935          2.850252
 124         V                 1.115748          3.071998
 125         V                 1.126351          2.937924
 126         V                 1.143996          2.966694
 127         V                 1.155738          2.846376
 128         V                 1.160006          2.756668
 129         V                 1.174166          2.684098
 130         V                 1.178319          3.004634
 131         V                 1.196939          2.789753
 132         V                 1.222945          3.167855
 133         V                 1.241761          2.563717
 134         V                 1.256316          2.971010
 135         V                 1.282188          3.506717
 136         V                 1.305590          2.481986
 137         V                 1.313614          3.888114
 138         V                 1.333067          3.069536
 139         V                 1.338499          4.011654
 140         V                 1.363579          3.188051
 141         V                 1.383695          3.654285
 142         V                 1.389147          3.711050
 143         V                 1.406210          3.457054
 144         V                 1.428928          3.402055
 145         V                 1.442856          3.540384
 146         V                 1.450117          3.156755
 147         V                 1.482301          2.828711
 148         V                 1.488849          3.067334
 149         V                 1.490724          2.811475
 150         V                 1.510177          2.732155
 151         V                 1.520898          3.915776
 152         V                 1.548605          3.632644
 153         V                 1.561861          4.079111
 154         V                 1.571382          6.119251
 155         V                 1.588258          5.872404
 156         V                 1.597218          3.318130
 157         V                 1.610452          3.945991
 158         V                 1.627051          3.832498
 159         V                 1.629318          3.323334
 160         V                 1.650759          3.248981
 161         V                 1.667811          3.270468
 162         V                 1.681085          3.045136
 163         V                 1.722732          3.615514
 164         V                 1.745075          3.721052
 165         V                 1.759316          3.404749
 166         V                 1.776136          4.065206
 167         V                 1.787403          3.393235
 168         V                 1.834107          3.705013
 169         V                 1.843774          3.868624
 170         V                 1.856499          3.533113
 171         V                 1.882711          3.743674
 172         V                 1.914086          3.613370
 173         V                 1.962164          4.243889
 174         V                 2.019807          3.759368
 175         V                 2.026615          2.939645
 176         V                 2.064929          3.903066
 177         V                 2.094046          3.723591
 178         V                 2.110917          3.612938
 179         V                 2.145772          3.900016
 180         V                 2.176833          4.125062
 181         V                 2.179668          3.879743
 182         V                 2.219600          4.396159
 183         V                 2.258141          4.142545
 184         V                 2.283012          5.047878
 185         V                 2.319675          5.064271
 186         V                 2.370073          5.546656
 187         V                 2.467723          4.353599
 188         V                 2.484087          4.409830
 189         V                 2.493671          4.387819
 190         V                 2.525252          6.707128
 191         V                 2.590813          4.850331
 192         V                 2.612151          5.886558
 193         V                 2.617983          6.819543
 194         V                 2.626092          6.869989
 195         V                 2.661109          5.801196
 196         V                 2.673659          6.133409
 197         V                 2.814158          6.995380
 198         V                 2.851365          6.789715
 199         V                 2.886870          6.633894
 200         V                 2.954206          7.008355
 201         V                 3.005532          7.478131
 202         V                 3.165962          7.444405
 203         V                 3.366451          8.313127
 204         V                 3.533685          6.313047
 205         V                 3.604770          8.430048
 206         V                 3.686973          7.340394
 207         V                 3.694642          8.117511
 208         V                 3.715149          9.531376
 209         V                 3.749411          8.080087
 210         V                 3.813220         10.099383
 211         V                 3.821212          9.796362
 212         V                 3.868696          7.869403
 213         V                 3.882398          8.559609
 214         V                 3.925512         12.725947
 215         V                 3.940550         11.321311
 216         V                 3.948648         12.328414
 217         V                 4.020047          9.902995
 218         V                 4.041708         12.634145
 219         V                 4.055273         12.387215
 220         V                 4.152288         11.381338
 221         V                 4.278818          9.143121
 222         V                 4.961927          6.530205
 223         V                 5.004500          6.445773
 224         V                 5.012146          6.501740
 225         V                 5.017074          6.451868
 226         V                 5.023204          6.514970
 227         V                 5.031969          6.469355
 228         V                 5.041321          6.467790
 229         V                 5.074990          6.773124
 230         V                 5.087299          6.737777
 231         V                 5.098211          6.592279
 232         V                 5.112117          6.667045
 233         V                 5.139810          6.780486
 234         V                 5.148782          6.769695
 235         V                 5.169157          6.877099
 236         V                 5.202344          6.927290
 237         V                 5.218468          6.960654
 238         V                 5.227589          6.916268
 239         V                 5.241704          6.823203
 240         V                 5.292432          7.638032
 241         V                 5.311324          6.944549
 242         V                 5.338810          7.259082
 243         V                 5.345725          7.056025
 244         V                 5.391901          7.346623
 245         V                 5.435553          7.211337
 246         V                 5.841135          8.521315
 247         V                 6.045528          9.795576
 248         V                 6.055919          9.534517
 249         V                 6.109813          9.336175
 250         V                 6.123913         10.164922
 251         V                 6.151069          9.308610
 252         V                 6.185104          9.336128
 253         V                 6.189134          9.463888
 254         V                 6.209300          9.380768
 255         V                 6.218732          9.452410
 256         V                 6.237722          9.410995
 257         V                 6.298593          9.409904
 258         V                 6.338611          9.440133
 259         V                 6.381731          9.705249
 260         V                 6.425238          9.636432
 261         V                 6.521784         10.080947
 262         V                 6.577552          9.744775
 263         V                 6.600398          9.723284
 264         V                 6.669123         10.624192
 265         V                 6.726787         10.158054
 266         V                 6.764407          9.679397
 267         V                 6.810630         10.513609
 268         V                 6.865441          9.799125
 269         V                 6.918468          9.837024
 270         V                 6.994775         10.380379
 271         V                 7.112809         14.717463
 272         V                 7.246690         13.804586
 273         V                 7.398472         36.730393
 274         V                 7.479184         13.818556
 275         V                 8.122257         15.893983
 276         V                 8.174988         15.820327
 277         V                 8.212981         15.812357
 278         V                 8.519624         16.104797
 279         V                 8.914183         16.208617
 280         V                29.308805         36.023261
 281         V                29.315396         36.024658
 282         V                29.487213         36.178079
 283         V                43.039075        108.463310
 284         V                43.192291        108.548907
 285         V                43.403118        108.747557
 286         V                43.548107        108.896732
 287         V                54.078211         39.966605
 288         V                70.222765         83.945740
 289         V                70.224979         83.951617
 290         V                70.327040         84.125306
 291         V               142.610254        242.422198
 292         V               142.617324        242.430810
 293         V               142.804282        242.663367
 294         V               202.590293        130.071296
 295         V               626.103883       1034.490667
 Total kinetic energy from orbitals= 3.037936150088D+03
 No NMR shielding tensors so no spin-rotation constants.
 Leave Link  601 at Tue Jul  4 11:14:50 2023, MaxMem=  2147483648 cpu:               3.0 elap:               0.4
 (Enter /home/pcmt/gaussian/g16.C.01/g16/l9999.exe)

 Test job not archived.
 1\1\GINC-U-0-13\SP\RBP86\Gen\Br1H4O4Pa1\ROOT\04-Jul-2023\0\\#p BP86/GE
 N Pseudo=Read GFInput GFPrint IOP(6/7=3) Symm=(Loose) Int=(UltraFine) 
 Guess=(Harris) SCRF=(COSMORS) Scf=(NoVarAcc,MaxCycle=100,conver=8)\\pa
 o_oh2_br_h2o-bp86-cosmors-deftzvp-klamt.com SGP in PCM calculation\\0,
 1\Pa,0,-0.1609849271,0.0736191253,0.8025224204\O,0,1.1086654668,1.5255
 224521,-0.1101359356\O,0,-1.740139052,0.8080422178,-0.3597468418\Br,0,
 -0.9289485092,1.648368645,3.108358678\H,0,-1.8284004206,1.5517498224,-
 0.9717909525\O,0,0.0313892201,-1.6345527086,-1.0030423525\H,0,-0.47026
 65718,-1.6528421135,-1.8287456439\H,0,0.7128039413,-2.3168166048,-1.06
 39838657\H,0,2.063589187,1.6205695959,-0.0116383295\O,0,1.1871947746,-
 0.8541232382,1.6751913284\\Version=ES64L-G16RevC.01\State=1-A\HF=-3319
 .8412208\RMSD=6.175e-09\Dipole=-0.0870705,-2.831188,-4.3919104\Quadrup
 ole=-3.6439623,2.6831912,0.9607711,2.7527966,-0.2906172,5.5768059\PG=C
 01 [X(Br1H4O4Pa1)]\\@


  THE LARGE PRINT GIVETH,
  AND THE SMALL PRINT TAKETH AWAY.

                     -- TOM WAITS
 Job cpu time:       0 days  0 hours 13 minutes 54.0 seconds.
 Elapsed time:       0 days  0 hours  2 minutes 28.3 seconds.
 File lengths (MBytes):  RWF=     47 Int=      0 D2E=      0 Chk=      7 Scr=      1
 Normal termination of Gaussian 16 at Tue Jul  4 11:14:50 2023.
