 Entering Gaussian System, Link 0=/home/pcmt/gaussian/g16.C.01/g16/g16
 AtFile(1): /home/shaaban/basis.gaussian/Pa-def-TZVP
 AtFile(1): /home/shaaban/basis.gaussian/Pa-ECP60MWB
 Initial command:
 /home/pcmt/gaussian/g16.C.01/g16/l1.exe "/state/partition2/shaaban/971914.phlam-s-sakura/Gau-53971.inp" -scrdir="/state/partition2/shaaban/971914.phlam-s-sakura/"
 Entering Link 1 = /home/pcmt/gaussian/g16.C.01/g16/l1.exe PID=     53972.
  
 Copyright (c) 1988-2019, Gaussian, Inc.  All Rights Reserved.
  
 This is part of the Gaussian(R) 16 program.  It is based on
 the Gaussian(R) 09 system (copyright 2009, Gaussian, Inc.),
 the Gaussian(R) 03 system (copyright 2003, Gaussian, Inc.),
 the Gaussian(R) 98 system (copyright 1998, Gaussian, Inc.),
 the Gaussian(R) 94 system (copyright 1995, Gaussian, Inc.),
 the Gaussian 92(TM) system (copyright 1992, Gaussian, Inc.),
 the Gaussian 90(TM) system (copyright 1990, Gaussian, Inc.),
 the Gaussian 88(TM) system (copyright 1988, Gaussian, Inc.),
 the Gaussian 86(TM) system (copyright 1986, Carnegie Mellon
 University), and the Gaussian 82(TM) system (copyright 1983,
 Carnegie Mellon University). Gaussian is a federally registered
 trademark of Gaussian, Inc.
  
 This software contains proprietary and confidential information,
 including trade secrets, belonging to Gaussian, Inc.
  
 This software is provided under written license and may be
 used, copied, transmitted, or stored only in accord with that
 written license.
  
 The following legend is applicable only to US Government
 contracts under FAR:
  
                    RESTRICTED RIGHTS LEGEND
  
 Use, reproduction and disclosure by the US Government is
 subject to restrictions as set forth in subparagraphs (a)
 and (c) of the Commercial Computer Software - Restricted
 Rights clause in FAR 52.227-19.
  
 Gaussian, Inc.
 340 Quinnipiac St., Bldg. 40, Wallingford CT 06492
  
  
 ---------------------------------------------------------------
 Warning -- This program may not be used in any manner that
 competes with the business of Gaussian, Inc. or will provide
 assistance to any competitor of Gaussian, Inc.  The licensee
 of this program is prohibited from giving any competitor of
 Gaussian, Inc. access to this program.  By using this program,
 the user acknowledges that Gaussian, Inc. is engaged in the
 business of creating and licensing software in the field of
 computational chemistry and represents and warrants to the
 licensee that it is not a competitor of Gaussian, Inc. and that
 it will not use this program in any manner prohibited above.
 ---------------------------------------------------------------
  

 Cite this work as:
 Gaussian 16, Revision C.01,
 M. J. Frisch, G. W. Trucks, H. B. Schlegel, G. E. Scuseria, 
 M. A. Robb, J. R. Cheeseman, G. Scalmani, V. Barone, 
 G. A. Petersson, H. Nakatsuji, X. Li, M. Caricato, A. V. Marenich, 
 J. Bloino, B. G. Janesko, R. Gomperts, B. Mennucci, H. P. Hratchian, 
 J. V. Ortiz, A. F. Izmaylov, J. L. Sonnenberg, D. Williams-Young, 
 F. Ding, F. Lipparini, F. Egidi, J. Goings, B. Peng, A. Petrone, 
 T. Henderson, D. Ranasinghe, V. G. Zakrzewski, J. Gao, N. Rega, 
 G. Zheng, W. Liang, M. Hada, M. Ehara, K. Toyota, R. Fukuda, 
 J. Hasegawa, M. Ishida, T. Nakajima, Y. Honda, O. Kitao, H. Nakai, 
 T. Vreven, K. Throssell, J. A. Montgomery, Jr., J. E. Peralta, 
 F. Ogliaro, M. J. Bearpark, J. J. Heyd, E. N. Brothers, K. N. Kudin, 
 V. N. Staroverov, T. A. Keith, R. Kobayashi, J. Normand, 
 K. Raghavachari, A. P. Rendell, J. C. Burant, S. S. Iyengar, 
 J. Tomasi, M. Cossi, J. M. Millam, M. Klene, C. Adamo, R. Cammi, 
 J. W. Ochterski, R. L. Martin, K. Morokuma, O. Farkas, 
 J. B. Foresman, and D. J. Fox, Gaussian, Inc., Wallingford CT, 2019.
 
 ******************************************
 Gaussian 16:  ES64L-G16RevC.01  3-Jul-2019
                26-Jun-2023 
 ******************************************
 %mem=16Gb
 %NProc=8
 Will use up to    8 processors via shared memory.
 %chk=pa_oh4_c2o4-bp86-cosmors-deftzvp-gp.chk
 ----------------------------------------------------------------------
 #p BP86/GEN Pseudo=Read GFInput GFPrint IOP(6/7=3) Symm=(Loose) Int=(U
 ltraFine) Guess=(Harris) Scf=(NoVarAcc,MaxCycle=100,conver=8)
 ----------------------------------------------------------------------
 1/38=1,172=1/1;
 2/12=2,17=4,18=3,40=1/2;
 3/5=7,11=2,16=1,17=8,24=110,25=1,30=1,74=404,75=-5/1,2,3;
 4/11=8/1;
 5/5=2,6=8,7=100,38=1/2;
 6/7=3,8=2,9=2,10=2,28=1/1;
 99/5=1,9=1/99;
 Leave Link    1 at Mon Jun 26 13:02:18 2023, MaxMem=  2147483648 cpu:               0.7 elap:               0.1
 (Enter /home/pcmt/gaussian/g16.C.01/g16/l101.exe)
 --------------------------------------------------------------
 pa_oh4_c2o4-bp86-cosmors-deftzvp-gp.com SGP in PCM calculation
 --------------------------------------------------------------
 Symbolic Z-matrix:
 Charge = -1 Multiplicity = 1
 Pa                    0.65993  -0.22562  -0.37366 
 O                     1.16007   1.29319  -1.77509 
 H                     0.87026   1.54966  -2.65868 
 O                    -0.73662   1.06564   0.61019 
 H                    -1.08987   1.94626   0.44089 
 O                    -0.56855  -1.16917  -1.84465 
 H                    -1.18937  -1.90214  -1.91588 
 O                     0.28265  -1.75092   1.05727 
 H                    -0.38754  -1.92383   1.7292 
 O                     2.5325    0.45845   0.85561 
 O                     2.61241  -1.36685  -0.98738 
 C                     3.72131  -0.014     0.65288 
 C                     3.76826  -1.12286  -0.45639 
 O                     4.73708   0.33157   1.23446 
 O                     4.8195   -1.66908  -0.74968 
 
 ITRead=  0  0  0  0  0  0  0  0  0  0  0  0  0  0  0
 MicOpt= -1 -1 -1 -1 -1 -1 -1 -1 -1 -1 -1 -1 -1 -1 -1
 NAtoms=     15 NQM=       15 NQMF=       0 NMMI=      0 NMMIF=      0
                NMic=       0 NMicF=      0.
                    Isotopes and Nuclear Properties:
 (Nuclear quadrupole moments (NQMom) in fm**2, nuclear magnetic moments (NMagM)
  in nuclear magnetons)

  Atom         1           2           3           4           5           6           7           8           9          10
 IAtWgt=         231          16           1          16           1          16           1          16           1          16
 AtmWgt= 231.0359000  15.9949146   1.0078250  15.9949146   1.0078250  15.9949146   1.0078250  15.9949146   1.0078250  15.9949146
 NucSpn=           3           0           1           0           1           0           1           0           1           0
 AtZEff=  -0.0000000  -0.0000000  -0.0000000  -0.0000000  -0.0000000  -0.0000000  -0.0000000  -0.0000000  -0.0000000  -0.0000000
 NQMom= -172.0000000   0.0000000   0.0000000   0.0000000   0.0000000   0.0000000   0.0000000   0.0000000   0.0000000   0.0000000
 NMagM=    2.0100000   0.0000000   2.7928460   0.0000000   2.7928460   0.0000000   2.7928460   0.0000000   2.7928460   0.0000000
 AtZNuc=  91.0000000   8.0000000   1.0000000   8.0000000   1.0000000   8.0000000   1.0000000   8.0000000   1.0000000   8.0000000

  Atom        11          12          13          14          15
 IAtWgt=          16          12          12          16          16
 AtmWgt=  15.9949146  12.0000000  12.0000000  15.9949146  15.9949146
 NucSpn=           0           0           0           0           0
 AtZEff=  -0.0000000  -0.0000000  -0.0000000  -0.0000000  -0.0000000
 NQMom=    0.0000000   0.0000000   0.0000000   0.0000000   0.0000000
 NMagM=    0.0000000   0.0000000   0.0000000   0.0000000   0.0000000
 AtZNuc=   8.0000000   6.0000000   6.0000000   8.0000000   8.0000000
 Leave Link  101 at Mon Jun 26 13:02:18 2023, MaxMem=  2147483648 cpu:               0.7 elap:               0.1
 (Enter /home/pcmt/gaussian/g16.C.01/g16/l202.exe)
                          Input orientation:                          
 ---------------------------------------------------------------------
 Center     Atomic      Atomic             Coordinates (Angstroms)
 Number     Number       Type             X           Y           Z
 ---------------------------------------------------------------------
      1         91           0        0.659928   -0.225621   -0.373656
      2          8           0        1.160074    1.293185   -1.775093
      3          1           0        0.870262    1.549663   -2.658682
      4          8           0       -0.736625    1.065639    0.610187
      5          1           0       -1.089867    1.946259    0.440885
      6          8           0       -0.568550   -1.169170   -1.844654
      7          1           0       -1.189371   -1.902136   -1.915876
      8          8           0        0.282654   -1.750917    1.057266
      9          1           0       -0.387536   -1.923829    1.729197
     10          8           0        2.532500    0.458452    0.855607
     11          8           0        2.612405   -1.366850   -0.987380
     12          6           0        3.721310   -0.014002    0.652882
     13          6           0        3.768260   -1.122858   -0.456392
     14          8           0        4.737078    0.331570    1.234459
     15          8           0        4.819497   -1.669078   -0.749681
 ---------------------------------------------------------------------
                    Distance matrix (angstroms):
                    1          2          3          4          5
     1  Pa   0.000000
     2  O    2.126251   0.000000
     3  H    2.901244   0.964625   0.000000
     4  O    2.141415   3.055946   3.674489   0.000000
     5  H    2.905568   3.224795   3.688728   0.963813   0.000000
     6  O    2.136183   3.009348   3.181961   3.323983   3.898892
     7  H    2.934119   3.968601   4.087636   3.923476   4.513798
     8  O    2.125183   4.249551   5.004736   3.028498   3.991598
     9  H    2.898807   5.002432   5.735911   3.211069   4.138913
    10  O    2.342130   3.082355   4.037821   3.334079   3.937907
    11  O    2.343337   3.131380   3.786074   4.436803   5.169473
    12  C    3.235834   3.763473   4.641118   4.587006   5.199519
    13  C    3.236295   3.791948   4.515621   5.120654   5.816011
    14  O    4.418104   4.772532   5.620726   5.557876   6.098383
    15  O    4.418934   4.818490   5.440682   6.340221   7.029132
                    6          7          8          9         10
     6  O    0.000000
     7  H    0.963188   0.000000
     8  O    3.079629   3.321039   0.000000
     9  H    3.657141   3.732287   0.964647   0.000000
    10  O    4.422338   5.206325   3.159713   3.868467   0.000000
    11  O    3.300374   3.949955   3.123431   4.085298   2.595132
    12  C    5.096567   5.854773   3.873597   4.657092   1.295214
    13  C    4.553826   5.226421   3.851632   4.763296   2.397704
    14  O    6.315286   7.073673   4.920370   5.620788   2.240489
    15  O    5.520862   6.125424   4.884127   5.772601   3.511935
                   11         12         13         14         15
    11  O    0.000000
    12  C    2.397984   0.000000
    13  C    1.295176   1.569157   0.000000
    14  O    3.512183   1.220424   2.431654   0.000000
    15  O    2.240334   2.431558   1.220440   2.818900   0.000000
 Stoichiometry    C2H4O8Pa(1-)
 Framework group  C1[X(C2H4O8Pa)]
 Deg. of freedom    39
 Full point group                 C1      NOp   1
 Largest Abelian subgroup         C1      NOp   1
 Largest concise Abelian subgroup C1      NOp   1
                         Standard orientation:                         
 ---------------------------------------------------------------------
 Center     Atomic      Atomic             Coordinates (Angstroms)
 Number     Number       Type             X           Y           Z
 ---------------------------------------------------------------------
      1         91           0        0.648015   -0.000954    0.003676
      2          8           0        0.526849   -0.089794   -2.117260
      3          1           0        0.970241    0.337692   -2.859662
      4          8           0        2.013571   -1.649838    0.049471
      5          1           0        2.480343   -2.169507   -0.614610
      6          8           0        1.972678    1.667992   -0.148519
      7          1           0        2.515016    2.223643    0.421439
      8          8           0        0.643315    0.075286    2.127486
      9          1           0        1.184059   -0.290303    2.837757
     10          8           0       -1.301854   -1.297649    0.050191
     11          8           0       -1.302868    1.297203    0.012040
     12          6           0       -2.491195   -0.785615    0.020723
     13          6           0       -2.491777    0.783463    0.005047
     14          8           0       -3.538991   -1.411140    0.004071
     15          8           0       -3.540348    1.407715   -0.011740
 ---------------------------------------------------------------------
 Rotational constants (GHZ):           1.2898446           0.4983834           0.4666748
 Leave Link  202 at Mon Jun 26 13:02:18 2023, MaxMem=  2147483648 cpu:               0.1 elap:               0.0
 (Enter /home/pcmt/gaussian/g16.C.01/g16/l301.exe)
 General basis read from cards:  (5D, 7F)
 Centers:       1
 S 3 1.00
     Exponent=  1.2047376000D+04 Coefficients=  3.4500000000D-04
     Exponent=  1.8116841000D+03 Coefficients=  2.7420000000D-03
     Exponent=  3.4770104000D+02 Coefficients=  1.0053000000D-02
 S 1 1.00
     Exponent=  9.8678010000D+01 Coefficients=  1.0000000000D+00
 S 3 1.00
     Exponent=  5.7507376000D+01 Coefficients=  5.1528000000D-02
     Exponent=  3.3502601000D+01 Coefficients= -2.3692400000D-01
     Exponent=  1.9554451000D+01 Coefficients=  7.1904800000D-01
 S 1 1.00
     Exponent=  9.7164210000D+00 Coefficients=  1.0000000000D+00
 S 1 1.00
     Exponent=  2.6920960000D+00 Coefficients=  1.0000000000D+00
 S 1 1.00
     Exponent=  1.4538470000D+00 Coefficients=  1.0000000000D+00
 S 1 1.00
     Exponent=  5.7435200000D-01 Coefficients=  1.0000000000D+00
 S 1 1.00
     Exponent=  2.6346800000D-01 Coefficients=  1.0000000000D+00
 S 1 1.00
     Exponent=  5.6557000000D-02 Coefficients=  1.0000000000D+00
 S 1 1.00
     Exponent=  2.3169000000D-02 Coefficients=  1.0000000000D+00
 P 5 1.00
     Exponent=  2.9033676000D+03 Coefficients=  3.5000000000D-05
     Exponent=  6.4486356000D+02 Coefficients=  2.0500000000D-04
     Exponent=  2.2025896000D+02 Coefficients=  1.2510000000D-03
     Exponent=  8.0276401000D+01 Coefficients=  2.4570000000D-03
     Exponent=  2.4080211000D+01 Coefficients=  1.1190000000D-02
 P 1 1.00
     Exponent=  1.4077580000D+01 Coefficients=  1.0000000000D+00
 P 1 1.00
     Exponent=  8.2658460000D+00 Coefficients=  1.0000000000D+00
 P 1 1.00
     Exponent=  3.5948000000D+00 Coefficients=  1.0000000000D+00
 P 1 1.00
     Exponent=  1.7531110000D+00 Coefficients=  1.0000000000D+00
 P 1 1.00
     Exponent=  6.5776700000D-01 Coefficients=  1.0000000000D+00
 P 1 1.00
     Exponent=  2.8463900000D-01 Coefficients=  1.0000000000D+00
 P 1 1.00
     Exponent=  1.0054300000D-01 Coefficients=  1.0000000000D+00
 P 1 1.00
     Exponent=  3.0190000000D-02 Coefficients=  1.0000000000D+00
 D 6 1.00
     Exponent=  4.4814991000D+02 Coefficients=  2.6000000000D-05
     Exponent=  1.5446145000D+02 Coefficients=  2.2800000000D-04
     Exponent=  6.0925377000D+01 Coefficients=  9.0400000000D-04
     Exponent=  1.7032091000D+01 Coefficients=  2.5647000000D-02
     Exponent=  1.0018877000D+01 Coefficients= -1.0575100000D-01
     Exponent=  3.4091930000D+00 Coefficients=  4.4743200000D-01
 D 1 1.00
     Exponent=  1.6702130000D+00 Coefficients=  1.0000000000D+00
 D 1 1.00
     Exponent=  7.4109500000D-01 Coefficients=  1.0000000000D+00
 D 1 1.00
     Exponent=  2.6139300000D-01 Coefficients=  1.0000000000D+00
 D 1 1.00
     Exponent=  8.2811000000D-02 Coefficients=  1.0000000000D+00
 F 5 1.00
     Exponent=  8.7991327000D+01 Coefficients=  2.2600000000D-04
     Exponent=  2.8340195000D+01 Coefficients=  2.3230000000D-03
     Exponent=  1.2440994000D+01 Coefficients=  4.5850000000D-03
     Exponent=  3.9572960000D+00 Coefficients=  1.5696100000D-01
     Exponent=  1.8759440000D+00 Coefficients=  3.4497700000D-01
 F 1 1.00
     Exponent=  8.2758900000D-01 Coefficients=  1.0000000000D+00
 F 1 1.00
     Exponent=  3.3274800000D-01 Coefficients=  1.0000000000D+00
 F 1 1.00
     Exponent=  1.1468500000D-01 Coefficients=  1.0000000000D+00
 G 1 1.00
     Exponent=  3.5000000000D-01 Coefficients=  1.0000000000D+00
 ****
 Centers:       2      4      6      8     10     11     14     15
 Def2TZVP
 ****
 Centers:       3      5      7      9
 Def2TZVP
 ****
 Centers:      12     13
 Def2TZVP
 ****
 ======================================================================================================
                                       Pseudopotential Parameters
 ======================================================================================================
  Center     Atomic      Valence      Angular      Power
  Number     Number     Electrons     Momentum     of R      Exponent        Coefficient   SO-Coeffient
 ======================================================================================================
    1         91           31
                                      H and up 
                                                     2        1.0000000        0.00000000    0.00000000
                                      S - H
                                                     2       15.2691737      475.47573283    0.00000000
                                      P - H
                                                     2        9.9577370      207.66485962    0.00000000
                                      D - H
                                                     2        8.9431413      156.67411988    0.00000000
                                      F - H
                                                     2        7.0104666       67.98223685    0.00000000
                                      G - H
                                                     2       12.2010560      -57.63059989    0.00000000
    2          8
                                   No pseudopotential on this center.
    3          1
                                   No pseudopotential on this center.
    4          8
                                   No pseudopotential on this center.
    5          1
                                   No pseudopotential on this center.
    6          8
                                   No pseudopotential on this center.
    7          1
                                   No pseudopotential on this center.
    8          8
                                   No pseudopotential on this center.
    9          1
                                   No pseudopotential on this center.
   10          8
                                   No pseudopotential on this center.
   11          8
                                   No pseudopotential on this center.
   12          6
                                   No pseudopotential on this center.
   13          6
                                   No pseudopotential on this center.
   14          8
                                   No pseudopotential on this center.
   15          8
                                   No pseudopotential on this center.
 ======================================================================================================
 Ernie: Thresh=  0.10000D-02 Tol=  0.10000D-05 Strict=F.
 AO basis set in the form of general basis input (Overlap normalization):
      1 0
 S   3 1.00       0.000000000000
      0.1204737600D+05  0.2857094961D-01
      0.1811684100D+04  0.2270769386D+00
      0.3477010400D+03  0.8325326273D+00
 S   3 1.00       0.000000000000
      0.5750737600D+02  0.9569327984D-01
      0.3350260100D+02 -0.4399944619D+00
      0.1955445100D+02  0.1335352847D+01
 S   1 1.00       0.000000000000
      0.9867801000D+02  0.1000000000D+01
 S   1 1.00       0.000000000000
      0.9716421000D+01  0.1000000000D+01
 S   1 1.00       0.000000000000
      0.2692096000D+01  0.1000000000D+01
 S   1 1.00       0.000000000000
      0.1453847000D+01  0.1000000000D+01
 S   1 1.00       0.000000000000
      0.5743520000D+00  0.1000000000D+01
 S   1 1.00       0.000000000000
      0.2634680000D+00  0.1000000000D+01
 S   1 1.00       0.000000000000
      0.5655700000D-01  0.1000000000D+01
 S   1 1.00       0.000000000000
      0.2316900000D-01  0.1000000000D+01
 P   5 1.00       0.000000000000
      0.2903367600D+04  0.2594222647D-02
      0.6448635600D+03  0.1519473264D-01
      0.2202589600D+03  0.9272492945D-01
      0.8027640100D+02  0.1821144298D+00
      0.2408021100D+02  0.8294100404D+00
 P   1 1.00       0.000000000000
      0.1407758000D+02  0.1000000000D+01
 P   1 1.00       0.000000000000
      0.8265846000D+01  0.1000000000D+01
 P   1 1.00       0.000000000000
      0.3594800000D+01  0.1000000000D+01
 P   1 1.00       0.000000000000
      0.1753111000D+01  0.1000000000D+01
 P   1 1.00       0.000000000000
      0.6577670000D+00  0.1000000000D+01
 P   1 1.00       0.000000000000
      0.2846390000D+00  0.1000000000D+01
 P   1 1.00       0.000000000000
      0.1005430000D+00  0.1000000000D+01
 P   1 1.00       0.000000000000
      0.3019000000D-01  0.1000000000D+01
 D   6 1.00       0.000000000000
      0.4481499100D+03  0.6556927566D-04
      0.1544614500D+03  0.5749921096D-03
      0.6092537700D+02  0.2279793277D-02
      0.1703209100D+02  0.6467904664D-01
      0.1001887700D+02 -0.2666929411D+00
      0.3409193000D+01  0.1128376621D+01
 D   1 1.00       0.000000000000
      0.1670213000D+01  0.1000000000D+01
 D   1 1.00       0.000000000000
      0.7410950000D+00  0.1000000000D+01
 D   1 1.00       0.000000000000
      0.2613930000D+00  0.1000000000D+01
 D   1 1.00       0.000000000000
      0.8281100000D-01  0.1000000000D+01
 F   5 1.00       0.000000000000
      0.8799132700D+02  0.4766318191D-03
      0.2834019500D+02  0.4899184583D-02
      0.1244099400D+02  0.9669720755D-02
      0.3957296000D+01  0.3310292343D+00
      0.1875944000D+01  0.7275531640D+00
 F   1 1.00       0.000000000000
      0.8275890000D+00  0.1000000000D+01
 F   1 1.00       0.000000000000
      0.3327480000D+00  0.1000000000D+01
 F   1 1.00       0.000000000000
      0.1146850000D+00  0.1000000000D+01
 G   1 1.00       0.000000000000
      0.3500000000D+00  0.1000000000D+01
 ****
      2 0
 S   6 1.00       0.000000000000
      0.2703238263D+05  0.5722733521D-03
      0.4052387139D+04  0.4435323349D-02
      0.9223272271D+03  0.2302010771D-01
      0.2612407099D+03  0.9282249067D-01
      0.8535464135D+02  0.2937850001D+00
      0.3103503524D+02  0.6740160450D+00
 S   2 1.00       0.000000000000
      0.1226086073D+02  0.6383993703D+00
      0.4998707601D+01  0.3953458713D+00
 S   1 1.00       0.000000000000
      0.1170310816D+01  0.1000000000D+01
 S   1 1.00       0.000000000000
      0.4647474099D+00  0.1000000000D+01
 S   1 1.00       0.000000000000
      0.1850453636D+00  0.1000000000D+01
 P   4 1.00       0.000000000000
      0.6327495480D+02  0.1201833222D-01
      0.1462704938D+02  0.8300542179D-01
      0.4450122346D+01  0.3199174393D+00
      0.1527579965D+01  0.7071554292D+00
 P   1 1.00       0.000000000000
      0.5293511794D+00  0.1000000000D+01
 P   1 1.00       0.000000000000
      0.1747842127D+00  0.1000000000D+01
 D   1 1.00       0.000000000000
      0.2314000000D+01  0.1000000000D+01
 D   1 1.00       0.000000000000
      0.6450000000D+00  0.1000000000D+01
 F   1 1.00       0.000000000000
      0.1428000000D+01  0.1000000000D+01
 ****
      3 0
 S   3 1.00       0.000000000000
      0.3406134100D+02  0.2543930721D-01
      0.5123574600D+01  0.1900859489D+00
      0.1164662600D+01  0.8524411301D+00
 S   1 1.00       0.000000000000
      0.3272304100D+00  0.1000000000D+01
 S   1 1.00       0.000000000000
      0.1030724100D+00  0.1000000000D+01
 P   1 1.00       0.000000000000
      0.8000000000D+00  0.1000000000D+01
 ****
      4 0
 S   6 1.00       0.000000000000
      0.2703238263D+05  0.5722733521D-03
      0.4052387139D+04  0.4435323349D-02
      0.9223272271D+03  0.2302010771D-01
      0.2612407099D+03  0.9282249067D-01
      0.8535464135D+02  0.2937850001D+00
      0.3103503524D+02  0.6740160450D+00
 S   2 1.00       0.000000000000
      0.1226086073D+02  0.6383993703D+00
      0.4998707601D+01  0.3953458713D+00
 S   1 1.00       0.000000000000
      0.1170310816D+01  0.1000000000D+01
 S   1 1.00       0.000000000000
      0.4647474099D+00  0.1000000000D+01
 S   1 1.00       0.000000000000
      0.1850453636D+00  0.1000000000D+01
 P   4 1.00       0.000000000000
      0.6327495480D+02  0.1201833222D-01
      0.1462704938D+02  0.8300542179D-01
      0.4450122346D+01  0.3199174393D+00
      0.1527579965D+01  0.7071554292D+00
 P   1 1.00       0.000000000000
      0.5293511794D+00  0.1000000000D+01
 P   1 1.00       0.000000000000
      0.1747842127D+00  0.1000000000D+01
 D   1 1.00       0.000000000000
      0.2314000000D+01  0.1000000000D+01
 D   1 1.00       0.000000000000
      0.6450000000D+00  0.1000000000D+01
 F   1 1.00       0.000000000000
      0.1428000000D+01  0.1000000000D+01
 ****
      5 0
 S   3 1.00       0.000000000000
      0.3406134100D+02  0.2543930721D-01
      0.5123574600D+01  0.1900859489D+00
      0.1164662600D+01  0.8524411301D+00
 S   1 1.00       0.000000000000
      0.3272304100D+00  0.1000000000D+01
 S   1 1.00       0.000000000000
      0.1030724100D+00  0.1000000000D+01
 P   1 1.00       0.000000000000
      0.8000000000D+00  0.1000000000D+01
 ****
      6 0
 S   6 1.00       0.000000000000
      0.2703238263D+05  0.5722733521D-03
      0.4052387139D+04  0.4435323349D-02
      0.9223272271D+03  0.2302010771D-01
      0.2612407099D+03  0.9282249067D-01
      0.8535464135D+02  0.2937850001D+00
      0.3103503524D+02  0.6740160450D+00
 S   2 1.00       0.000000000000
      0.1226086073D+02  0.6383993703D+00
      0.4998707601D+01  0.3953458713D+00
 S   1 1.00       0.000000000000
      0.1170310816D+01  0.1000000000D+01
 S   1 1.00       0.000000000000
      0.4647474099D+00  0.1000000000D+01
 S   1 1.00       0.000000000000
      0.1850453636D+00  0.1000000000D+01
 P   4 1.00       0.000000000000
      0.6327495480D+02  0.1201833222D-01
      0.1462704938D+02  0.8300542179D-01
      0.4450122346D+01  0.3199174393D+00
      0.1527579965D+01  0.7071554292D+00
 P   1 1.00       0.000000000000
      0.5293511794D+00  0.1000000000D+01
 P   1 1.00       0.000000000000
      0.1747842127D+00  0.1000000000D+01
 D   1 1.00       0.000000000000
      0.2314000000D+01  0.1000000000D+01
 D   1 1.00       0.000000000000
      0.6450000000D+00  0.1000000000D+01
 F   1 1.00       0.000000000000
      0.1428000000D+01  0.1000000000D+01
 ****
      7 0
 S   3 1.00       0.000000000000
      0.3406134100D+02  0.2543930721D-01
      0.5123574600D+01  0.1900859489D+00
      0.1164662600D+01  0.8524411301D+00
 S   1 1.00       0.000000000000
      0.3272304100D+00  0.1000000000D+01
 S   1 1.00       0.000000000000
      0.1030724100D+00  0.1000000000D+01
 P   1 1.00       0.000000000000
      0.8000000000D+00  0.1000000000D+01
 ****
      8 0
 S   6 1.00       0.000000000000
      0.2703238263D+05  0.5722733521D-03
      0.4052387139D+04  0.4435323349D-02
      0.9223272271D+03  0.2302010771D-01
      0.2612407099D+03  0.9282249067D-01
      0.8535464135D+02  0.2937850001D+00
      0.3103503524D+02  0.6740160450D+00
 S   2 1.00       0.000000000000
      0.1226086073D+02  0.6383993703D+00
      0.4998707601D+01  0.3953458713D+00
 S   1 1.00       0.000000000000
      0.1170310816D+01  0.1000000000D+01
 S   1 1.00       0.000000000000
      0.4647474099D+00  0.1000000000D+01
 S   1 1.00       0.000000000000
      0.1850453636D+00  0.1000000000D+01
 P   4 1.00       0.000000000000
      0.6327495480D+02  0.1201833222D-01
      0.1462704938D+02  0.8300542179D-01
      0.4450122346D+01  0.3199174393D+00
      0.1527579965D+01  0.7071554292D+00
 P   1 1.00       0.000000000000
      0.5293511794D+00  0.1000000000D+01
 P   1 1.00       0.000000000000
      0.1747842127D+00  0.1000000000D+01
 D   1 1.00       0.000000000000
      0.2314000000D+01  0.1000000000D+01
 D   1 1.00       0.000000000000
      0.6450000000D+00  0.1000000000D+01
 F   1 1.00       0.000000000000
      0.1428000000D+01  0.1000000000D+01
 ****
      9 0
 S   3 1.00       0.000000000000
      0.3406134100D+02  0.2543930721D-01
      0.5123574600D+01  0.1900859489D+00
      0.1164662600D+01  0.8524411301D+00
 S   1 1.00       0.000000000000
      0.3272304100D+00  0.1000000000D+01
 S   1 1.00       0.000000000000
      0.1030724100D+00  0.1000000000D+01
 P   1 1.00       0.000000000000
      0.8000000000D+00  0.1000000000D+01
 ****
     10 0
 S   6 1.00       0.000000000000
      0.2703238263D+05  0.5722733521D-03
      0.4052387139D+04  0.4435323349D-02
      0.9223272271D+03  0.2302010771D-01
      0.2612407099D+03  0.9282249067D-01
      0.8535464135D+02  0.2937850001D+00
      0.3103503524D+02  0.6740160450D+00
 S   2 1.00       0.000000000000
      0.1226086073D+02  0.6383993703D+00
      0.4998707601D+01  0.3953458713D+00
 S   1 1.00       0.000000000000
      0.1170310816D+01  0.1000000000D+01
 S   1 1.00       0.000000000000
      0.4647474099D+00  0.1000000000D+01
 S   1 1.00       0.000000000000
      0.1850453636D+00  0.1000000000D+01
 P   4 1.00       0.000000000000
      0.6327495480D+02  0.1201833222D-01
      0.1462704938D+02  0.8300542179D-01
      0.4450122346D+01  0.3199174393D+00
      0.1527579965D+01  0.7071554292D+00
 P   1 1.00       0.000000000000
      0.5293511794D+00  0.1000000000D+01
 P   1 1.00       0.000000000000
      0.1747842127D+00  0.1000000000D+01
 D   1 1.00       0.000000000000
      0.2314000000D+01  0.1000000000D+01
 D   1 1.00       0.000000000000
      0.6450000000D+00  0.1000000000D+01
 F   1 1.00       0.000000000000
      0.1428000000D+01  0.1000000000D+01
 ****
     11 0
 S   6 1.00       0.000000000000
      0.2703238263D+05  0.5722733521D-03
      0.4052387139D+04  0.4435323349D-02
      0.9223272271D+03  0.2302010771D-01
      0.2612407099D+03  0.9282249067D-01
      0.8535464135D+02  0.2937850001D+00
      0.3103503524D+02  0.6740160450D+00
 S   2 1.00       0.000000000000
      0.1226086073D+02  0.6383993703D+00
      0.4998707601D+01  0.3953458713D+00
 S   1 1.00       0.000000000000
      0.1170310816D+01  0.1000000000D+01
 S   1 1.00       0.000000000000
      0.4647474099D+00  0.1000000000D+01
 S   1 1.00       0.000000000000
      0.1850453636D+00  0.1000000000D+01
 P   4 1.00       0.000000000000
      0.6327495480D+02  0.1201833222D-01
      0.1462704938D+02  0.8300542179D-01
      0.4450122346D+01  0.3199174393D+00
      0.1527579965D+01  0.7071554292D+00
 P   1 1.00       0.000000000000
      0.5293511794D+00  0.1000000000D+01
 P   1 1.00       0.000000000000
      0.1747842127D+00  0.1000000000D+01
 D   1 1.00       0.000000000000
      0.2314000000D+01  0.1000000000D+01
 D   1 1.00       0.000000000000
      0.6450000000D+00  0.1000000000D+01
 F   1 1.00       0.000000000000
      0.1428000000D+01  0.1000000000D+01
 ****
     12 0
 S   6 1.00       0.000000000000
      0.1357534968D+05  0.6064550360D-03
      0.2035233368D+04  0.4697908888D-02
      0.4632256236D+03  0.2433247765D-01
      0.1312001960D+03  0.9739996831D-01
      0.4285301589D+02  0.3019558425D+00
      0.1558418577D+02  0.6623360914D+00
 S   2 1.00       0.000000000000
      0.6206713851D+01  0.6559530854D+00
      0.2576489653D+01  0.3758563329D+00
 S   1 1.00       0.000000000000
      0.5769633942D+00  0.1000000000D+01
 S   1 1.00       0.000000000000
      0.2297283136D+00  0.1000000000D+01
 S   1 1.00       0.000000000000
      0.9516444003D-01  0.1000000000D+01
 P   4 1.00       0.000000000000
      0.3469723224D+02  0.1132722000D-01
      0.7958262283D+01  0.7616965920D-01
      0.2378082688D+01  0.3019225220D+00
      0.8143320818D+00  0.7278502735D+00
 P   1 1.00       0.000000000000
      0.2888754725D+00  0.1000000000D+01
 P   1 1.00       0.000000000000
      0.1005682367D+00  0.1000000000D+01
 D   1 1.00       0.000000000000
      0.1097000000D+01  0.1000000000D+01
 D   1 1.00       0.000000000000
      0.3180000000D+00  0.1000000000D+01
 F   1 1.00       0.000000000000
      0.7610000000D+00  0.1000000000D+01
 ****
     13 0
 S   6 1.00       0.000000000000
      0.1357534968D+05  0.6064550360D-03
      0.2035233368D+04  0.4697908888D-02
      0.4632256236D+03  0.2433247765D-01
      0.1312001960D+03  0.9739996831D-01
      0.4285301589D+02  0.3019558425D+00
      0.1558418577D+02  0.6623360914D+00
 S   2 1.00       0.000000000000
      0.6206713851D+01  0.6559530854D+00
      0.2576489653D+01  0.3758563329D+00
 S   1 1.00       0.000000000000
      0.5769633942D+00  0.1000000000D+01
 S   1 1.00       0.000000000000
      0.2297283136D+00  0.1000000000D+01
 S   1 1.00       0.000000000000
      0.9516444003D-01  0.1000000000D+01
 P   4 1.00       0.000000000000
      0.3469723224D+02  0.1132722000D-01
      0.7958262283D+01  0.7616965920D-01
      0.2378082688D+01  0.3019225220D+00
      0.8143320818D+00  0.7278502735D+00
 P   1 1.00       0.000000000000
      0.2888754725D+00  0.1000000000D+01
 P   1 1.00       0.000000000000
      0.1005682367D+00  0.1000000000D+01
 D   1 1.00       0.000000000000
      0.1097000000D+01  0.1000000000D+01
 D   1 1.00       0.000000000000
      0.3180000000D+00  0.1000000000D+01
 F   1 1.00       0.000000000000
      0.7610000000D+00  0.1000000000D+01
 ****
     14 0
 S   6 1.00       0.000000000000
      0.2703238263D+05  0.5722733521D-03
      0.4052387139D+04  0.4435323349D-02
      0.9223272271D+03  0.2302010771D-01
      0.2612407099D+03  0.9282249067D-01
      0.8535464135D+02  0.2937850001D+00
      0.3103503524D+02  0.6740160450D+00
 S   2 1.00       0.000000000000
      0.1226086073D+02  0.6383993703D+00
      0.4998707601D+01  0.3953458713D+00
 S   1 1.00       0.000000000000
      0.1170310816D+01  0.1000000000D+01
 S   1 1.00       0.000000000000
      0.4647474099D+00  0.1000000000D+01
 S   1 1.00       0.000000000000
      0.1850453636D+00  0.1000000000D+01
 P   4 1.00       0.000000000000
      0.6327495480D+02  0.1201833222D-01
      0.1462704938D+02  0.8300542179D-01
      0.4450122346D+01  0.3199174393D+00
      0.1527579965D+01  0.7071554292D+00
 P   1 1.00       0.000000000000
      0.5293511794D+00  0.1000000000D+01
 P   1 1.00       0.000000000000
      0.1747842127D+00  0.1000000000D+01
 D   1 1.00       0.000000000000
      0.2314000000D+01  0.1000000000D+01
 D   1 1.00       0.000000000000
      0.6450000000D+00  0.1000000000D+01
 F   1 1.00       0.000000000000
      0.1428000000D+01  0.1000000000D+01
 ****
     15 0
 S   6 1.00       0.000000000000
      0.2703238263D+05  0.5722733521D-03
      0.4052387139D+04  0.4435323349D-02
      0.9223272271D+03  0.2302010771D-01
      0.2612407099D+03  0.9282249067D-01
      0.8535464135D+02  0.2937850001D+00
      0.3103503524D+02  0.6740160450D+00
 S   2 1.00       0.000000000000
      0.1226086073D+02  0.6383993703D+00
      0.4998707601D+01  0.3953458713D+00
 S   1 1.00       0.000000000000
      0.1170310816D+01  0.1000000000D+01
 S   1 1.00       0.000000000000
      0.4647474099D+00  0.1000000000D+01
 S   1 1.00       0.000000000000
      0.1850453636D+00  0.1000000000D+01
 P   4 1.00       0.000000000000
      0.6327495480D+02  0.1201833222D-01
      0.1462704938D+02  0.8300542179D-01
      0.4450122346D+01  0.3199174393D+00
      0.1527579965D+01  0.7071554292D+00
 P   1 1.00       0.000000000000
      0.5293511794D+00  0.1000000000D+01
 P   1 1.00       0.000000000000
      0.1747842127D+00  0.1000000000D+01
 D   1 1.00       0.000000000000
      0.2314000000D+01  0.1000000000D+01
 D   1 1.00       0.000000000000
      0.6450000000D+00  0.1000000000D+01
 F   1 1.00       0.000000000000
      0.1428000000D+01  0.1000000000D+01
 ****

 AO basis set (Overlap normalization):
 Atom Pa1      Shell     1 S   3     bf    1 -     1          1.224570905190         -0.001802825669          0.006946987607
      0.1204737600D+05  0.2857094961D-01
      0.1811684100D+04  0.2270769386D+00
      0.3477010400D+03  0.8325326273D+00
 Atom Pa1      Shell     2 S   3     bf    2 -     2          1.224570905190         -0.001802825669          0.006946987607
      0.5750737600D+02  0.9569327984D-01
      0.3350260100D+02 -0.4399944619D+00
      0.1955445100D+02  0.1335352847D+01
 Atom Pa1      Shell     3 S   1     bf    3 -     3          1.224570905190         -0.001802825669          0.006946987607
      0.9867801000D+02  0.1000000000D+01
 Atom Pa1      Shell     4 S   1     bf    4 -     4          1.224570905190         -0.001802825669          0.006946987607
      0.9716421000D+01  0.1000000000D+01
 Atom Pa1      Shell     5 S   1     bf    5 -     5          1.224570905190         -0.001802825669          0.006946987607
      0.2692096000D+01  0.1000000000D+01
 Atom Pa1      Shell     6 S   1     bf    6 -     6          1.224570905190         -0.001802825669          0.006946987607
      0.1453847000D+01  0.1000000000D+01
 Atom Pa1      Shell     7 S   1     bf    7 -     7          1.224570905190         -0.001802825669          0.006946987607
      0.5743520000D+00  0.1000000000D+01
 Atom Pa1      Shell     8 S   1     bf    8 -     8          1.224570905190         -0.001802825669          0.006946987607
      0.2634680000D+00  0.1000000000D+01
 Atom Pa1      Shell     9 S   1     bf    9 -     9          1.224570905190         -0.001802825669          0.006946987607
      0.5655700000D-01  0.1000000000D+01
 Atom Pa1      Shell    10 S   1     bf   10 -    10          1.224570905190         -0.001802825669          0.006946987607
      0.2316900000D-01  0.1000000000D+01
 Atom Pa1      Shell    11 P   5     bf   11 -    13          1.224570905190         -0.001802825669          0.006946987607
      0.2903367600D+04  0.2594222647D-02
      0.6448635600D+03  0.1519473264D-01
      0.2202589600D+03  0.9272492945D-01
      0.8027640100D+02  0.1821144298D+00
      0.2408021100D+02  0.8294100404D+00
 Atom Pa1      Shell    12 P   1     bf   14 -    16          1.224570905190         -0.001802825669          0.006946987607
      0.1407758000D+02  0.1000000000D+01
 Atom Pa1      Shell    13 P   1     bf   17 -    19          1.224570905190         -0.001802825669          0.006946987607
      0.8265846000D+01  0.1000000000D+01
 Atom Pa1      Shell    14 P   1     bf   20 -    22          1.224570905190         -0.001802825669          0.006946987607
      0.3594800000D+01  0.1000000000D+01
 Atom Pa1      Shell    15 P   1     bf   23 -    25          1.224570905190         -0.001802825669          0.006946987607
      0.1753111000D+01  0.1000000000D+01
 Atom Pa1      Shell    16 P   1     bf   26 -    28          1.224570905190         -0.001802825669          0.006946987607
      0.6577670000D+00  0.1000000000D+01
 Atom Pa1      Shell    17 P   1     bf   29 -    31          1.224570905190         -0.001802825669          0.006946987607
      0.2846390000D+00  0.1000000000D+01
 Atom Pa1      Shell    18 P   1     bf   32 -    34          1.224570905190         -0.001802825669          0.006946987607
      0.1005430000D+00  0.1000000000D+01
 Atom Pa1      Shell    19 P   1     bf   35 -    37          1.224570905190         -0.001802825669          0.006946987607
      0.3019000000D-01  0.1000000000D+01
 Atom Pa1      Shell    20 D   6     bf   38 -    42          1.224570905190         -0.001802825669          0.006946987607
      0.4481499100D+03  0.6556927566D-04
      0.1544614500D+03  0.5749921096D-03
      0.6092537700D+02  0.2279793277D-02
      0.1703209100D+02  0.6467904664D-01
      0.1001887700D+02 -0.2666929411D+00
      0.3409193000D+01  0.1128376621D+01
 Atom Pa1      Shell    21 D   1     bf   43 -    47          1.224570905190         -0.001802825669          0.006946987607
      0.1670213000D+01  0.1000000000D+01
 Atom Pa1      Shell    22 D   1     bf   48 -    52          1.224570905190         -0.001802825669          0.006946987607
      0.7410950000D+00  0.1000000000D+01
 Atom Pa1      Shell    23 D   1     bf   53 -    57          1.224570905190         -0.001802825669          0.006946987607
      0.2613930000D+00  0.1000000000D+01
 Atom Pa1      Shell    24 D   1     bf   58 -    62          1.224570905190         -0.001802825669          0.006946987607
      0.8281100000D-01  0.1000000000D+01
 Atom Pa1      Shell    25 F   5     bf   63 -    69          1.224570905190         -0.001802825669          0.006946987607
      0.8799132700D+02  0.4766318191D-03
      0.2834019500D+02  0.4899184583D-02
      0.1244099400D+02  0.9669720755D-02
      0.3957296000D+01  0.3310292343D+00
      0.1875944000D+01  0.7275531640D+00
 Atom Pa1      Shell    26 F   1     bf   70 -    76          1.224570905190         -0.001802825669          0.006946987607
      0.8275890000D+00  0.1000000000D+01
 Atom Pa1      Shell    27 F   1     bf   77 -    83          1.224570905190         -0.001802825669          0.006946987607
      0.3327480000D+00  0.1000000000D+01
 Atom Pa1      Shell    28 F   1     bf   84 -    90          1.224570905190         -0.001802825669          0.006946987607
      0.1146850000D+00  0.1000000000D+01
 Atom Pa1      Shell    29 G   1     bf   91 -    99          1.224570905190         -0.001802825669          0.006946987607
      0.3500000000D+00  0.1000000000D+01
 Atom O2       Shell    30 S   6     bf  100 -   100          0.995600838496         -0.169686429535         -4.001041296549
      0.2703238263D+05  0.5722733521D-03
      0.4052387139D+04  0.4435323349D-02
      0.9223272271D+03  0.2302010771D-01
      0.2612407099D+03  0.9282249067D-01
      0.8535464135D+02  0.2937850001D+00
      0.3103503524D+02  0.6740160450D+00
 Atom O2       Shell    31 S   2     bf  101 -   101          0.995600838496         -0.169686429535         -4.001041296549
      0.1226086073D+02  0.6383993703D+00
      0.4998707601D+01  0.3953458713D+00
 Atom O2       Shell    32 S   1     bf  102 -   102          0.995600838496         -0.169686429535         -4.001041296549
      0.1170310816D+01  0.1000000000D+01
 Atom O2       Shell    33 S   1     bf  103 -   103          0.995600838496         -0.169686429535         -4.001041296549
      0.4647474099D+00  0.1000000000D+01
 Atom O2       Shell    34 S   1     bf  104 -   104          0.995600838496         -0.169686429535         -4.001041296549
      0.1850453636D+00  0.1000000000D+01
 Atom O2       Shell    35 P   4     bf  105 -   107          0.995600838496         -0.169686429535         -4.001041296549
      0.6327495480D+02  0.1201833222D-01
      0.1462704938D+02  0.8300542179D-01
      0.4450122346D+01  0.3199174393D+00
      0.1527579965D+01  0.7071554292D+00
 Atom O2       Shell    36 P   1     bf  108 -   110          0.995600838496         -0.169686429535         -4.001041296549
      0.5293511794D+00  0.1000000000D+01
 Atom O2       Shell    37 P   1     bf  111 -   113          0.995600838496         -0.169686429535         -4.001041296549
      0.1747842127D+00  0.1000000000D+01
 Atom O2       Shell    38 D   1     bf  114 -   118          0.995600838496         -0.169686429535         -4.001041296549
      0.2314000000D+01  0.1000000000D+01
 Atom O2       Shell    39 D   1     bf  119 -   123          0.995600838496         -0.169686429535         -4.001041296549
      0.6450000000D+00  0.1000000000D+01
 Atom O2       Shell    40 F   1     bf  124 -   130          0.995600838496         -0.169686429535         -4.001041296549
      0.1428000000D+01  0.1000000000D+01
 Atom H3       Shell    41 S   3     bf  131 -   131          1.833489615609          0.638145101459         -5.403977709874
      0.3406134100D+02  0.2543930721D-01
      0.5123574600D+01  0.1900859489D+00
      0.1164662600D+01  0.8524411301D+00
 Atom H3       Shell    42 S   1     bf  132 -   132          1.833489615609          0.638145101459         -5.403977709874
      0.3272304100D+00  0.1000000000D+01
 Atom H3       Shell    43 S   1     bf  133 -   133          1.833489615609          0.638145101459         -5.403977709874
      0.1030724100D+00  0.1000000000D+01
 Atom H3       Shell    44 P   1     bf  134 -   136          1.833489615609          0.638145101459         -5.403977709874
      0.8000000000D+00  0.1000000000D+01
 Atom O4       Shell    45 S   6     bf  137 -   137          3.805098086476         -3.117741834141          0.093487404056
      0.2703238263D+05  0.5722733521D-03
      0.4052387139D+04  0.4435323349D-02
      0.9223272271D+03  0.2302010771D-01
      0.2612407099D+03  0.9282249067D-01
      0.8535464135D+02  0.2937850001D+00
      0.3103503524D+02  0.6740160450D+00
 Atom O4       Shell    46 S   2     bf  138 -   138          3.805098086476         -3.117741834141          0.093487404056
      0.1226086073D+02  0.6383993703D+00
      0.4998707601D+01  0.3953458713D+00
 Atom O4       Shell    47 S   1     bf  139 -   139          3.805098086476         -3.117741834141          0.093487404056
      0.1170310816D+01  0.1000000000D+01
 Atom O4       Shell    48 S   1     bf  140 -   140          3.805098086476         -3.117741834141          0.093487404056
      0.4647474099D+00  0.1000000000D+01
 Atom O4       Shell    49 S   1     bf  141 -   141          3.805098086476         -3.117741834141          0.093487404056
      0.1850453636D+00  0.1000000000D+01
 Atom O4       Shell    50 P   4     bf  142 -   144          3.805098086476         -3.117741834141          0.093487404056
      0.6327495480D+02  0.1201833222D-01
      0.1462704938D+02  0.8300542179D-01
      0.4450122346D+01  0.3199174393D+00
      0.1527579965D+01  0.7071554292D+00
 Atom O4       Shell    51 P   1     bf  145 -   147          3.805098086476         -3.117741834141          0.093487404056
      0.5293511794D+00  0.1000000000D+01
 Atom O4       Shell    52 P   1     bf  148 -   150          3.805098086476         -3.117741834141          0.093487404056
      0.1747842127D+00  0.1000000000D+01
 Atom O4       Shell    53 D   1     bf  151 -   155          3.805098086476         -3.117741834141          0.093487404056
      0.2314000000D+01  0.1000000000D+01
 Atom O4       Shell    54 D   1     bf  156 -   160          3.805098086476         -3.117741834141          0.093487404056
      0.6450000000D+00  0.1000000000D+01
 Atom O4       Shell    55 F   1     bf  161 -   167          3.805098086476         -3.117741834141          0.093487404056
      0.1428000000D+01  0.1000000000D+01
 Atom H5       Shell    56 S   3     bf  168 -   168          4.687168464108         -4.099774630990         -1.161444213138
      0.3406134100D+02  0.2543930721D-01
      0.5123574600D+01  0.1900859489D+00
      0.1164662600D+01  0.8524411301D+00
 Atom H5       Shell    57 S   1     bf  169 -   169          4.687168464108         -4.099774630990         -1.161444213138
      0.3272304100D+00  0.1000000000D+01
 Atom H5       Shell    58 S   1     bf  170 -   170          4.687168464108         -4.099774630990         -1.161444213138
      0.1030724100D+00  0.1000000000D+01
 Atom H5       Shell    59 P   1     bf  171 -   173          4.687168464108         -4.099774630990         -1.161444213138
      0.8000000000D+00  0.1000000000D+01
 Atom O6       Shell    60 S   6     bf  174 -   174          3.727821724862          3.152047349673         -0.280660211715
      0.2703238263D+05  0.5722733521D-03
      0.4052387139D+04  0.4435323349D-02
      0.9223272271D+03  0.2302010771D-01
      0.2612407099D+03  0.9282249067D-01
      0.8535464135D+02  0.2937850001D+00
      0.3103503524D+02  0.6740160450D+00
 Atom O6       Shell    61 S   2     bf  175 -   175          3.727821724862          3.152047349673         -0.280660211715
      0.1226086073D+02  0.6383993703D+00
      0.4998707601D+01  0.3953458713D+00
 Atom O6       Shell    62 S   1     bf  176 -   176          3.727821724862          3.152047349673         -0.280660211715
      0.1170310816D+01  0.1000000000D+01
 Atom O6       Shell    63 S   1     bf  177 -   177          3.727821724862          3.152047349673         -0.280660211715
      0.4647474099D+00  0.1000000000D+01
 Atom O6       Shell    64 S   1     bf  178 -   178          3.727821724862          3.152047349673         -0.280660211715
      0.1850453636D+00  0.1000000000D+01
 Atom O6       Shell    65 P   4     bf  179 -   181          3.727821724862          3.152047349673         -0.280660211715
      0.6327495480D+02  0.1201833222D-01
      0.1462704938D+02  0.8300542179D-01
      0.4450122346D+01  0.3199174393D+00
      0.1527579965D+01  0.7071554292D+00
 Atom O6       Shell    66 P   1     bf  182 -   184          3.727821724862          3.152047349673         -0.280660211715
      0.5293511794D+00  0.1000000000D+01
 Atom O6       Shell    67 P   1     bf  185 -   187          3.727821724862          3.152047349673         -0.280660211715
      0.1747842127D+00  0.1000000000D+01
 Atom O6       Shell    68 D   1     bf  188 -   192          3.727821724862          3.152047349673         -0.280660211715
      0.2314000000D+01  0.1000000000D+01
 Atom O6       Shell    69 D   1     bf  193 -   197          3.727821724862          3.152047349673         -0.280660211715
      0.6450000000D+00  0.1000000000D+01
 Atom O6       Shell    70 F   1     bf  198 -   204          3.727821724862          3.152047349673         -0.280660211715
      0.1428000000D+01  0.1000000000D+01
 Atom H7       Shell    71 S   3     bf  205 -   205          4.752691810998          4.202076770203          0.796404654457
      0.3406134100D+02  0.2543930721D-01
      0.5123574600D+01  0.1900859489D+00
      0.1164662600D+01  0.8524411301D+00
 Atom H7       Shell    72 S   1     bf  206 -   206          4.752691810998          4.202076770203          0.796404654457
      0.3272304100D+00  0.1000000000D+01
 Atom H7       Shell    73 S   1     bf  207 -   207          4.752691810998          4.202076770203          0.796404654457
      0.1030724100D+00  0.1000000000D+01
 Atom H7       Shell    74 P   1     bf  208 -   210          4.752691810998          4.202076770203          0.796404654457
      0.8000000000D+00  0.1000000000D+01
 Atom O8       Shell    75 S   6     bf  211 -   211          1.215689292375          0.142269986817          4.020365454806
      0.2703238263D+05  0.5722733521D-03
      0.4052387139D+04  0.4435323349D-02
      0.9223272271D+03  0.2302010771D-01
      0.2612407099D+03  0.9282249067D-01
      0.8535464135D+02  0.2937850001D+00
      0.3103503524D+02  0.6740160450D+00
 Atom O8       Shell    76 S   2     bf  212 -   212          1.215689292375          0.142269986817          4.020365454806
      0.1226086073D+02  0.6383993703D+00
      0.4998707601D+01  0.3953458713D+00
 Atom O8       Shell    77 S   1     bf  213 -   213          1.215689292375          0.142269986817          4.020365454806
      0.1170310816D+01  0.1000000000D+01
 Atom O8       Shell    78 S   1     bf  214 -   214          1.215689292375          0.142269986817          4.020365454806
      0.4647474099D+00  0.1000000000D+01
 Atom O8       Shell    79 S   1     bf  215 -   215          1.215689292375          0.142269986817          4.020365454806
      0.1850453636D+00  0.1000000000D+01
 Atom O8       Shell    80 P   4     bf  216 -   218          1.215689292375          0.142269986817          4.020365454806
      0.6327495480D+02  0.1201833222D-01
      0.1462704938D+02  0.8300542179D-01
      0.4450122346D+01  0.3199174393D+00
      0.1527579965D+01  0.7071554292D+00
 Atom O8       Shell    81 P   1     bf  219 -   221          1.215689292375          0.142269986817          4.020365454806
      0.5293511794D+00  0.1000000000D+01
 Atom O8       Shell    82 P   1     bf  222 -   224          1.215689292375          0.142269986817          4.020365454806
      0.1747842127D+00  0.1000000000D+01
 Atom O8       Shell    83 D   1     bf  225 -   229          1.215689292375          0.142269986817          4.020365454806
      0.2314000000D+01  0.1000000000D+01
 Atom O8       Shell    84 D   1     bf  230 -   234          1.215689292375          0.142269986817          4.020365454806
      0.6450000000D+00  0.1000000000D+01
 Atom O8       Shell    85 F   1     bf  235 -   241          1.215689292375          0.142269986817          4.020365454806
      0.1428000000D+01  0.1000000000D+01
 Atom H9       Shell    86 S   3     bf  242 -   242          2.237546856558         -0.548593365196          5.362583746971
      0.3406134100D+02  0.2543930721D-01
      0.5123574600D+01  0.1900859489D+00
      0.1164662600D+01  0.8524411301D+00
 Atom H9       Shell    87 S   1     bf  243 -   243          2.237546856558         -0.548593365196          5.362583746971
      0.3272304100D+00  0.1000000000D+01
 Atom H9       Shell    88 S   1     bf  244 -   244          2.237546856558         -0.548593365196          5.362583746971
      0.1030724100D+00  0.1000000000D+01
 Atom H9       Shell    89 P   1     bf  245 -   247          2.237546856558         -0.548593365196          5.362583746971
      0.8000000000D+00  0.1000000000D+01
 Atom O10      Shell    90 S   6     bf  248 -   248         -2.460148394144         -2.452200868889          0.094847262338
      0.2703238263D+05  0.5722733521D-03
      0.4052387139D+04  0.4435323349D-02
      0.9223272271D+03  0.2302010771D-01
      0.2612407099D+03  0.9282249067D-01
      0.8535464135D+02  0.2937850001D+00
      0.3103503524D+02  0.6740160450D+00
 Atom O10      Shell    91 S   2     bf  249 -   249         -2.460148394144         -2.452200868889          0.094847262338
      0.1226086073D+02  0.6383993703D+00
      0.4998707601D+01  0.3953458713D+00
 Atom O10      Shell    92 S   1     bf  250 -   250         -2.460148394144         -2.452200868889          0.094847262338
      0.1170310816D+01  0.1000000000D+01
 Atom O10      Shell    93 S   1     bf  251 -   251         -2.460148394144         -2.452200868889          0.094847262338
      0.4647474099D+00  0.1000000000D+01
 Atom O10      Shell    94 S   1     bf  252 -   252         -2.460148394144         -2.452200868889          0.094847262338
      0.1850453636D+00  0.1000000000D+01
 Atom O10      Shell    95 P   4     bf  253 -   255         -2.460148394144         -2.452200868889          0.094847262338
      0.6327495480D+02  0.1201833222D-01
      0.1462704938D+02  0.8300542179D-01
      0.4450122346D+01  0.3199174393D+00
      0.1527579965D+01  0.7071554292D+00
 Atom O10      Shell    96 P   1     bf  256 -   258         -2.460148394144         -2.452200868889          0.094847262338
      0.5293511794D+00  0.1000000000D+01
 Atom O10      Shell    97 P   1     bf  259 -   261         -2.460148394144         -2.452200868889          0.094847262338
      0.1747842127D+00  0.1000000000D+01
 Atom O10      Shell    98 D   1     bf  262 -   266         -2.460148394144         -2.452200868889          0.094847262338
      0.2314000000D+01  0.1000000000D+01
 Atom O10      Shell    99 D   1     bf  267 -   271         -2.460148394144         -2.452200868889          0.094847262338
      0.6450000000D+00  0.1000000000D+01
 Atom O10      Shell   100 F   1     bf  272 -   278         -2.460148394144         -2.452200868889          0.094847262338
      0.1428000000D+01  0.1000000000D+01
 Atom O11      Shell   101 S   6     bf  279 -   279         -2.462064370381          2.451357785555          0.022751776534
      0.2703238263D+05  0.5722733521D-03
      0.4052387139D+04  0.4435323349D-02
      0.9223272271D+03  0.2302010771D-01
      0.2612407099D+03  0.9282249067D-01
      0.8535464135D+02  0.2937850001D+00
      0.3103503524D+02  0.6740160450D+00
 Atom O11      Shell   102 S   2     bf  280 -   280         -2.462064370381          2.451357785555          0.022751776534
      0.1226086073D+02  0.6383993703D+00
      0.4998707601D+01  0.3953458713D+00
 Atom O11      Shell   103 S   1     bf  281 -   281         -2.462064370381          2.451357785555          0.022751776534
      0.1170310816D+01  0.1000000000D+01
 Atom O11      Shell   104 S   1     bf  282 -   282         -2.462064370381          2.451357785555          0.022751776534
      0.4647474099D+00  0.1000000000D+01
 Atom O11      Shell   105 S   1     bf  283 -   283         -2.462064370381          2.451357785555          0.022751776534
      0.1850453636D+00  0.1000000000D+01
 Atom O11      Shell   106 P   4     bf  284 -   286         -2.462064370381          2.451357785555          0.022751776534
      0.6327495480D+02  0.1201833222D-01
      0.1462704938D+02  0.8300542179D-01
      0.4450122346D+01  0.3199174393D+00
      0.1527579965D+01  0.7071554292D+00
 Atom O11      Shell   107 P   1     bf  287 -   289         -2.462064370381          2.451357785555          0.022751776534
      0.5293511794D+00  0.1000000000D+01
 Atom O11      Shell   108 P   1     bf  290 -   292         -2.462064370381          2.451357785555          0.022751776534
      0.1747842127D+00  0.1000000000D+01
 Atom O11      Shell   109 D   1     bf  293 -   297         -2.462064370381          2.451357785555          0.022751776534
      0.2314000000D+01  0.1000000000D+01
 Atom O11      Shell   110 D   1     bf  298 -   302         -2.462064370381          2.451357785555          0.022751776534
      0.6450000000D+00  0.1000000000D+01
 Atom O11      Shell   111 F   1     bf  303 -   309         -2.462064370381          2.451357785555          0.022751776534
      0.1428000000D+01  0.1000000000D+01
 Atom C12      Shell   112 S   6     bf  310 -   310         -4.707676703286         -1.484597096535          0.039160903318
      0.1357534968D+05  0.6064550360D-03
      0.2035233368D+04  0.4697908888D-02
      0.4632256236D+03  0.2433247765D-01
      0.1312001960D+03  0.9739996831D-01
      0.4285301589D+02  0.3019558425D+00
      0.1558418577D+02  0.6623360914D+00
 Atom C12      Shell   113 S   2     bf  311 -   311         -4.707676703286         -1.484597096535          0.039160903318
      0.6206713851D+01  0.6559530854D+00
      0.2576489653D+01  0.3758563329D+00
 Atom C12      Shell   114 S   1     bf  312 -   312         -4.707676703286         -1.484597096535          0.039160903318
      0.5769633942D+00  0.1000000000D+01
 Atom C12      Shell   115 S   1     bf  313 -   313         -4.707676703286         -1.484597096535          0.039160903318
      0.2297283136D+00  0.1000000000D+01
 Atom C12      Shell   116 S   1     bf  314 -   314         -4.707676703286         -1.484597096535          0.039160903318
      0.9516444003D-01  0.1000000000D+01
 Atom C12      Shell   117 P   4     bf  315 -   317         -4.707676703286         -1.484597096535          0.039160903318
      0.3469723224D+02  0.1132722000D-01
      0.7958262283D+01  0.7616965920D-01
      0.2378082688D+01  0.3019225220D+00
      0.8143320818D+00  0.7278502735D+00
 Atom C12      Shell   118 P   1     bf  318 -   320         -4.707676703286         -1.484597096535          0.039160903318
      0.2888754725D+00  0.1000000000D+01
 Atom C12      Shell   119 P   1     bf  321 -   323         -4.707676703286         -1.484597096535          0.039160903318
      0.1005682367D+00  0.1000000000D+01
 Atom C12      Shell   120 D   1     bf  324 -   328         -4.707676703286         -1.484597096535          0.039160903318
      0.1097000000D+01  0.1000000000D+01
 Atom C12      Shell   121 D   1     bf  329 -   333         -4.707676703286         -1.484597096535          0.039160903318
      0.3180000000D+00  0.1000000000D+01
 Atom C12      Shell   122 F   1     bf  334 -   340         -4.707676703286         -1.484597096535          0.039160903318
      0.7610000000D+00  0.1000000000D+01
 Atom C13      Shell   123 S   6     bf  341 -   341         -4.708776400867          1.480531287439          0.009536981669
      0.1357534968D+05  0.6064550360D-03
      0.2035233368D+04  0.4697908888D-02
      0.4632256236D+03  0.2433247765D-01
      0.1312001960D+03  0.9739996831D-01
      0.4285301589D+02  0.3019558425D+00
      0.1558418577D+02  0.6623360914D+00
 Atom C13      Shell   124 S   2     bf  342 -   342         -4.708776400867          1.480531287439          0.009536981669
      0.6206713851D+01  0.6559530854D+00
      0.2576489653D+01  0.3758563329D+00
 Atom C13      Shell   125 S   1     bf  343 -   343         -4.708776400867          1.480531287439          0.009536981669
      0.5769633942D+00  0.1000000000D+01
 Atom C13      Shell   126 S   1     bf  344 -   344         -4.708776400867          1.480531287439          0.009536981669
      0.2297283136D+00  0.1000000000D+01
 Atom C13      Shell   127 S   1     bf  345 -   345         -4.708776400867          1.480531287439          0.009536981669
      0.9516444003D-01  0.1000000000D+01
 Atom C13      Shell   128 P   4     bf  346 -   348         -4.708776400867          1.480531287439          0.009536981669
      0.3469723224D+02  0.1132722000D-01
      0.7958262283D+01  0.7616965920D-01
      0.2378082688D+01  0.3019225220D+00
      0.8143320818D+00  0.7278502735D+00
 Atom C13      Shell   129 P   1     bf  349 -   351         -4.708776400867          1.480531287439          0.009536981669
      0.2888754725D+00  0.1000000000D+01
 Atom C13      Shell   130 P   1     bf  352 -   354         -4.708776400867          1.480531287439          0.009536981669
      0.1005682367D+00  0.1000000000D+01
 Atom C13      Shell   131 D   1     bf  355 -   359         -4.708776400867          1.480531287439          0.009536981669
      0.1097000000D+01  0.1000000000D+01
 Atom C13      Shell   132 D   1     bf  360 -   364         -4.708776400867          1.480531287439          0.009536981669
      0.3180000000D+00  0.1000000000D+01
 Atom C13      Shell   133 F   1     bf  365 -   371         -4.708776400867          1.480531287439          0.009536981669
      0.7610000000D+00  0.1000000000D+01
 Atom O14      Shell   134 S   6     bf  372 -   372         -6.687724595034         -2.666667550508          0.007693836211
      0.2703238263D+05  0.5722733521D-03
      0.4052387139D+04  0.4435323349D-02
      0.9223272271D+03  0.2302010771D-01
      0.2612407099D+03  0.9282249067D-01
      0.8535464135D+02  0.2937850001D+00
      0.3103503524D+02  0.6740160450D+00
 Atom O14      Shell   135 S   2     bf  373 -   373         -6.687724595034         -2.666667550508          0.007693836211
      0.1226086073D+02  0.6383993703D+00
      0.4998707601D+01  0.3953458713D+00
 Atom O14      Shell   136 S   1     bf  374 -   374         -6.687724595034         -2.666667550508          0.007693836211
      0.1170310816D+01  0.1000000000D+01
 Atom O14      Shell   137 S   1     bf  375 -   375         -6.687724595034         -2.666667550508          0.007693836211
      0.4647474099D+00  0.1000000000D+01
 Atom O14      Shell   138 S   1     bf  376 -   376         -6.687724595034         -2.666667550508          0.007693836211
      0.1850453636D+00  0.1000000000D+01
 Atom O14      Shell   139 P   4     bf  377 -   379         -6.687724595034         -2.666667550508          0.007693836211
      0.6327495480D+02  0.1201833222D-01
      0.1462704938D+02  0.8300542179D-01
      0.4450122346D+01  0.3199174393D+00
      0.1527579965D+01  0.7071554292D+00
 Atom O14      Shell   140 P   1     bf  380 -   382         -6.687724595034         -2.666667550508          0.007693836211
      0.5293511794D+00  0.1000000000D+01
 Atom O14      Shell   141 P   1     bf  383 -   385         -6.687724595034         -2.666667550508          0.007693836211
      0.1747842127D+00  0.1000000000D+01
 Atom O14      Shell   142 D   1     bf  386 -   390         -6.687724595034         -2.666667550508          0.007693836211
      0.2314000000D+01  0.1000000000D+01
 Atom O14      Shell   143 D   1     bf  391 -   395         -6.687724595034         -2.666667550508          0.007693836211
      0.6450000000D+00  0.1000000000D+01
 Atom O14      Shell   144 F   1     bf  396 -   402         -6.687724595034         -2.666667550508          0.007693836211
      0.1428000000D+01  0.1000000000D+01
 Atom O15      Shell   145 S   6     bf  403 -   403         -6.690288894483          2.660196325405         -0.022185433255
      0.2703238263D+05  0.5722733521D-03
      0.4052387139D+04  0.4435323349D-02
      0.9223272271D+03  0.2302010771D-01
      0.2612407099D+03  0.9282249067D-01
      0.8535464135D+02  0.2937850001D+00
      0.3103503524D+02  0.6740160450D+00
 Atom O15      Shell   146 S   2     bf  404 -   404         -6.690288894483          2.660196325405         -0.022185433255
      0.1226086073D+02  0.6383993703D+00
      0.4998707601D+01  0.3953458713D+00
 Atom O15      Shell   147 S   1     bf  405 -   405         -6.690288894483          2.660196325405         -0.022185433255
      0.1170310816D+01  0.1000000000D+01
 Atom O15      Shell   148 S   1     bf  406 -   406         -6.690288894483          2.660196325405         -0.022185433255
      0.4647474099D+00  0.1000000000D+01
 Atom O15      Shell   149 S   1     bf  407 -   407         -6.690288894483          2.660196325405         -0.022185433255
      0.1850453636D+00  0.1000000000D+01
 Atom O15      Shell   150 P   4     bf  408 -   410         -6.690288894483          2.660196325405         -0.022185433255
      0.6327495480D+02  0.1201833222D-01
      0.1462704938D+02  0.8300542179D-01
      0.4450122346D+01  0.3199174393D+00
      0.1527579965D+01  0.7071554292D+00
 Atom O15      Shell   151 P   1     bf  411 -   413         -6.690288894483          2.660196325405         -0.022185433255
      0.5293511794D+00  0.1000000000D+01
 Atom O15      Shell   152 P   1     bf  414 -   416         -6.690288894483          2.660196325405         -0.022185433255
      0.1747842127D+00  0.1000000000D+01
 Atom O15      Shell   153 D   1     bf  417 -   421         -6.690288894483          2.660196325405         -0.022185433255
      0.2314000000D+01  0.1000000000D+01
 Atom O15      Shell   154 D   1     bf  422 -   426         -6.690288894483          2.660196325405         -0.022185433255
      0.6450000000D+00  0.1000000000D+01
 Atom O15      Shell   155 F   1     bf  427 -   433         -6.690288894483          2.660196325405         -0.022185433255
      0.1428000000D+01  0.1000000000D+01
 Effective core potential in the form of general ECP input:
      1 0
 Pa1-ECP   5 60
 H component
  1
  2        1.0000000        0.00000000    0.00000000
 S-H projection
  1
  2       15.2691737      475.47573283    0.00000000
 P-H projection
  1
  2        9.9577370      207.66485962    0.00000000
 D-H projection
  1
  2        8.9431413      156.67411988    0.00000000
 F-H projection
  1
  2        7.0104666       67.98223685    0.00000000
 G-H projection
  1
  2       12.2010560      -57.63059989    0.00000000
 
 There are   506 symmetry adapted cartesian basis functions of A   symmetry.
 There are   433 symmetry adapted basis functions of A   symmetry.
   433 basis functions,   750 primitive gaussians,   506 cartesian basis functions
    56 alpha electrons       56 beta electrons
       nuclear repulsion energy      1001.5192426008 Hartrees.
 IExCor=  404 DFT=T Ex=B Corr=P86 ExCW=0 ScaHFX=  0.000000
 ScaDFX=  1.000000  1.000000  1.000000  1.000000 ScalE2=  1.000000  1.000000
 IRadAn=      5 IRanWt=     -1 IRanGd=            0 ICorTp=0 IEmpDi=  4
 NAtoms=   15 NActive=   15 NUniq=   15 SFac= 1.00D+00 NAtFMM=   60 NAOKFM=F Big=F
 Integral buffers will be    131072 words long.
 Raffenetti 2 integral format.
 Two-electron integral symmetry is turned on.
 Leave Link  301 at Mon Jun 26 13:02:18 2023, MaxMem=  2147483648 cpu:               0.8 elap:               0.1
 (Enter /home/pcmt/gaussian/g16.C.01/g16/l302.exe)
 NPDir=0 NMtPBC=     1 NCelOv=     1 NCel=       1 NClECP=     1 NCelD=      1
         NCelK=      1 NCelE2=     1 NClLst=     1 CellRange=     0.0.
 One-electron integrals computed using PRISM.
 One-electron integral symmetry used in STVInt
   1 Symmetry operations used in ECPInt.
 ECPInt:  NShTT=   12090 NPrTT=   36858 LenC2=   11119 LenP2D=   24845.
 LDataN:  DoStor=T MaxTD1= 9 Len=  602
 NBasis=   433 RedAO= T EigKep=  4.78D-04  NBF=   433
 NBsUse=   433 1.00D-06 EigRej= -1.00D+00 NBFU=   433
 Precomputing XC quadrature grid using
 IXCGrd= 4 IRadAn=           5 IRanWt=          -1 IRanGd=           0 AccXCQ= 0.00D+00.
 Defaulting to unpruned grid for atomic number  91.
 Generated NRdTot=       0 NPtTot=           0 NUsed=           0 NTot=          32
 NSgBfM=   497   497   497   497   497 MxSgAt=    15 MxSgA2=    15.
 Leave Link  302 at Mon Jun 26 13:02:19 2023, MaxMem=  2147483648 cpu:               8.7 elap:               1.2
 (Enter /home/pcmt/gaussian/g16.C.01/g16/l303.exe)
 DipDrv:  MaxL=1.
 Leave Link  303 at Mon Jun 26 13:02:20 2023, MaxMem=  2147483648 cpu:               0.7 elap:               0.1
 (Enter /home/pcmt/gaussian/g16.C.01/g16/l401.exe)
 ExpMin= 2.32D-02 ExpMax= 2.70D+04 ExpMxC= 1.20D+04 IAcc=3 IRadAn=         5 AccDes= 0.00D+00
 Harris functional with IExCor=  404 and IRadAn=       5 diagonalized for initial guess.
 HarFok:  IExCor=  404 AccDes= 0.00D+00 IRadAn=         5 IDoV= 1 UseB2=F ITyADJ=14
 ICtDFT=  3500011 ScaDFX=  1.000000  1.000000  1.000000  1.000000
 Defaulting to unpruned grid for atomic number  91.
 FoFCou: FMM=F IPFlag=           0 FMFlag=      100000 FMFlg1=           0
         NFxFlg=           0 DoJE=T BraDBF=F KetDBF=T FulRan=T
         wScrn=  0.000000 ICntrl=       500 IOpCl=  0 I1Cent=   200000004 NGrid=           0
         NMat0=    1 NMatS0=      1 NMatT0=    0 NMatD0=    1 NMtDS0=    0 NMtDT0=    0
 Petite list used in FoFCou.
 Harris En= -1124.42099892644    
 JPrj=0 DoOrth=F DoCkMO=F.
 Leave Link  401 at Mon Jun 26 13:02:24 2023, MaxMem=  2147483648 cpu:              32.9 elap:               4.1
 (Enter /home/pcmt/gaussian/g16.C.01/g16/l502.exe)
 Integral symmetry usage will be decided dynamically.
 Closed shell SCF:
 Using DIIS extrapolation, IDIIS=  1040.
 NGot=  2147483648 LenX=  2146962868 LenY=  2146706326
 Requested convergence on RMS density matrix=1.00D-08 within 100 cycles.
 Requested convergence on MAX density matrix=1.00D-06.
 Requested convergence on             energy=1.00D-06.
 No special actions if energy rises.
 Fock matrices will be formed incrementally for  20 cycles.

 Cycle   1  Pass 1  IDiag  1:
 FoFJK:  IHMeth= 1 ICntrl=     500 DoSepK=F KAlg= 0 I1Cent=           0 FoldK=F
 IRaf= 870000000 NMat=       1 IRICut=       1 DoRegI=T DoRafI=F ISym2E= 0 IDoP0=0 IntGTp=1.
 FoFCou: FMM=F IPFlag=           0 FMFlag=      100000 FMFlg1=           0
         NFxFlg=           0 DoJE=T BraDBF=F KetDBF=F FulRan=T
         wScrn=  0.000000 ICntrl=       500 IOpCl=  0 I1Cent=           0 NGrid=           0
         NMat0=    1 NMatS0=      1 NMatT0=    0 NMatD0=    1 NMtDS0=    0 NMtDT0=    0
 Symmetry not used in FoFCou.
 Defaulting to unpruned grid for atomic number  91.
 Defaulting to unpruned grid for atomic number  91.
 Defaulting to unpruned grid for atomic number  91.
 Defaulting to unpruned grid for atomic number  91.
 Defaulting to unpruned grid for atomic number  91.
 Defaulting to unpruned grid for atomic number  91.
 Defaulting to unpruned grid for atomic number  91.
 Defaulting to unpruned grid for atomic number  91.
 E= -1121.56600474149    
 DIIS: error= 4.13D-02 at cycle   1 NSaved=   1.
 NSaved= 1 IEnMin= 1 EnMin= -1121.56600474149     IErMin= 1 ErrMin= 4.13D-02
 ErrMax= 4.13D-02  0.00D+00 EMaxC= 1.00D-01 BMatC= 1.75D+00 BMatP= 1.75D+00
 IDIUse=3 WtCom= 5.87D-01 WtEn= 4.13D-01
 Coeff-Com:  0.100D+01
 Coeff-En:   0.100D+01
 Coeff:      0.100D+01
 Gap=     0.073 Goal=   None    Shift=    0.000
 GapD=    0.073 DampG=0.500 DampE=0.250 DampFc=0.1250 IDamp=-1.
 Damping current iteration by 1.25D-01
 RMSDP=1.01D-02 MaxDP=1.44D+00              OVMax= 9.98D-01

 Cycle   2  Pass 1  IDiag  1:
 RMSU=  1.24D-03    CP:  1.01D+00
 E= -1121.58322963668     Delta-E=       -0.017224895185 Rises=F Damp=T
 DIIS: error= 1.99D-02 at cycle   2 NSaved=   2.
 NSaved= 2 IEnMin= 2 EnMin= -1121.58322963668     IErMin= 2 ErrMin= 1.99D-02
 ErrMax= 1.99D-02  0.00D+00 EMaxC= 1.00D-01 BMatC= 3.27D-01 BMatP= 1.75D+00
 IDIUse=3 WtCom= 8.01D-01 WtEn= 1.99D-01
 Coeff-Com: -0.408D-01 0.104D+01
 Coeff-En:   0.493D+00 0.507D+00
 Coeff:      0.653D-01 0.935D+00
 Gap=    -0.005 Goal=   None    Shift=    0.000
 RMSDP=5.63D-03 MaxDP=3.59D-01 DE=-1.72D-02 OVMax= 8.79D-01

 Cycle   3  Pass 1  IDiag  1:
 RMSU=  5.63D-03    CP:  1.01D+00  1.07D+00
 E= -1120.32654433360     Delta-E=        1.256685303075 Rises=F Damp=F
 DIIS: error= 6.30D-02 at cycle   3 NSaved=   3.
 NSaved= 3 IEnMin= 2 EnMin= -1121.58322963668     IErMin= 2 ErrMin= 1.99D-02
 ErrMax= 6.30D-02  0.00D+00 EMaxC= 1.00D-01 BMatC= 2.74D+00 BMatP= 3.27D-01
 IDIUse=2 WtCom= 0.00D+00 WtEn= 1.00D+00
 EnCoef did     3 forward-backward iterations
 Coeff-En:   0.302D+00 0.471D+00 0.227D+00
 Coeff:      0.302D+00 0.471D+00 0.227D+00
 Gap=     0.110 Goal=   None    Shift=    0.000
 RMSDP=6.99D-03 MaxDP=5.84D-01 DE= 1.26D+00 OVMax= 9.65D-01

 Cycle   4  Pass 1  IDiag  1:
 RMSU=  2.96D-03    CP:  1.06D+00  3.00D+00  4.10D-02
 E= -1097.46121785378     Delta-E=       22.865326479826 Rises=F Damp=F
 DIIS: error= 4.27D-01 at cycle   4 NSaved=   4.
 NSaved= 4 IEnMin= 2 EnMin= -1121.58322963668     IErMin= 2 ErrMin= 1.99D-02
 ErrMax= 4.27D-01  0.00D+00 EMaxC= 1.00D-01 BMatC= 4.31D+01 BMatP= 3.27D-01
 IDIUse=2 WtCom= 0.00D+00 WtEn= 1.00D+00
 EnCoef did   100 forward-backward iterations
 Coeff-En:   0.600D+00 0.206D-01 0.264D+00 0.115D+00
 Coeff:      0.600D+00 0.206D-01 0.264D+00 0.115D+00
 Gap=     0.112 Goal=   None    Shift=    0.000
 RMSDP=3.51D-03 MaxDP=2.84D-01 DE= 2.29D+01 OVMax= 9.26D-01

 Cycle   5  Pass 1  IDiag  1:
 RMSU=  1.99D-03    CP:  1.06D+00  2.22D+00  1.53D-01  2.35D-01
 E= -1121.99933026788     Delta-E=      -24.538112414102 Rises=F Damp=F
 DIIS: error= 7.21D-02 at cycle   5 NSaved=   5.
 NSaved= 5 IEnMin= 5 EnMin= -1121.99933026788     IErMin= 2 ErrMin= 1.99D-02
 ErrMax= 7.21D-02  0.00D+00 EMaxC= 1.00D-01 BMatC= 1.28D+00 BMatP= 3.27D-01
 IDIUse=2 WtCom= 0.00D+00 WtEn= 1.00D+00
 EnCoef did   100 forward-backward iterations
 Coeff-En:   0.423D+00 0.462D-02 0.231D-03 0.000D+00 0.572D+00
 Coeff:      0.423D+00 0.462D-02 0.231D-03 0.000D+00 0.572D+00
 Gap=     0.134 Goal=   None    Shift=    0.000
 RMSDP=2.02D-03 MaxDP=1.72D-01 DE=-2.45D+01 OVMax= 2.81D-01

 Cycle   6  Pass 1  IDiag  1:
 RMSU=  1.43D-03    CP:  1.05D+00  1.42D+00  2.42D-01  9.67D-02  6.18D-01
 E= -1122.46603727130     Delta-E=       -0.466707003425 Rises=F Damp=F
 DIIS: error= 2.98D-02 at cycle   6 NSaved=   6.
 NSaved= 6 IEnMin= 6 EnMin= -1122.46603727130     IErMin= 2 ErrMin= 1.99D-02
 ErrMax= 2.98D-02  0.00D+00 EMaxC= 1.00D-01 BMatC= 3.71D-01 BMatP= 3.27D-01
 IDIUse=2 WtCom= 0.00D+00 WtEn= 1.00D+00
 EnCoef did     9 forward-backward iterations
 Coeff-En:   0.561D-01 0.000D+00 0.000D+00 0.000D+00 0.352D+00 0.592D+00
 Coeff:      0.561D-01 0.000D+00 0.000D+00 0.000D+00 0.352D+00 0.592D+00
 Gap=     0.205 Goal=   None    Shift=    0.000
 RMSDP=1.80D-03 MaxDP=9.71D-02 DE=-4.67D-01 OVMax= 1.99D-01

 Cycle   7  Pass 1  IDiag  1:
 RMSU=  7.62D-04    CP:  1.06D+00  1.56D+00  5.08D-02  1.34D-01  7.37D-01
                    CP:  1.71D-01
 E= -1122.55643084333     Delta-E=       -0.090393572025 Rises=F Damp=F
 DIIS: error= 3.41D-02 at cycle   7 NSaved=   7.
 NSaved= 7 IEnMin= 7 EnMin= -1122.55643084333     IErMin= 2 ErrMin= 1.99D-02
 ErrMax= 3.41D-02  0.00D+00 EMaxC= 1.00D-01 BMatC= 3.42D-01 BMatP= 3.27D-01
 IDIUse=3 WtCom= 6.59D-01 WtEn= 3.41D-01
 EnCoef did     4 forward-backward iterations
 Coeff-Com: -0.116D+00 0.200D+00 0.290D-01-0.548D-02 0.126D+00 0.391D+00
 Coeff-Com:  0.375D+00
 Coeff-En:   0.000D+00 0.000D+00 0.000D+00 0.000D+00 0.207D+00 0.393D+00
 Coeff-En:   0.400D+00
 Coeff:     -0.763D-01 0.132D+00 0.191D-01-0.361D-02 0.154D+00 0.392D+00
 Coeff:      0.383D+00
 Gap=     0.097 Goal=   None    Shift=    0.000
 RMSDP=7.18D-04 MaxDP=4.21D-02 DE=-9.04D-02 OVMax= 1.20D-01

 Cycle   8  Pass 1  IDiag  1:
 RMSU=  2.84D-04    CP:  1.05D+00  1.67D+00  1.21D-01  1.40D-01  7.46D-01
                    CP:  3.80D-01  4.59D-01
 E= -1122.77894306594     Delta-E=       -0.222512222611 Rises=F Damp=F
 DIIS: error= 2.82D-03 at cycle   8 NSaved=   8.
 NSaved= 8 IEnMin= 8 EnMin= -1122.77894306594     IErMin= 8 ErrMin= 2.82D-03
 ErrMax= 2.82D-03  0.00D+00 EMaxC= 1.00D-01 BMatC= 9.02D-03 BMatP= 3.27D-01
 IDIUse=3 WtCom= 9.72D-01 WtEn= 2.82D-02
 Coeff-Com: -0.597D-01 0.308D-01-0.103D-01 0.740D-03 0.475D-01 0.122D+00
 Coeff-Com:  0.177D+00 0.692D+00
 Coeff-En:   0.000D+00 0.000D+00 0.000D+00 0.000D+00 0.000D+00 0.000D+00
 Coeff-En:   0.000D+00 0.100D+01
 Coeff:     -0.580D-01 0.299D-01-0.100D-01 0.719D-03 0.461D-01 0.119D+00
 Coeff:      0.172D+00 0.700D+00
 Gap=     0.076 Goal=   None    Shift=    0.000
 RMSDP=2.35D-04 MaxDP=2.63D-02 DE=-2.23D-01 OVMax= 2.25D-02

 Cycle   9  Pass 1  IDiag  1:
 RMSU=  1.35D-04    CP:  1.06D+00  1.76D+00  1.24D-01  1.53D-01  7.96D-01
                    CP:  4.06D-01  5.57D-01  8.52D-01
 E= -1122.78655867826     Delta-E=       -0.007615612320 Rises=F Damp=F
 DIIS: error= 1.44D-03 at cycle   9 NSaved=   9.
 NSaved= 9 IEnMin= 9 EnMin= -1122.78655867826     IErMin= 9 ErrMin= 1.44D-03
 ErrMax= 1.44D-03  0.00D+00 EMaxC= 1.00D-01 BMatC= 8.13D-04 BMatP= 9.02D-03
 IDIUse=3 WtCom= 9.86D-01 WtEn= 1.44D-02
 Coeff-Com: -0.447D-02-0.496D-02-0.731D-02 0.423D-03 0.117D-01 0.684D-02
 Coeff-Com:  0.186D-01 0.276D+00 0.703D+00
 Coeff-En:   0.000D+00 0.000D+00 0.000D+00 0.000D+00 0.000D+00 0.000D+00
 Coeff-En:   0.000D+00 0.000D+00 0.100D+01
 Coeff:     -0.441D-02-0.489D-02-0.721D-02 0.417D-03 0.115D-01 0.674D-02
 Coeff:      0.183D-01 0.272D+00 0.708D+00
 Gap=     0.072 Goal=   None    Shift=    0.000
 RMSDP=1.28D-04 MaxDP=1.04D-02 DE=-7.62D-03 OVMax= 1.72D-02

 Cycle  10  Pass 1  IDiag  1:
 RMSU=  9.36D-05    CP:  1.06D+00  1.79D+00  1.20D-01  1.55D-01  8.11D-01
                    CP:  4.07D-01  5.75D-01  9.39D-01  1.49D+00
 E= -1122.78667644354     Delta-E=       -0.000117765276 Rises=F Damp=F
 DIIS: error= 2.90D-03 at cycle  10 NSaved=  10.
 NSaved=10 IEnMin=10 EnMin= -1122.78667644354     IErMin= 9 ErrMin= 1.44D-03
 ErrMax= 2.90D-03  0.00D+00 EMaxC= 1.00D-01 BMatC= 2.34D-03 BMatP= 8.13D-04
 IDIUse=3 WtCom= 9.86D-01 WtEn= 1.44D-02
 Coeff-Com:  0.180D-01-0.143D-01 0.239D-03 0.372D-03-0.815D-02-0.364D-01
 Coeff-Com: -0.343D-01 0.964D-01 0.604D+00 0.374D+00
 Coeff-En:   0.000D+00 0.000D+00 0.000D+00 0.000D+00 0.000D+00 0.000D+00
 Coeff-En:   0.000D+00 0.000D+00 0.463D+00 0.537D+00
 Coeff:      0.177D-01-0.141D-01 0.235D-03 0.366D-03-0.803D-02-0.358D-01
 Coeff:     -0.338D-01 0.950D-01 0.602D+00 0.376D+00
 Gap=     0.071 Goal=   None    Shift=    0.000
 RMSDP=9.54D-05 MaxDP=8.06D-03 DE=-1.18D-04 OVMax= 1.47D-02

 Cycle  11  Pass 1  IDiag  1:
 RMSU=  5.40D-05    CP:  1.06D+00  1.80D+00  1.20D-01  1.56D-01  8.12D-01
                    CP:  4.07D-01  5.95D-01  1.05D+00  1.98D+00  9.16D-01
 E= -1122.78730907950     Delta-E=       -0.000632635963 Rises=F Damp=F
 DIIS: error= 2.29D-03 at cycle  11 NSaved=  11.
 NSaved=11 IEnMin=11 EnMin= -1122.78730907950     IErMin= 9 ErrMin= 1.44D-03
 ErrMax= 2.29D-03  0.00D+00 EMaxC= 1.00D-01 BMatC= 2.65D-03 BMatP= 8.13D-04
 IDIUse=3 WtCom= 9.86D-01 WtEn= 1.44D-02
 EnCoef did     1 forward-backward iterations
 Coeff-Com:  0.163D-01-0.141D-01 0.194D-02 0.163D-03-0.844D-02-0.246D-01
 Coeff-Com: -0.177D-01 0.112D+00 0.374D+00 0.291D+00 0.270D+00
 Coeff-En:   0.000D+00 0.000D+00 0.000D+00 0.000D+00 0.000D+00 0.000D+00
 Coeff-En:   0.000D+00 0.000D+00 0.670D-02 0.147D+00 0.846D+00
 Coeff:      0.161D-01-0.139D-01 0.191D-02 0.161D-03-0.832D-02-0.242D-01
 Coeff:     -0.174D-01 0.110D+00 0.369D+00 0.289D+00 0.278D+00
[...]
 122         V                 0.710047          1.543318
 123         V                 0.719865          2.080421
 124         V                 0.737062          1.581428
 125         V                 0.760412          1.670199
 126         V                 0.767068          2.741288
 127         V                 0.776403          1.760011
 128         V                 0.794744          1.813281
 129         V                 0.828659          1.816663
 130         V                 0.832648          1.631852
 131         V                 0.848731          1.635321
 132         V                 0.863577          1.645730
 133         V                 0.880931          1.782447
 134         V                 0.892431          1.738503
 135         V                 0.901584          1.677554
 136         V                 0.914456          2.083242
 137         V                 0.917656          1.945021
 138         V                 0.933548          1.640159
 139         V                 0.948652          1.846902
 140         V                 0.976645          1.917170
 141         V                 1.004194          1.832855
 142         V                 1.025647          1.957007
 143         V                 1.056959          2.129021
 144         V                 1.065532          2.213444
 145         V                 1.067970          2.177995
 146         V                 1.075785          2.837266
 147         V                 1.083032          2.166707
 148         V                 1.098706          2.359713
 149         V                 1.132873          2.132937
 150         V                 1.142855          2.066933
 151         V                 1.173524          2.769975
 152         V                 1.198608          2.716740
 153         V                 1.212358          2.927534
 154         V                 1.240330          2.808642
 155         V                 1.245654          2.803828
 156         V                 1.257615          2.556435
 157         V                 1.266357          2.465954
 158         V                 1.290892          2.326280
 159         V                 1.294043          2.521863
 160         V                 1.299790          2.982906
 161         V                 1.314774          3.115756
 162         V                 1.329334          2.544098
 163         V                 1.338373          2.741150
 164         V                 1.354934          2.974302
 165         V                 1.382640          3.250747
 166         V                 1.391298          3.210527
 167         V                 1.412907          2.877852
 168         V                 1.444853          2.620054
 169         V                 1.448356          2.787355
 170         V                 1.474184          2.580796
 171         V                 1.476633          2.768997
 172         V                 1.502146          2.861593
 173         V                 1.506887          3.105424
 174         V                 1.527509          3.056631
 175         V                 1.540611          2.563493
 176         V                 1.553826          3.323504
 177         V                 1.567550          2.699630
 178         V                 1.599823          2.878536
 179         V                 1.604332          3.193590
 180         V                 1.624020          3.002419
 181         V                 1.629382          3.168839
 182         V                 1.636723          2.809996
 183         V                 1.641588          2.686961
 184         V                 1.650684          2.900052
 185         V                 1.675387          3.368516
 186         V                 1.683545          3.121153
 187         V                 1.700162          3.000133
 188         V                 1.723621          3.144530
 189         V                 1.728397          3.278044
 190         V                 1.739139          3.052109
 191         V                 1.750207          3.226905
 192         V                 1.767521          3.024597
 193         V                 1.793622          3.296136
 194         V                 1.820569          3.169826
 195         V                 1.825528          3.313673
 196         V                 1.827785          3.238047
 197         V                 1.877254          3.207991
 198         V                 1.892000          3.388695
 199         V                 1.900494          3.526648
 200         V                 1.912570          3.504355
 201         V                 1.917050          3.081854
 202         V                 1.927329          3.236491
 203         V                 1.935318          3.100290
 204         V                 1.954855          3.079116
 205         V                 1.994824          3.581810
 206         V                 2.002132          3.558930
 207         V                 2.015096          2.999841
 208         V                 2.050110          3.492372
 209         V                 2.056090          3.375843
 210         V                 2.073275          3.474644
 211         V                 2.092242          3.413293
 212         V                 2.100396          3.601356
 213         V                 2.113259          3.478533
 214         V                 2.140417          3.476852
 215         V                 2.196417          3.476395
 216         V                 2.202345          3.687164
 217         V                 2.238431          3.783338
 218         V                 2.249088          3.674045
 219         V                 2.256612          3.829385
 220         V                 2.267063          3.966655
 221         V                 2.273364          3.839879
 222         V                 2.301097          3.645123
 223         V                 2.312156          3.972404
 224         V                 2.325128          3.639195
 225         V                 2.340456          3.644442
 226         V                 2.344603          4.103797
 227         V                 2.371025          4.072628
 228         V                 2.383331          4.245608
 229         V                 2.390987          4.670176
 230         V                 2.391508          4.237373
 231         V                 2.442008          4.494402
 232         V                 2.445449          4.324218
 233         V                 2.568340          4.593214
 234         V                 2.570196          4.427006
 235         V                 2.571527          5.158276
 236         V                 2.606671          4.451169
 237         V                 2.608075          4.451829
 238         V                 2.639989          4.349810
 239         V                 2.658456          4.897719
 240         V                 2.711976          5.314457
 241         V                 2.729614          6.514681
 242         V                 2.735272          6.119853
 243         V                 2.749697          4.908064
 244         V                 2.750570          6.385842
 245         V                 2.765790          6.281128
 246         V                 2.774642          6.185378
 247         V                 2.801712          6.043552
 248         V                 2.828428          6.219257
 249         V                 2.838480          6.432202
 250         V                 2.852563          5.149415
 251         V                 2.863459          6.318824
 252         V                 2.876371          6.479355
 253         V                 2.899275          6.151508
 254         V                 2.958707          6.452303
 255         V                 2.981767          6.420776
 256         V                 2.998642          4.836603
 257         V                 3.042680          6.758563
 258         V                 3.053562          6.400260
 259         V                 3.070778          5.263077
 260         V                 3.086501          6.755876
 261         V                 3.099403          4.627398
 262         V                 3.120000          5.655468
 263         V                 3.143525          6.487241
 264         V                 3.150579          6.158367
 265         V                 3.170598          4.596557
 266         V                 3.193648          6.291443
 267         V                 3.253520          6.633606
 268         V                 3.270152          4.639625
 269         V                 3.339638          6.169561
 270         V                 3.361830          6.521607
 271         V                 3.368460          7.131720
 272         V                 3.419649          4.892664
 273         V                 3.437620          7.945839
 274         V                 3.486859          6.068625
 275         V                 3.488762          6.528876
 276         V                 3.499510          8.146454
 277         V                 3.523869          5.094493
 278         V                 3.526640          6.079807
 279         V                 3.562919          8.302064
 280         V                 3.575345          6.245359
 281         V                 3.633145          4.858252
 282         V                 3.639304          7.026497
 283         V                 3.743595          6.039606
 284         V                 3.750465          5.035830
 285         V                 3.753920          7.143075
 286         V                 3.779639          6.386900
 287         V                 3.827164          6.825204
 288         V                 3.838753          7.519723
 289         V                 3.879001          7.767410
 290         V                 3.881448          5.394426
 291         V                 3.897910          8.154317
 292         V                 3.977012          7.349285
 293         V                 4.011251          7.432988
 294         V                 4.062106          8.963240
 295         V                 4.080293          8.452876
 296         V                 4.165896          7.137376
 297         V                 4.186311          8.945933
 298         V                 4.283131          7.715615
 299         V                 4.310867          9.354672
 300         V                 4.332046          6.851430
 301         V                 4.368220          9.271825
 302         V                 4.399036          8.604822
 303         V                 4.525664          6.995458
 304         V                 4.595470          7.340343
 305         V                 4.686933          6.536947
 306         V                 4.907741          8.159731
 307         V                 5.144728          6.442694
 308         V                 5.147287          6.444084
 309         V                 5.150419          6.456464
 310         V                 5.150901          6.466998
 311         V                 5.153513          6.461049
 312         V                 5.160299          6.477569
 313         V                 5.167947          6.486916
 314         V                 5.173762          6.480178
 315         V                 5.195501          6.539205
 316         V                 5.197854          6.588158
 317         V                 5.201794          6.454502
 318         V                 5.208962          6.620333
 319         V                 5.212928          6.582760
 320         V                 5.222582          6.505815
 321         V                 5.234924          6.618460
 322         V                 5.237902          6.647812
 323         V                 5.243215          7.076424
 324         V                 5.246403          6.705230
 325         V                 5.265122          6.695011
 326         V                 5.266705          6.750218
 327         V                 5.277530          6.674639
 328         V                 5.292377          6.798438
 329         V                 5.300202          6.757746
 330         V                 5.316262          6.794094
 331         V                 5.325162          6.907196
 332         V                 5.399315          6.841541
 333         V                 5.417716          7.367349
 334         V                 5.447017          6.961028
 335         V                 5.455118          6.946561
 336         V                 5.488727          6.997034
 337         V                 5.492342          6.990882
 338         V                 5.512502          7.277181
 339         V                 5.529011          7.042775
 340         V                 5.560972          7.135736
 341         V                 5.571685          7.205590
 342         V                 5.581704          7.198180
 343         V                 5.584392          7.152966
 344         V                 5.605838          7.097093
 345         V                 5.668743          7.326714
 346         V                 5.722926          7.375247
 347         V                 5.802488          7.856610
 348         V                 5.919637          7.780156
 349         V                 5.971637          7.884684
 350         V                 5.972345          8.408971
 351         V                 6.080027          8.194197
 352         V                 6.121753          8.260023
 353         V                 6.165473         10.338994
 354         V                 6.221967          8.961183
 355         V                 6.232699          9.037721
 356         V                 6.250159          9.095959
 357         V                 6.252527          8.888263
 358         V                 6.261289          8.763069
 359         V                 6.289351          9.295898
 360         V                 6.293379          9.142809
 361         V                 6.310407          9.283416
 362         V                 6.331084          9.358896
 363         V                 6.344820          9.302204
 364         V                 6.359285          9.363006
 365         V                 6.372519          9.206435
 366         V                 6.390868          9.280736
 367         V                 6.394503          9.087487
 368         V                 6.410096          9.260768
 369         V                 6.442024          9.404683
 370         V                 6.448793          9.358755
 371         V                 6.452589          9.470961
 372         V                 6.464148          9.437335
 373         V                 6.506900          9.548910
 374         V                 6.517441          9.472583
 375         V                 6.525981          9.463214
 376         V                 6.551967          9.309502
 377         V                 6.569749          9.618953
 378         V                 6.577063          9.566901
 379         V                 6.597400          9.493964
 380         V                 6.615113          9.642578
 381         V                 6.659088          9.798172
 382         V                 6.669688         10.072702
 383         V                 6.765103          9.999363
 384         V                 6.772015          9.676672
 385         V                 6.794536         10.051946
 386         V                 6.815424          9.394430
 387         V                 6.823283          9.413811
 388         V                 6.868260          9.963462
 389         V                 6.911687          9.500976
 390         V                 6.951048          9.978740
 391         V                 6.955586         10.216271
 392         V                 6.970519          9.800581
 393         V                 7.033951         10.089516
 394         V                 7.074209          9.939594
 395         V                 7.085586         10.069939
 396         V                 7.103089          9.924510
 397         V                 7.106719          9.917692
 398         V                 7.149823          9.882554
 399         V                 7.193945         10.426297
 400         V                 7.208877         10.300379
 401         V                 7.287447         10.729322
 402         V                 7.293999         10.398030
 403         V                 7.570630         10.668030
 404         V                 7.595831         13.701338
 405         V                 7.637142         11.963541
 406         V                 7.653763         13.576103
 407         V                 8.331044         15.793804
 408         V                 8.356632         15.802517
 409         V                 8.495746         15.849888
 410         V                 8.982930         16.142996
 411         V                 9.124695         16.328615
 412         V                23.188031         56.741935
 413         V                23.359102         56.894165
 414         V                29.554243         36.144411
 415         V                29.584409         36.182458
 416         V                29.598386         36.177259
 417         V                43.409994        108.636996
 418         V                43.441537        108.648674
 419         V                43.481780        108.684416
 420         V                43.522477        108.735608
 421         V                43.542824        108.750093
 422         V                43.642021        108.882034
 423         V                43.695128        108.931587
 424         V                43.918033        109.140801
 425         V                54.196844         39.957563
 426         V                70.411398         84.075569
 427         V                70.432196         84.112150
 428         V                70.435593         84.118061
 429         V               142.861246        242.590329
 430         V               142.899655        242.639109
 431         V               142.906703        242.647007
 432         V               202.707203        130.067392
 433         V               626.216982       1034.492260
 Total kinetic energy from orbitals= 8.427276348367D+02
 No NMR shielding tensors so no spin-rotation constants.
 Leave Link  601 at Mon Jun 26 13:07:38 2023, MaxMem=  2147483648 cpu:               5.0 elap:               0.6
 (Enter /home/pcmt/gaussian/g16.C.01/g16/l9999.exe)

 Test job not archived.
 1\1\GINC-U-0-13\SP\RBP86\Gen\C2H4O8Pa1(1-)\ROOT\26-Jun-2023\0\\#p BP86
 /GEN Pseudo=Read GFInput GFPrint IOP(6/7=3) Symm=(Loose) Int=(UltraFin
 e) Guess=(Harris) Scf=(NoVarAcc,MaxCycle=100,conver=8)\\pa_oh4_c2o4-bp
 86-cosmors-deftzvp-gp.com SGP in PCM calculation\\-1,1\Pa,0,0.65992786
 17,-0.2256211325,-0.3736562825\O,0,1.1600741205,1.2931852928,-1.775092
 779\H,0,0.8702624892,1.5496626597,-2.6586819026\O,0,-0.7366245677,1.06
 56389897,0.6101870195\H,0,-1.0898674236,1.9462593018,0.4408850944\O,0,
 -0.5685495857,-1.1691701977,-1.8446539253\H,0,-1.189371454,-1.90213614
 54,-1.9158760615\O,0,0.2826542128,-1.7509173578,1.0572657388\H,0,-0.38
 75360388,-1.9238287545,1.7291967244\O,0,2.5325004401,0.4584521892,0.85
 56067748\O,0,2.6124051607,-1.3668497214,-0.9873796568\C,0,3.7213100028
 ,-0.0140020699,0.6528821219\C,0,3.7682600788,-1.1228575598,-0.45639160
 62\O,0,4.7370777003,0.3315695752,1.2344589686\O,0,4.8194967186,-1.6690
 778357,-0.7496812031\\Version=ES64L-G16RevC.01\State=1-A\HF=-1122.7888
 435\RMSD=2.622e-09\Dipole=-4.3601013,0.4559618,-0.7298076\Quadrupole=-
 16.7116317,9.035568,7.6760637,4.1361398,-4.2747914,-5.9548466\PG=C01 [
 X(C2H4O8Pa1)]\\@


 IF IT HAPPENS, IT MUST BE POSSIBLE.

 -- THE UNNAMED LAW FROM PAUL DICKSON'S 
    "THE OFFICIAL RULES"
 Job cpu time:       0 days  0 hours 42 minutes  4.1 seconds.
 Elapsed time:       0 days  0 hours  5 minutes 20.4 seconds.
 File lengths (MBytes):  RWF=    100 Int=      0 D2E=      0 Chk=     12 Scr=      1
 Normal termination of Gaussian 16 at Mon Jun 26 13:07:38 2023.
