 Entering Gaussian System, Link 0=/home/pcmt/gaussian/g16.C.01/g16/g16
 AtFile(1): /home/shaaban/basis.gaussian/Pa-def-TZVP
 AtFile(1): /home/shaaban/basis.gaussian/Pa-ECP60MWB
 Initial command:
 /home/pcmt/gaussian/g16.C.01/g16/l1.exe "/state/partition2/shaaban/971958.phlam-s-sakura/Gau-54640.inp" -scrdir="/state/partition2/shaaban/971958.phlam-s-sakura/"
 Entering Link 1 = /home/pcmt/gaussian/g16.C.01/g16/l1.exe PID=     54641.
  
 Copyright (c) 1988-2019, Gaussian, Inc.  All Rights Reserved.
  
 This is part of the Gaussian(R) 16 program.  It is based on
 the Gaussian(R) 09 system (copyright 2009, Gaussian, Inc.),
 the Gaussian(R) 03 system (copyright 2003, Gaussian, Inc.),
 the Gaussian(R) 98 system (copyright 1998, Gaussian, Inc.),
 the Gaussian(R) 94 system (copyright 1995, Gaussian, Inc.),
 the Gaussian 92(TM) system (copyright 1992, Gaussian, Inc.),
 the Gaussian 90(TM) system (copyright 1990, Gaussian, Inc.),
 the Gaussian 88(TM) system (copyright 1988, Gaussian, Inc.),
 the Gaussian 86(TM) system (copyright 1986, Carnegie Mellon
 University), and the Gaussian 82(TM) system (copyright 1983,
 Carnegie Mellon University). Gaussian is a federally registered
 trademark of Gaussian, Inc.
  
 This software contains proprietary and confidential information,
 including trade secrets, belonging to Gaussian, Inc.
  
 This software is provided under written license and may be
 used, copied, transmitted, or stored only in accord with that
 written license.
  
 The following legend is applicable only to US Government
 contracts under FAR:
  
                    RESTRICTED RIGHTS LEGEND
  
 Use, reproduction and disclosure by the US Government is
 subject to restrictions as set forth in subparagraphs (a)
 and (c) of the Commercial Computer Software - Restricted
 Rights clause in FAR 52.227-19.
  
 Gaussian, Inc.
 340 Quinnipiac St., Bldg. 40, Wallingford CT 06492
  
  
 ---------------------------------------------------------------
 Warning -- This program may not be used in any manner that
 competes with the business of Gaussian, Inc. or will provide
 assistance to any competitor of Gaussian, Inc.  The licensee
 of this program is prohibited from giving any competitor of
 Gaussian, Inc. access to this program.  By using this program,
 the user acknowledges that Gaussian, Inc. is engaged in the
 business of creating and licensing software in the field of
 computational chemistry and represents and warrants to the
 licensee that it is not a competitor of Gaussian, Inc. and that
 it will not use this program in any manner prohibited above.
 ---------------------------------------------------------------
  

 Cite this work as:
 Gaussian 16, Revision C.01,
 M. J. Frisch, G. W. Trucks, H. B. Schlegel, G. E. Scuseria, 
 M. A. Robb, J. R. Cheeseman, G. Scalmani, V. Barone, 
 G. A. Petersson, H. Nakatsuji, X. Li, M. Caricato, A. V. Marenich, 
 J. Bloino, B. G. Janesko, R. Gomperts, B. Mennucci, H. P. Hratchian, 
 J. V. Ortiz, A. F. Izmaylov, J. L. Sonnenberg, D. Williams-Young, 
 F. Ding, F. Lipparini, F. Egidi, J. Goings, B. Peng, A. Petrone, 
 T. Henderson, D. Ranasinghe, V. G. Zakrzewski, J. Gao, N. Rega, 
 G. Zheng, W. Liang, M. Hada, M. Ehara, K. Toyota, R. Fukuda, 
 J. Hasegawa, M. Ishida, T. Nakajima, Y. Honda, O. Kitao, H. Nakai, 
 T. Vreven, K. Throssell, J. A. Montgomery, Jr., J. E. Peralta, 
 F. Ogliaro, M. J. Bearpark, J. J. Heyd, E. N. Brothers, K. N. Kudin, 
 V. N. Staroverov, T. A. Keith, R. Kobayashi, J. Normand, 
 K. Raghavachari, A. P. Rendell, J. C. Burant, S. S. Iyengar, 
 J. Tomasi, M. Cossi, J. M. Millam, M. Klene, C. Adamo, R. Cammi, 
 J. W. Ochterski, R. L. Martin, K. Morokuma, O. Farkas, 
 J. B. Foresman, and D. J. Fox, Gaussian, Inc., Wallingford CT, 2019.
 
 ******************************************
 Gaussian 16:  ES64L-G16RevC.01  3-Jul-2019
                26-Jun-2023 
 ******************************************
 %mem=16Gb
 %NProc=8
 Will use up to    8 processors via shared memory.
 %chk=pa_oh4_c2o4-bp86-cosmors-deftzvp-klamt.chk
 ----------------------------------------------------------------------
 #p BP86/GEN Pseudo=Read GFInput GFPrint IOP(6/7=3) Symm=(Loose) Int=(U
 ltraFine) Guess=(Harris) SCRF=(COSMORS) Scf=(NoVarAcc,MaxCycle=100,con
 ver=8)
 ----------------------------------------------------------------------
 1/38=1,172=1/1;
 2/12=2,17=4,18=3,40=1/2;
 3/5=7,11=2,16=1,17=8,24=110,25=1,30=1,70=12101,74=404,75=-5/1,2,3;
 4/11=8/1;
 5/5=2,6=8,7=100,38=1/2;
 6/7=3,8=2,9=2,10=2,28=1/1;
 99/5=1,9=1/99;
 Leave Link    1 at Mon Jun 26 13:51:54 2023, MaxMem=  2147483648 cpu:               0.8 elap:               0.1
 (Enter /home/pcmt/gaussian/g16.C.01/g16/l101.exe)
 -----------------------------------------------------------------
 pa_oh4_c2o4-bp86-cosmors-deftzvp-klamt.com SGP in PCM calculation
 -----------------------------------------------------------------
 Symbolic Z-matrix:
 Charge = -1 Multiplicity = 1
 Pa                    0.65993  -0.22562  -0.37366 
 O                     1.16007   1.29319  -1.77509 
 H                     0.87026   1.54966  -2.65868 
 O                    -0.73662   1.06564   0.61019 
 H                    -1.08987   1.94626   0.44089 
 O                    -0.56855  -1.16917  -1.84465 
 H                    -1.18937  -1.90214  -1.91588 
 O                     0.28265  -1.75092   1.05727 
 H                    -0.38754  -1.92383   1.7292 
 O                     2.5325    0.45845   0.85561 
 O                     2.61241  -1.36685  -0.98738 
 C                     3.72131  -0.014     0.65288 
 C                     3.76826  -1.12286  -0.45639 
 O                     4.73708   0.33157   1.23446 
 O                     4.8195   -1.66908  -0.74968 
 
 ITRead=  0  0  0  0  0  0  0  0  0  0  0  0  0  0  0
 MicOpt= -1 -1 -1 -1 -1 -1 -1 -1 -1 -1 -1 -1 -1 -1 -1
 NAtoms=     15 NQM=       15 NQMF=       0 NMMI=      0 NMMIF=      0
                NMic=       0 NMicF=      0.
                    Isotopes and Nuclear Properties:
 (Nuclear quadrupole moments (NQMom) in fm**2, nuclear magnetic moments (NMagM)
  in nuclear magnetons)

  Atom         1           2           3           4           5           6           7           8           9          10
 IAtWgt=         231          16           1          16           1          16           1          16           1          16
 AtmWgt= 231.0359000  15.9949146   1.0078250  15.9949146   1.0078250  15.9949146   1.0078250  15.9949146   1.0078250  15.9949146
 NucSpn=           3           0           1           0           1           0           1           0           1           0
 AtZEff=  -0.0000000  -0.0000000  -0.0000000  -0.0000000  -0.0000000  -0.0000000  -0.0000000  -0.0000000  -0.0000000  -0.0000000
 NQMom= -172.0000000   0.0000000   0.0000000   0.0000000   0.0000000   0.0000000   0.0000000   0.0000000   0.0000000   0.0000000
 NMagM=    2.0100000   0.0000000   2.7928460   0.0000000   2.7928460   0.0000000   2.7928460   0.0000000   2.7928460   0.0000000
 AtZNuc=  91.0000000   8.0000000   1.0000000   8.0000000   1.0000000   8.0000000   1.0000000   8.0000000   1.0000000   8.0000000

  Atom        11          12          13          14          15
 IAtWgt=          16          12          12          16          16
 AtmWgt=  15.9949146  12.0000000  12.0000000  15.9949146  15.9949146
 NucSpn=           0           0           0           0           0
 AtZEff=  -0.0000000  -0.0000000  -0.0000000  -0.0000000  -0.0000000
 NQMom=    0.0000000   0.0000000   0.0000000   0.0000000   0.0000000
 NMagM=    0.0000000   0.0000000   0.0000000   0.0000000   0.0000000
 AtZNuc=   8.0000000   6.0000000   6.0000000   8.0000000   8.0000000
 Leave Link  101 at Mon Jun 26 13:51:54 2023, MaxMem=  2147483648 cpu:               0.8 elap:               0.1
 (Enter /home/pcmt/gaussian/g16.C.01/g16/l202.exe)
                          Input orientation:                          
 ---------------------------------------------------------------------
 Center     Atomic      Atomic             Coordinates (Angstroms)
 Number     Number       Type             X           Y           Z
 ---------------------------------------------------------------------
      1         91           0        0.659928   -0.225621   -0.373656
      2          8           0        1.160074    1.293185   -1.775093
      3          1           0        0.870262    1.549663   -2.658682
      4          8           0       -0.736625    1.065639    0.610187
      5          1           0       -1.089867    1.946259    0.440885
      6          8           0       -0.568550   -1.169170   -1.844654
      7          1           0       -1.189371   -1.902136   -1.915876
      8          8           0        0.282654   -1.750917    1.057266
      9          1           0       -0.387536   -1.923829    1.729197
     10          8           0        2.532500    0.458452    0.855607
     11          8           0        2.612405   -1.366850   -0.987380
     12          6           0        3.721310   -0.014002    0.652882
     13          6           0        3.768260   -1.122858   -0.456392
     14          8           0        4.737078    0.331570    1.234459
     15          8           0        4.819497   -1.669078   -0.749681
 ---------------------------------------------------------------------
                    Distance matrix (angstroms):
                    1          2          3          4          5
     1  Pa   0.000000
     2  O    2.126251   0.000000
     3  H    2.901244   0.964625   0.000000
     4  O    2.141415   3.055946   3.674489   0.000000
     5  H    2.905568   3.224795   3.688728   0.963813   0.000000
     6  O    2.136183   3.009348   3.181961   3.323983   3.898892
     7  H    2.934119   3.968601   4.087636   3.923476   4.513798
     8  O    2.125183   4.249551   5.004736   3.028498   3.991598
     9  H    2.898807   5.002432   5.735911   3.211069   4.138913
    10  O    2.342130   3.082355   4.037821   3.334079   3.937907
    11  O    2.343337   3.131380   3.786074   4.436803   5.169473
    12  C    3.235834   3.763473   4.641118   4.587006   5.199519
    13  C    3.236295   3.791948   4.515621   5.120654   5.816011
    14  O    4.418104   4.772532   5.620726   5.557876   6.098383
    15  O    4.418934   4.818490   5.440682   6.340221   7.029132
                    6          7          8          9         10
     6  O    0.000000
     7  H    0.963188   0.000000
     8  O    3.079629   3.321039   0.000000
     9  H    3.657141   3.732287   0.964647   0.000000
    10  O    4.422338   5.206325   3.159713   3.868467   0.000000
    11  O    3.300374   3.949955   3.123431   4.085298   2.595132
    12  C    5.096567   5.854773   3.873597   4.657092   1.295214
    13  C    4.553826   5.226421   3.851632   4.763296   2.397704
    14  O    6.315286   7.073673   4.920370   5.620788   2.240489
    15  O    5.520862   6.125424   4.884127   5.772601   3.511935
                   11         12         13         14         15
    11  O    0.000000
    12  C    2.397984   0.000000
    13  C    1.295176   1.569157   0.000000
    14  O    3.512183   1.220424   2.431654   0.000000
    15  O    2.240334   2.431558   1.220440   2.818900   0.000000
 Stoichiometry    C2H4O8Pa(1-)
 Framework group  C1[X(C2H4O8Pa)]
 Deg. of freedom    39
 Full point group                 C1      NOp   1
 Largest Abelian subgroup         C1      NOp   1
 Largest concise Abelian subgroup C1      NOp   1
                         Standard orientation:                         
 ---------------------------------------------------------------------
 Center     Atomic      Atomic             Coordinates (Angstroms)
 Number     Number       Type             X           Y           Z
 ---------------------------------------------------------------------
      1         91           0        0.648015   -0.000954    0.003676
      2          8           0        0.526849   -0.089794   -2.117260
      3          1           0        0.970241    0.337692   -2.859662
      4          8           0        2.013571   -1.649838    0.049471
      5          1           0        2.480343   -2.169507   -0.614610
      6          8           0        1.972678    1.667992   -0.148519
      7          1           0        2.515016    2.223643    0.421439
      8          8           0        0.643315    0.075286    2.127486
      9          1           0        1.184059   -0.290303    2.837757
     10          8           0       -1.301854   -1.297649    0.050191
     11          8           0       -1.302868    1.297203    0.012040
     12          6           0       -2.491195   -0.785615    0.020723
     13          6           0       -2.491777    0.783463    0.005047
     14          8           0       -3.538991   -1.411140    0.004071
     15          8           0       -3.540348    1.407715   -0.011740
 ---------------------------------------------------------------------
 Rotational constants (GHZ):           1.2898446           0.4983834           0.4666748
 Leave Link  202 at Mon Jun 26 13:51:54 2023, MaxMem=  2147483648 cpu:               0.1 elap:               0.0
 (Enter /home/pcmt/gaussian/g16.C.01/g16/l301.exe)
 General basis read from cards:  (5D, 7F)
 Centers:       1
 S 3 1.00
     Exponent=  1.2047376000D+04 Coefficients=  3.4500000000D-04
     Exponent=  1.8116841000D+03 Coefficients=  2.7420000000D-03
     Exponent=  3.4770104000D+02 Coefficients=  1.0053000000D-02
 S 1 1.00
     Exponent=  9.8678010000D+01 Coefficients=  1.0000000000D+00
 S 3 1.00
     Exponent=  5.7507376000D+01 Coefficients=  5.1528000000D-02
     Exponent=  3.3502601000D+01 Coefficients= -2.3692400000D-01
     Exponent=  1.9554451000D+01 Coefficients=  7.1904800000D-01
 S 1 1.00
     Exponent=  9.7164210000D+00 Coefficients=  1.0000000000D+00
 S 1 1.00
     Exponent=  2.6920960000D+00 Coefficients=  1.0000000000D+00
 S 1 1.00
     Exponent=  1.4538470000D+00 Coefficients=  1.0000000000D+00
 S 1 1.00
     Exponent=  5.7435200000D-01 Coefficients=  1.0000000000D+00
 S 1 1.00
     Exponent=  2.6346800000D-01 Coefficients=  1.0000000000D+00
 S 1 1.00
     Exponent=  5.6557000000D-02 Coefficients=  1.0000000000D+00
 S 1 1.00
     Exponent=  2.3169000000D-02 Coefficients=  1.0000000000D+00
 P 5 1.00
     Exponent=  2.9033676000D+03 Coefficients=  3.5000000000D-05
     Exponent=  6.4486356000D+02 Coefficients=  2.0500000000D-04
     Exponent=  2.2025896000D+02 Coefficients=  1.2510000000D-03
     Exponent=  8.0276401000D+01 Coefficients=  2.4570000000D-03
     Exponent=  2.4080211000D+01 Coefficients=  1.1190000000D-02
 P 1 1.00
     Exponent=  1.4077580000D+01 Coefficients=  1.0000000000D+00
 P 1 1.00
     Exponent=  8.2658460000D+00 Coefficients=  1.0000000000D+00
 P 1 1.00
     Exponent=  3.5948000000D+00 Coefficients=  1.0000000000D+00
 P 1 1.00
     Exponent=  1.7531110000D+00 Coefficients=  1.0000000000D+00
 P 1 1.00
     Exponent=  6.5776700000D-01 Coefficients=  1.0000000000D+00
 P 1 1.00
     Exponent=  2.8463900000D-01 Coefficients=  1.0000000000D+00
 P 1 1.00
     Exponent=  1.0054300000D-01 Coefficients=  1.0000000000D+00
 P 1 1.00
     Exponent=  3.0190000000D-02 Coefficients=  1.0000000000D+00
 D 6 1.00
     Exponent=  4.4814991000D+02 Coefficients=  2.6000000000D-05
     Exponent=  1.5446145000D+02 Coefficients=  2.2800000000D-04
     Exponent=  6.0925377000D+01 Coefficients=  9.0400000000D-04
     Exponent=  1.7032091000D+01 Coefficients=  2.5647000000D-02
     Exponent=  1.0018877000D+01 Coefficients= -1.0575100000D-01
     Exponent=  3.4091930000D+00 Coefficients=  4.4743200000D-01
 D 1 1.00
     Exponent=  1.6702130000D+00 Coefficients=  1.0000000000D+00
 D 1 1.00
     Exponent=  7.4109500000D-01 Coefficients=  1.0000000000D+00
 D 1 1.00
     Exponent=  2.6139300000D-01 Coefficients=  1.0000000000D+00
 D 1 1.00
     Exponent=  8.2811000000D-02 Coefficients=  1.0000000000D+00
 F 5 1.00
     Exponent=  8.7991327000D+01 Coefficients=  2.2600000000D-04
     Exponent=  2.8340195000D+01 Coefficients=  2.3230000000D-03
     Exponent=  1.2440994000D+01 Coefficients=  4.5850000000D-03
     Exponent=  3.9572960000D+00 Coefficients=  1.5696100000D-01
     Exponent=  1.8759440000D+00 Coefficients=  3.4497700000D-01
 F 1 1.00
     Exponent=  8.2758900000D-01 Coefficients=  1.0000000000D+00
 F 1 1.00
     Exponent=  3.3274800000D-01 Coefficients=  1.0000000000D+00
 F 1 1.00
     Exponent=  1.1468500000D-01 Coefficients=  1.0000000000D+00
 G 1 1.00
     Exponent=  3.5000000000D-01 Coefficients=  1.0000000000D+00
 ****
 Centers:       2      4      6      8     10     11     14     15
 Def2TZVP
 ****
 Centers:       3      5      7      9
 Def2TZVP
 ****
 Centers:      12     13
 Def2TZVP
 ****
 ======================================================================================================
                                       Pseudopotential Parameters
 ======================================================================================================
  Center     Atomic      Valence      Angular      Power
  Number     Number     Electrons     Momentum     of R      Exponent        Coefficient   SO-Coeffient
 ======================================================================================================
    1         91           31
                                      H and up 
                                                     2        1.0000000        0.00000000    0.00000000
                                      S - H
                                                     2       15.2691737      475.47573283    0.00000000
                                      P - H
                                                     2        9.9577370      207.66485962    0.00000000
                                      D - H
                                                     2        8.9431413      156.67411988    0.00000000
                                      F - H
                                                     2        7.0104666       67.98223685    0.00000000
                                      G - H
                                                     2       12.2010560      -57.63059989    0.00000000
    2          8
                                   No pseudopotential on this center.
    3          1
                                   No pseudopotential on this center.
    4          8
                                   No pseudopotential on this center.
    5          1
                                   No pseudopotential on this center.
    6          8
                                   No pseudopotential on this center.
    7          1
                                   No pseudopotential on this center.
    8          8
                                   No pseudopotential on this center.
    9          1
                                   No pseudopotential on this center.
   10          8
                                   No pseudopotential on this center.
   11          8
                                   No pseudopotential on this center.
   12          6
                                   No pseudopotential on this center.
   13          6
                                   No pseudopotential on this center.
   14          8
                                   No pseudopotential on this center.
   15          8
                                   No pseudopotential on this center.
 ======================================================================================================
 Ernie: Thresh=  0.10000D-02 Tol=  0.10000D-05 Strict=F.
 AO basis set in the form of general basis input (Overlap normalization):
      1 0
 S   3 1.00       0.000000000000
      0.1204737600D+05  0.2857094961D-01
      0.1811684100D+04  0.2270769386D+00
      0.3477010400D+03  0.8325326273D+00
 S   3 1.00       0.000000000000
      0.5750737600D+02  0.9569327984D-01
      0.3350260100D+02 -0.4399944619D+00
      0.1955445100D+02  0.1335352847D+01
 S   1 1.00       0.000000000000
      0.9867801000D+02  0.1000000000D+01
 S   1 1.00       0.000000000000
      0.9716421000D+01  0.1000000000D+01
 S   1 1.00       0.000000000000
      0.2692096000D+01  0.1000000000D+01
 S   1 1.00       0.000000000000
      0.1453847000D+01  0.1000000000D+01
 S   1 1.00       0.000000000000
      0.5743520000D+00  0.1000000000D+01
 S   1 1.00       0.000000000000
      0.2634680000D+00  0.1000000000D+01
 S   1 1.00       0.000000000000
      0.5655700000D-01  0.1000000000D+01
 S   1 1.00       0.000000000000
      0.2316900000D-01  0.1000000000D+01
 P   5 1.00       0.000000000000
      0.2903367600D+04  0.2594222647D-02
      0.6448635600D+03  0.1519473264D-01
      0.2202589600D+03  0.9272492945D-01
      0.8027640100D+02  0.1821144298D+00
      0.2408021100D+02  0.8294100404D+00
 P   1 1.00       0.000000000000
      0.1407758000D+02  0.1000000000D+01
 P   1 1.00       0.000000000000
      0.8265846000D+01  0.1000000000D+01
 P   1 1.00       0.000000000000
      0.3594800000D+01  0.1000000000D+01
 P   1 1.00       0.000000000000
      0.1753111000D+01  0.1000000000D+01
 P   1 1.00       0.000000000000
      0.6577670000D+00  0.1000000000D+01
 P   1 1.00       0.000000000000
      0.2846390000D+00  0.1000000000D+01
 P   1 1.00       0.000000000000
      0.1005430000D+00  0.1000000000D+01
 P   1 1.00       0.000000000000
      0.3019000000D-01  0.1000000000D+01
 D   6 1.00       0.000000000000
      0.4481499100D+03  0.6556927566D-04
      0.1544614500D+03  0.5749921096D-03
      0.6092537700D+02  0.2279793277D-02
      0.1703209100D+02  0.6467904664D-01
      0.1001887700D+02 -0.2666929411D+00
      0.3409193000D+01  0.1128376621D+01
 D   1 1.00       0.000000000000
      0.1670213000D+01  0.1000000000D+01
 D   1 1.00       0.000000000000
      0.7410950000D+00  0.1000000000D+01
 D   1 1.00       0.000000000000
      0.2613930000D+00  0.1000000000D+01
 D   1 1.00       0.000000000000
      0.8281100000D-01  0.1000000000D+01
 F   5 1.00       0.000000000000
      0.8799132700D+02  0.4766318191D-03
      0.2834019500D+02  0.4899184583D-02
      0.1244099400D+02  0.9669720755D-02
      0.3957296000D+01  0.3310292343D+00
      0.1875944000D+01  0.7275531640D+00
 F   1 1.00       0.000000000000
      0.8275890000D+00  0.1000000000D+01
 F   1 1.00       0.000000000000
      0.3327480000D+00  0.1000000000D+01
 F   1 1.00       0.000000000000
      0.1146850000D+00  0.1000000000D+01
 G   1 1.00       0.000000000000
      0.3500000000D+00  0.1000000000D+01
 ****
      2 0
 S   6 1.00       0.000000000000
      0.2703238263D+05  0.5722733521D-03
      0.4052387139D+04  0.4435323349D-02
      0.9223272271D+03  0.2302010771D-01
      0.2612407099D+03  0.9282249067D-01
      0.8535464135D+02  0.2937850001D+00
      0.3103503524D+02  0.6740160450D+00
 S   2 1.00       0.000000000000
      0.1226086073D+02  0.6383993703D+00
      0.4998707601D+01  0.3953458713D+00
 S   1 1.00       0.000000000000
      0.1170310816D+01  0.1000000000D+01
 S   1 1.00       0.000000000000
      0.4647474099D+00  0.1000000000D+01
 S   1 1.00       0.000000000000
      0.1850453636D+00  0.1000000000D+01
 P   4 1.00       0.000000000000
      0.6327495480D+02  0.1201833222D-01
      0.1462704938D+02  0.8300542179D-01
      0.4450122346D+01  0.3199174393D+00
      0.1527579965D+01  0.7071554292D+00
 P   1 1.00       0.000000000000
      0.5293511794D+00  0.1000000000D+01
 P   1 1.00       0.000000000000
      0.1747842127D+00  0.1000000000D+01
 D   1 1.00       0.000000000000
      0.2314000000D+01  0.1000000000D+01
 D   1 1.00       0.000000000000
      0.6450000000D+00  0.1000000000D+01
 F   1 1.00       0.000000000000
      0.1428000000D+01  0.1000000000D+01
 ****
      3 0
 S   3 1.00       0.000000000000
      0.3406134100D+02  0.2543930721D-01
      0.5123574600D+01  0.1900859489D+00
      0.1164662600D+01  0.8524411301D+00
 S   1 1.00       0.000000000000
      0.3272304100D+00  0.1000000000D+01
 S   1 1.00       0.000000000000
      0.1030724100D+00  0.1000000000D+01
 P   1 1.00       0.000000000000
      0.8000000000D+00  0.1000000000D+01
 ****
      4 0
 S   6 1.00       0.000000000000
      0.2703238263D+05  0.5722733521D-03
      0.4052387139D+04  0.4435323349D-02
      0.9223272271D+03  0.2302010771D-01
      0.2612407099D+03  0.9282249067D-01
      0.8535464135D+02  0.2937850001D+00
      0.3103503524D+02  0.6740160450D+00
 S   2 1.00       0.000000000000
      0.1226086073D+02  0.6383993703D+00
      0.4998707601D+01  0.3953458713D+00
 S   1 1.00       0.000000000000
      0.1170310816D+01  0.1000000000D+01
 S   1 1.00       0.000000000000
      0.4647474099D+00  0.1000000000D+01
 S   1 1.00       0.000000000000
      0.1850453636D+00  0.1000000000D+01
 P   4 1.00       0.000000000000
      0.6327495480D+02  0.1201833222D-01
      0.1462704938D+02  0.8300542179D-01
      0.4450122346D+01  0.3199174393D+00
      0.1527579965D+01  0.7071554292D+00
 P   1 1.00       0.000000000000
      0.5293511794D+00  0.1000000000D+01
 P   1 1.00       0.000000000000
      0.1747842127D+00  0.1000000000D+01
 D   1 1.00       0.000000000000
      0.2314000000D+01  0.1000000000D+01
 D   1 1.00       0.000000000000
      0.6450000000D+00  0.1000000000D+01
 F   1 1.00       0.000000000000
      0.1428000000D+01  0.1000000000D+01
 ****
      5 0
 S   3 1.00       0.000000000000
      0.3406134100D+02  0.2543930721D-01
      0.5123574600D+01  0.1900859489D+00
      0.1164662600D+01  0.8524411301D+00
 S   1 1.00       0.000000000000
      0.3272304100D+00  0.1000000000D+01
 S   1 1.00       0.000000000000
      0.1030724100D+00  0.1000000000D+01
 P   1 1.00       0.000000000000
      0.8000000000D+00  0.1000000000D+01
 ****
      6 0
 S   6 1.00       0.000000000000
      0.2703238263D+05  0.5722733521D-03
      0.4052387139D+04  0.4435323349D-02
      0.9223272271D+03  0.2302010771D-01
      0.2612407099D+03  0.9282249067D-01
      0.8535464135D+02  0.2937850001D+00
      0.3103503524D+02  0.6740160450D+00
 S   2 1.00       0.000000000000
      0.1226086073D+02  0.6383993703D+00
      0.4998707601D+01  0.3953458713D+00
 S   1 1.00       0.000000000000
      0.1170310816D+01  0.1000000000D+01
 S   1 1.00       0.000000000000
      0.4647474099D+00  0.1000000000D+01
 S   1 1.00       0.000000000000
      0.1850453636D+00  0.1000000000D+01
 P   4 1.00       0.000000000000
      0.6327495480D+02  0.1201833222D-01
      0.1462704938D+02  0.8300542179D-01
      0.4450122346D+01  0.3199174393D+00
      0.1527579965D+01  0.7071554292D+00
 P   1 1.00       0.000000000000
      0.5293511794D+00  0.1000000000D+01
 P   1 1.00       0.000000000000
      0.1747842127D+00  0.1000000000D+01
 D   1 1.00       0.000000000000
      0.2314000000D+01  0.1000000000D+01
 D   1 1.00       0.000000000000
      0.6450000000D+00  0.1000000000D+01
 F   1 1.00       0.000000000000
      0.1428000000D+01  0.1000000000D+01
 ****
      7 0
 S   3 1.00       0.000000000000
      0.3406134100D+02  0.2543930721D-01
      0.5123574600D+01  0.1900859489D+00
      0.1164662600D+01  0.8524411301D+00
 S   1 1.00       0.000000000000
      0.3272304100D+00  0.1000000000D+01
 S   1 1.00       0.000000000000
      0.1030724100D+00  0.1000000000D+01
 P   1 1.00       0.000000000000
      0.8000000000D+00  0.1000000000D+01
 ****
      8 0
 S   6 1.00       0.000000000000
      0.2703238263D+05  0.5722733521D-03
      0.4052387139D+04  0.4435323349D-02
      0.9223272271D+03  0.2302010771D-01
      0.2612407099D+03  0.9282249067D-01
      0.8535464135D+02  0.2937850001D+00
      0.3103503524D+02  0.6740160450D+00
 S   2 1.00       0.000000000000
      0.1226086073D+02  0.6383993703D+00
      0.4998707601D+01  0.3953458713D+00
 S   1 1.00       0.000000000000
      0.1170310816D+01  0.1000000000D+01
 S   1 1.00       0.000000000000
      0.4647474099D+00  0.1000000000D+01
 S   1 1.00       0.000000000000
      0.1850453636D+00  0.1000000000D+01
 P   4 1.00       0.000000000000
      0.6327495480D+02  0.1201833222D-01
      0.1462704938D+02  0.8300542179D-01
      0.4450122346D+01  0.3199174393D+00
      0.1527579965D+01  0.7071554292D+00
 P   1 1.00       0.000000000000
      0.5293511794D+00  0.1000000000D+01
 P   1 1.00       0.000000000000
      0.1747842127D+00  0.1000000000D+01
 D   1 1.00       0.000000000000
      0.2314000000D+01  0.1000000000D+01
 D   1 1.00       0.000000000000
      0.6450000000D+00  0.1000000000D+01
 F   1 1.00       0.000000000000
      0.1428000000D+01  0.1000000000D+01
 ****
      9 0
 S   3 1.00       0.000000000000
      0.3406134100D+02  0.2543930721D-01
      0.5123574600D+01  0.1900859489D+00
      0.1164662600D+01  0.8524411301D+00
 S   1 1.00       0.000000000000
      0.3272304100D+00  0.1000000000D+01
 S   1 1.00       0.000000000000
      0.1030724100D+00  0.1000000000D+01
 P   1 1.00       0.000000000000
      0.8000000000D+00  0.1000000000D+01
 ****
     10 0
 S   6 1.00       0.000000000000
      0.2703238263D+05  0.5722733521D-03
      0.4052387139D+04  0.4435323349D-02
      0.9223272271D+03  0.2302010771D-01
      0.2612407099D+03  0.9282249067D-01
      0.8535464135D+02  0.2937850001D+00
      0.3103503524D+02  0.6740160450D+00
 S   2 1.00       0.000000000000
      0.1226086073D+02  0.6383993703D+00
      0.4998707601D+01  0.3953458713D+00
 S   1 1.00       0.000000000000
      0.1170310816D+01  0.1000000000D+01
 S   1 1.00       0.000000000000
      0.4647474099D+00  0.1000000000D+01
 S   1 1.00       0.000000000000
      0.1850453636D+00  0.1000000000D+01
 P   4 1.00       0.000000000000
      0.6327495480D+02  0.1201833222D-01
      0.1462704938D+02  0.8300542179D-01
      0.4450122346D+01  0.3199174393D+00
      0.1527579965D+01  0.7071554292D+00
 P   1 1.00       0.000000000000
      0.5293511794D+00  0.1000000000D+01
 P   1 1.00       0.000000000000
      0.1747842127D+00  0.1000000000D+01
 D   1 1.00       0.000000000000
      0.2314000000D+01  0.1000000000D+01
 D   1 1.00       0.000000000000
      0.6450000000D+00  0.1000000000D+01
 F   1 1.00       0.000000000000
      0.1428000000D+01  0.1000000000D+01
 ****
     11 0
 S   6 1.00       0.000000000000
      0.2703238263D+05  0.5722733521D-03
      0.4052387139D+04  0.4435323349D-02
      0.9223272271D+03  0.2302010771D-01
      0.2612407099D+03  0.9282249067D-01
      0.8535464135D+02  0.2937850001D+00
      0.3103503524D+02  0.6740160450D+00
 S   2 1.00       0.000000000000
      0.1226086073D+02  0.6383993703D+00
      0.4998707601D+01  0.3953458713D+00
 S   1 1.00       0.000000000000
      0.1170310816D+01  0.1000000000D+01
 S   1 1.00       0.000000000000
      0.4647474099D+00  0.1000000000D+01
 S   1 1.00       0.000000000000
      0.1850453636D+00  0.1000000000D+01
 P   4 1.00       0.000000000000
      0.6327495480D+02  0.1201833222D-01
      0.1462704938D+02  0.8300542179D-01
      0.4450122346D+01  0.3199174393D+00
      0.1527579965D+01  0.7071554292D+00
 P   1 1.00       0.000000000000
      0.5293511794D+00  0.1000000000D+01
 P   1 1.00       0.000000000000
      0.1747842127D+00  0.1000000000D+01
 D   1 1.00       0.000000000000
      0.2314000000D+01  0.1000000000D+01
 D   1 1.00       0.000000000000
      0.6450000000D+00  0.1000000000D+01
 F   1 1.00       0.000000000000
      0.1428000000D+01  0.1000000000D+01
 ****
     12 0
 S   6 1.00       0.000000000000
      0.1357534968D+05  0.6064550360D-03
      0.2035233368D+04  0.4697908888D-02
      0.4632256236D+03  0.2433247765D-01
      0.1312001960D+03  0.9739996831D-01
      0.4285301589D+02  0.3019558425D+00
      0.1558418577D+02  0.6623360914D+00
 S   2 1.00       0.000000000000
      0.6206713851D+01  0.6559530854D+00
      0.2576489653D+01  0.3758563329D+00
 S   1 1.00       0.000000000000
      0.5769633942D+00  0.1000000000D+01
 S   1 1.00       0.000000000000
      0.2297283136D+00  0.1000000000D+01
 S   1 1.00       0.000000000000
      0.9516444003D-01  0.1000000000D+01
 P   4 1.00       0.000000000000
      0.3469723224D+02  0.1132722000D-01
      0.7958262283D+01  0.7616965920D-01
      0.2378082688D+01  0.3019225220D+00
      0.8143320818D+00  0.7278502735D+00
 P   1 1.00       0.000000000000
      0.2888754725D+00  0.1000000000D+01
 P   1 1.00       0.000000000000
      0.1005682367D+00  0.1000000000D+01
 D   1 1.00       0.000000000000
      0.1097000000D+01  0.1000000000D+01
 D   1 1.00       0.000000000000
      0.3180000000D+00  0.1000000000D+01
 F   1 1.00       0.000000000000
      0.7610000000D+00  0.1000000000D+01
 ****
     13 0
 S   6 1.00       0.000000000000
      0.1357534968D+05  0.6064550360D-03
      0.2035233368D+04  0.4697908888D-02
      0.4632256236D+03  0.2433247765D-01
      0.1312001960D+03  0.9739996831D-01
      0.4285301589D+02  0.3019558425D+00
      0.1558418577D+02  0.6623360914D+00
 S   2 1.00       0.000000000000
      0.6206713851D+01  0.6559530854D+00
      0.2576489653D+01  0.3758563329D+00
 S   1 1.00       0.000000000000
      0.5769633942D+00  0.1000000000D+01
 S   1 1.00       0.000000000000
      0.2297283136D+00  0.1000000000D+01
 S   1 1.00       0.000000000000
      0.9516444003D-01  0.1000000000D+01
 P   4 1.00       0.000000000000
      0.3469723224D+02  0.1132722000D-01
      0.7958262283D+01  0.7616965920D-01
      0.2378082688D+01  0.3019225220D+00
      0.8143320818D+00  0.7278502735D+00
 P   1 1.00       0.000000000000
      0.2888754725D+00  0.1000000000D+01
 P   1 1.00       0.000000000000
      0.1005682367D+00  0.1000000000D+01
 D   1 1.00       0.000000000000
      0.1097000000D+01  0.1000000000D+01
 D   1 1.00       0.000000000000
      0.3180000000D+00  0.1000000000D+01
 F   1 1.00       0.000000000000
      0.7610000000D+00  0.1000000000D+01
 ****
     14 0
 S   6 1.00       0.000000000000
      0.2703238263D+05  0.5722733521D-03
      0.4052387139D+04  0.4435323349D-02
      0.9223272271D+03  0.2302010771D-01
      0.2612407099D+03  0.9282249067D-01
      0.8535464135D+02  0.2937850001D+00
      0.3103503524D+02  0.6740160450D+00
 S   2 1.00       0.000000000000
      0.1226086073D+02  0.6383993703D+00
      0.4998707601D+01  0.3953458713D+00
 S   1 1.00       0.000000000000
      0.1170310816D+01  0.1000000000D+01
 S   1 1.00       0.000000000000
      0.4647474099D+00  0.1000000000D+01
 S   1 1.00       0.000000000000
      0.1850453636D+00  0.1000000000D+01
 P   4 1.00       0.000000000000
      0.6327495480D+02  0.1201833222D-01
      0.1462704938D+02  0.8300542179D-01
      0.4450122346D+01  0.3199174393D+00
      0.1527579965D+01  0.7071554292D+00
 P   1 1.00       0.000000000000
      0.5293511794D+00  0.1000000000D+01
 P   1 1.00       0.000000000000
      0.1747842127D+00  0.1000000000D+01
 D   1 1.00       0.000000000000
      0.2314000000D+01  0.1000000000D+01
 D   1 1.00       0.000000000000
      0.6450000000D+00  0.1000000000D+01
 F   1 1.00       0.000000000000
      0.1428000000D+01  0.1000000000D+01
 ****
     15 0
 S   6 1.00       0.000000000000
      0.2703238263D+05  0.5722733521D-03
      0.4052387139D+04  0.4435323349D-02
      0.9223272271D+03  0.2302010771D-01
      0.2612407099D+03  0.9282249067D-01
      0.8535464135D+02  0.2937850001D+00
      0.3103503524D+02  0.6740160450D+00
 S   2 1.00       0.000000000000
      0.1226086073D+02  0.6383993703D+00
      0.4998707601D+01  0.3953458713D+00
 S   1 1.00       0.000000000000
      0.1170310816D+01  0.1000000000D+01
 S   1 1.00       0.000000000000
      0.4647474099D+00  0.1000000000D+01
 S   1 1.00       0.000000000000
      0.1850453636D+00  0.1000000000D+01
 P   4 1.00       0.000000000000
      0.6327495480D+02  0.1201833222D-01
      0.1462704938D+02  0.8300542179D-01
      0.4450122346D+01  0.3199174393D+00
      0.1527579965D+01  0.7071554292D+00
 P   1 1.00       0.000000000000
      0.5293511794D+00  0.1000000000D+01
 P   1 1.00       0.000000000000
      0.1747842127D+00  0.1000000000D+01
 D   1 1.00       0.000000000000
      0.2314000000D+01  0.1000000000D+01
 D   1 1.00       0.000000000000
      0.6450000000D+00  0.1000000000D+01
 F   1 1.00       0.000000000000
      0.1428000000D+01  0.1000000000D+01
 ****

 AO basis set (Overlap normalization):
 Atom Pa1      Shell     1 S   3     bf    1 -     1          1.224570905190         -0.001802825669          0.006946987607
      0.1204737600D+05  0.2857094961D-01
      0.1811684100D+04  0.2270769386D+00
      0.3477010400D+03  0.8325326273D+00
 Atom Pa1      Shell     2 S   3     bf    2 -     2          1.224570905190         -0.001802825669          0.006946987607
      0.5750737600D+02  0.9569327984D-01
      0.3350260100D+02 -0.4399944619D+00
      0.1955445100D+02  0.1335352847D+01
 Atom Pa1      Shell     3 S   1     bf    3 -     3          1.224570905190         -0.001802825669          0.006946987607
      0.9867801000D+02  0.1000000000D+01
 Atom Pa1      Shell     4 S   1     bf    4 -     4          1.224570905190         -0.001802825669          0.006946987607
      0.9716421000D+01  0.1000000000D+01
 Atom Pa1      Shell     5 S   1     bf    5 -     5          1.224570905190         -0.001802825669          0.006946987607
      0.2692096000D+01  0.1000000000D+01
 Atom Pa1      Shell     6 S   1     bf    6 -     6          1.224570905190         -0.001802825669          0.006946987607
      0.1453847000D+01  0.1000000000D+01
 Atom Pa1      Shell     7 S   1     bf    7 -     7          1.224570905190         -0.001802825669          0.006946987607
      0.5743520000D+00  0.1000000000D+01
 Atom Pa1      Shell     8 S   1     bf    8 -     8          1.224570905190         -0.001802825669          0.006946987607
      0.2634680000D+00  0.1000000000D+01
 Atom Pa1      Shell     9 S   1     bf    9 -     9          1.224570905190         -0.001802825669          0.006946987607
      0.5655700000D-01  0.1000000000D+01
 Atom Pa1      Shell    10 S   1     bf   10 -    10          1.224570905190         -0.001802825669          0.006946987607
      0.2316900000D-01  0.1000000000D+01
 Atom Pa1      Shell    11 P   5     bf   11 -    13          1.224570905190         -0.001802825669          0.006946987607
      0.2903367600D+04  0.2594222647D-02
      0.6448635600D+03  0.1519473264D-01
      0.2202589600D+03  0.9272492945D-01
      0.8027640100D+02  0.1821144298D+00
      0.2408021100D+02  0.8294100404D+00
 Atom Pa1      Shell    12 P   1     bf   14 -    16          1.224570905190         -0.001802825669          0.006946987607
      0.1407758000D+02  0.1000000000D+01
 Atom Pa1      Shell    13 P   1     bf   17 -    19          1.224570905190         -0.001802825669          0.006946987607
      0.8265846000D+01  0.1000000000D+01
 Atom Pa1      Shell    14 P   1     bf   20 -    22          1.224570905190         -0.001802825669          0.006946987607
      0.3594800000D+01  0.1000000000D+01
 Atom Pa1      Shell    15 P   1     bf   23 -    25          1.224570905190         -0.001802825669          0.006946987607
      0.1753111000D+01  0.1000000000D+01
 Atom Pa1      Shell    16 P   1     bf   26 -    28          1.224570905190         -0.001802825669          0.006946987607
      0.6577670000D+00  0.1000000000D+01
 Atom Pa1      Shell    17 P   1     bf   29 -    31          1.224570905190         -0.001802825669          0.006946987607
      0.2846390000D+00  0.1000000000D+01
 Atom Pa1      Shell    18 P   1     bf   32 -    34          1.224570905190         -0.001802825669          0.006946987607
      0.1005430000D+00  0.1000000000D+01
 Atom Pa1      Shell    19 P   1     bf   35 -    37          1.224570905190         -0.001802825669          0.006946987607
      0.3019000000D-01  0.1000000000D+01
 Atom Pa1      Shell    20 D   6     bf   38 -    42          1.224570905190         -0.001802825669          0.006946987607
      0.4481499100D+03  0.6556927566D-04
      0.1544614500D+03  0.5749921096D-03
      0.6092537700D+02  0.2279793277D-02
      0.1703209100D+02  0.6467904664D-01
      0.1001887700D+02 -0.2666929411D+00
      0.3409193000D+01  0.1128376621D+01
 Atom Pa1      Shell    21 D   1     bf   43 -    47          1.224570905190         -0.001802825669          0.006946987607
      0.1670213000D+01  0.1000000000D+01
 Atom Pa1      Shell    22 D   1     bf   48 -    52          1.224570905190         -0.001802825669          0.006946987607
      0.7410950000D+00  0.1000000000D+01
 Atom Pa1      Shell    23 D   1     bf   53 -    57          1.224570905190         -0.001802825669          0.006946987607
      0.2613930000D+00  0.1000000000D+01
 Atom Pa1      Shell    24 D   1     bf   58 -    62          1.224570905190         -0.001802825669          0.006946987607
      0.8281100000D-01  0.1000000000D+01
 Atom Pa1      Shell    25 F   5     bf   63 -    69          1.224570905190         -0.001802825669          0.006946987607
      0.8799132700D+02  0.4766318191D-03
      0.2834019500D+02  0.4899184583D-02
      0.1244099400D+02  0.9669720755D-02
      0.3957296000D+01  0.3310292343D+00
      0.1875944000D+01  0.7275531640D+00
 Atom Pa1      Shell    26 F   1     bf   70 -    76          1.224570905190         -0.001802825669          0.006946987607
      0.8275890000D+00  0.1000000000D+01
 Atom Pa1      Shell    27 F   1     bf   77 -    83          1.224570905190         -0.001802825669          0.006946987607
      0.3327480000D+00  0.1000000000D+01
 Atom Pa1      Shell    28 F   1     bf   84 -    90          1.224570905190         -0.001802825669          0.006946987607
      0.1146850000D+00  0.1000000000D+01
 Atom Pa1      Shell    29 G   1     bf   91 -    99          1.224570905190         -0.001802825669          0.006946987607
      0.3500000000D+00  0.1000000000D+01
 Atom O2       Shell    30 S   6     bf  100 -   100          0.995600838496         -0.169686429535         -4.001041296549
      0.2703238263D+05  0.5722733521D-03
      0.4052387139D+04  0.4435323349D-02
      0.9223272271D+03  0.2302010771D-01
      0.2612407099D+03  0.9282249067D-01
      0.8535464135D+02  0.2937850001D+00
      0.3103503524D+02  0.6740160450D+00
 Atom O2       Shell    31 S   2     bf  101 -   101          0.995600838496         -0.169686429535         -4.001041296549
      0.1226086073D+02  0.6383993703D+00
      0.4998707601D+01  0.3953458713D+00
 Atom O2       Shell    32 S   1     bf  102 -   102          0.995600838496         -0.169686429535         -4.001041296549
      0.1170310816D+01  0.1000000000D+01
 Atom O2       Shell    33 S   1     bf  103 -   103          0.995600838496         -0.169686429535         -4.001041296549
      0.4647474099D+00  0.1000000000D+01
 Atom O2       Shell    34 S   1     bf  104 -   104          0.995600838496         -0.169686429535         -4.001041296549
      0.1850453636D+00  0.1000000000D+01
 Atom O2       Shell    35 P   4     bf  105 -   107          0.995600838496         -0.169686429535         -4.001041296549
      0.6327495480D+02  0.1201833222D-01
      0.1462704938D+02  0.8300542179D-01
      0.4450122346D+01  0.3199174393D+00
      0.1527579965D+01  0.7071554292D+00
 Atom O2       Shell    36 P   1     bf  108 -   110          0.995600838496         -0.169686429535         -4.001041296549
      0.5293511794D+00  0.1000000000D+01
 Atom O2       Shell    37 P   1     bf  111 -   113          0.995600838496         -0.169686429535         -4.001041296549
      0.1747842127D+00  0.1000000000D+01
 Atom O2       Shell    38 D   1     bf  114 -   118          0.995600838496         -0.169686429535         -4.001041296549
      0.2314000000D+01  0.1000000000D+01
 Atom O2       Shell    39 D   1     bf  119 -   123          0.995600838496         -0.169686429535         -4.001041296549
      0.6450000000D+00  0.1000000000D+01
 Atom O2       Shell    40 F   1     bf  124 -   130          0.995600838496         -0.169686429535         -4.001041296549
      0.1428000000D+01  0.1000000000D+01
 Atom H3       Shell    41 S   3     bf  131 -   131          1.833489615609          0.638145101459         -5.403977709874
      0.3406134100D+02  0.2543930721D-01
      0.5123574600D+01  0.1900859489D+00
      0.1164662600D+01  0.8524411301D+00
 Atom H3       Shell    42 S   1     bf  132 -   132          1.833489615609          0.638145101459         -5.403977709874
      0.3272304100D+00  0.1000000000D+01
 Atom H3       Shell    43 S   1     bf  133 -   133          1.833489615609          0.638145101459         -5.403977709874
      0.1030724100D+00  0.1000000000D+01
 Atom H3       Shell    44 P   1     bf  134 -   136          1.833489615609          0.638145101459         -5.403977709874
      0.8000000000D+00  0.1000000000D+01
 Atom O4       Shell    45 S   6     bf  137 -   137          3.805098086476         -3.117741834141          0.093487404056
      0.2703238263D+05  0.5722733521D-03
      0.4052387139D+04  0.4435323349D-02
      0.9223272271D+03  0.2302010771D-01
      0.2612407099D+03  0.9282249067D-01
      0.8535464135D+02  0.2937850001D+00
      0.3103503524D+02  0.6740160450D+00
 Atom O4       Shell    46 S   2     bf  138 -   138          3.805098086476         -3.117741834141          0.093487404056
      0.1226086073D+02  0.6383993703D+00
      0.4998707601D+01  0.3953458713D+00
 Atom O4       Shell    47 S   1     bf  139 -   139          3.805098086476         -3.117741834141          0.093487404056
      0.1170310816D+01  0.1000000000D+01
 Atom O4       Shell    48 S   1     bf  140 -   140          3.805098086476         -3.117741834141          0.093487404056
      0.4647474099D+00  0.1000000000D+01
 Atom O4       Shell    49 S   1     bf  141 -   141          3.805098086476         -3.117741834141          0.093487404056
      0.1850453636D+00  0.1000000000D+01
 Atom O4       Shell    50 P   4     bf  142 -   144          3.805098086476         -3.117741834141          0.093487404056
      0.6327495480D+02  0.1201833222D-01
      0.1462704938D+02  0.8300542179D-01
      0.4450122346D+01  0.3199174393D+00
      0.1527579965D+01  0.7071554292D+00
 Atom O4       Shell    51 P   1     bf  145 -   147          3.805098086476         -3.117741834141          0.093487404056
      0.5293511794D+00  0.1000000000D+01
 Atom O4       Shell    52 P   1     bf  148 -   150          3.805098086476         -3.117741834141          0.093487404056
      0.1747842127D+00  0.1000000000D+01
 Atom O4       Shell    53 D   1     bf  151 -   155          3.805098086476         -3.117741834141          0.093487404056
      0.2314000000D+01  0.1000000000D+01
 Atom O4       Shell    54 D   1     bf  156 -   160          3.805098086476         -3.117741834141          0.093487404056
      0.6450000000D+00  0.1000000000D+01
 Atom O4       Shell    55 F   1     bf  161 -   167          3.805098086476         -3.117741834141          0.093487404056
      0.1428000000D+01  0.1000000000D+01
 Atom H5       Shell    56 S   3     bf  168 -   168          4.687168464108         -4.099774630990         -1.161444213138
      0.3406134100D+02  0.2543930721D-01
      0.5123574600D+01  0.1900859489D+00
      0.1164662600D+01  0.8524411301D+00
 Atom H5       Shell    57 S   1     bf  169 -   169          4.687168464108         -4.099774630990         -1.161444213138
      0.3272304100D+00  0.1000000000D+01
 Atom H5       Shell    58 S   1     bf  170 -   170          4.687168464108         -4.099774630990         -1.161444213138
      0.1030724100D+00  0.1000000000D+01
 Atom H5       Shell    59 P   1     bf  171 -   173          4.687168464108         -4.099774630990         -1.161444213138
      0.8000000000D+00  0.1000000000D+01
 Atom O6       Shell    60 S   6     bf  174 -   174          3.727821724862          3.152047349673         -0.280660211715
      0.2703238263D+05  0.5722733521D-03
      0.4052387139D+04  0.4435323349D-02
      0.9223272271D+03  0.2302010771D-01
      0.2612407099D+03  0.9282249067D-01
      0.8535464135D+02  0.2937850001D+00
      0.3103503524D+02  0.6740160450D+00
 Atom O6       Shell    61 S   2     bf  175 -   175          3.727821724862          3.152047349673         -0.280660211715
      0.1226086073D+02  0.6383993703D+00
      0.4998707601D+01  0.3953458713D+00
 Atom O6       Shell    62 S   1     bf  176 -   176          3.727821724862          3.152047349673         -0.280660211715
      0.1170310816D+01  0.1000000000D+01
 Atom O6       Shell    63 S   1     bf  177 -   177          3.727821724862          3.152047349673         -0.280660211715
      0.4647474099D+00  0.1000000000D+01
 Atom O6       Shell    64 S   1     bf  178 -   178          3.727821724862          3.152047349673         -0.280660211715
      0.1850453636D+00  0.1000000000D+01
 Atom O6       Shell    65 P   4     bf  179 -   181          3.727821724862          3.152047349673         -0.280660211715
      0.6327495480D+02  0.1201833222D-01
      0.1462704938D+02  0.8300542179D-01
      0.4450122346D+01  0.3199174393D+00
      0.1527579965D+01  0.7071554292D+00
 Atom O6       Shell    66 P   1     bf  182 -   184          3.727821724862          3.152047349673         -0.280660211715
      0.5293511794D+00  0.1000000000D+01
 Atom O6       Shell    67 P   1     bf  185 -   187          3.727821724862          3.152047349673         -0.280660211715
      0.1747842127D+00  0.1000000000D+01
 Atom O6       Shell    68 D   1     bf  188 -   192          3.727821724862          3.152047349673         -0.280660211715
      0.2314000000D+01  0.1000000000D+01
 Atom O6       Shell    69 D   1     bf  193 -   197          3.727821724862          3.152047349673         -0.280660211715
      0.6450000000D+00  0.1000000000D+01
 Atom O6       Shell    70 F   1     bf  198 -   204          3.727821724862          3.152047349673         -0.280660211715
      0.1428000000D+01  0.1000000000D+01
 Atom H7       Shell    71 S   3     bf  205 -   205          4.752691810998          4.202076770203          0.796404654457
      0.3406134100D+02  0.2543930721D-01
      0.5123574600D+01  0.1900859489D+00
      0.1164662600D+01  0.8524411301D+00
 Atom H7       Shell    72 S   1     bf  206 -   206          4.752691810998          4.202076770203          0.796404654457
      0.3272304100D+00  0.1000000000D+01
 Atom H7       Shell    73 S   1     bf  207 -   207          4.752691810998          4.202076770203          0.796404654457
      0.1030724100D+00  0.1000000000D+01
 Atom H7       Shell    74 P   1     bf  208 -   210          4.752691810998          4.202076770203          0.796404654457
      0.8000000000D+00  0.1000000000D+01
 Atom O8       Shell    75 S   6     bf  211 -   211          1.215689292375          0.142269986817          4.020365454806
      0.2703238263D+05  0.5722733521D-03
      0.4052387139D+04  0.4435323349D-02
      0.9223272271D+03  0.2302010771D-01
      0.2612407099D+03  0.9282249067D-01
      0.8535464135D+02  0.2937850001D+00
      0.3103503524D+02  0.6740160450D+00
 Atom O8       Shell    76 S   2     bf  212 -   212          1.215689292375          0.142269986817          4.020365454806
      0.1226086073D+02  0.6383993703D+00
      0.4998707601D+01  0.3953458713D+00
 Atom O8       Shell    77 S   1     bf  213 -   213          1.215689292375          0.142269986817          4.020365454806
      0.1170310816D+01  0.1000000000D+01
 Atom O8       Shell    78 S   1     bf  214 -   214          1.215689292375          0.142269986817          4.020365454806
      0.4647474099D+00  0.1000000000D+01
 Atom O8       Shell    79 S   1     bf  215 -   215          1.215689292375          0.142269986817          4.020365454806
      0.1850453636D+00  0.1000000000D+01
 Atom O8       Shell    80 P   4     bf  216 -   218          1.215689292375          0.142269986817          4.020365454806
      0.6327495480D+02  0.1201833222D-01
      0.1462704938D+02  0.8300542179D-01
      0.4450122346D+01  0.3199174393D+00
      0.1527579965D+01  0.7071554292D+00
 Atom O8       Shell    81 P   1     bf  219 -   221          1.215689292375          0.142269986817          4.020365454806
      0.5293511794D+00  0.1000000000D+01
 Atom O8       Shell    82 P   1     bf  222 -   224          1.215689292375          0.142269986817          4.020365454806
      0.1747842127D+00  0.1000000000D+01
 Atom O8       Shell    83 D   1     bf  225 -   229          1.215689292375          0.142269986817          4.020365454806
      0.2314000000D+01  0.1000000000D+01
 Atom O8       Shell    84 D   1     bf  230 -   234          1.215689292375          0.142269986817          4.020365454806
      0.6450000000D+00  0.1000000000D+01
 Atom O8       Shell    85 F   1     bf  235 -   241          1.215689292375          0.142269986817          4.020365454806
      0.1428000000D+01  0.1000000000D+01
 Atom H9       Shell    86 S   3     bf  242 -   242          2.237546856558         -0.548593365196          5.362583746971
      0.3406134100D+02  0.2543930721D-01
      0.5123574600D+01  0.1900859489D+00
      0.1164662600D+01  0.8524411301D+00
 Atom H9       Shell    87 S   1     bf  243 -   243          2.237546856558         -0.548593365196          5.362583746971
      0.3272304100D+00  0.1000000000D+01
 Atom H9       Shell    88 S   1     bf  244 -   244          2.237546856558         -0.548593365196          5.362583746971
      0.1030724100D+00  0.1000000000D+01
 Atom H9       Shell    89 P   1     bf  245 -   247          2.237546856558         -0.548593365196          5.362583746971
      0.8000000000D+00  0.1000000000D+01
 Atom O10      Shell    90 S   6     bf  248 -   248         -2.460148394144         -2.452200868889          0.094847262338
      0.2703238263D+05  0.5722733521D-03
      0.4052387139D+04  0.4435323349D-02
      0.9223272271D+03  0.2302010771D-01
      0.2612407099D+03  0.9282249067D-01
      0.8535464135D+02  0.2937850001D+00
      0.3103503524D+02  0.6740160450D+00
 Atom O10      Shell    91 S   2     bf  249 -   249         -2.460148394144         -2.452200868889          0.094847262338
      0.1226086073D+02  0.6383993703D+00
      0.4998707601D+01  0.3953458713D+00
 Atom O10      Shell    92 S   1     bf  250 -   250         -2.460148394144         -2.452200868889          0.094847262338
      0.1170310816D+01  0.1000000000D+01
 Atom O10      Shell    93 S   1     bf  251 -   251         -2.460148394144         -2.452200868889          0.094847262338
      0.4647474099D+00  0.1000000000D+01
 Atom O10      Shell    94 S   1     bf  252 -   252         -2.460148394144         -2.452200868889          0.094847262338
      0.1850453636D+00  0.1000000000D+01
 Atom O10      Shell    95 P   4     bf  253 -   255         -2.460148394144         -2.452200868889          0.094847262338
      0.6327495480D+02  0.1201833222D-01
      0.1462704938D+02  0.8300542179D-01
      0.4450122346D+01  0.3199174393D+00
      0.1527579965D+01  0.7071554292D+00
 Atom O10      Shell    96 P   1     bf  256 -   258         -2.460148394144         -2.452200868889          0.094847262338
      0.5293511794D+00  0.1000000000D+01
 Atom O10      Shell    97 P   1     bf  259 -   261         -2.460148394144         -2.452200868889          0.094847262338
      0.1747842127D+00  0.1000000000D+01
 Atom O10      Shell    98 D   1     bf  262 -   266         -2.460148394144         -2.452200868889          0.094847262338
      0.2314000000D+01  0.1000000000D+01
 Atom O10      Shell    99 D   1     bf  267 -   271         -2.460148394144         -2.452200868889          0.094847262338
      0.6450000000D+00  0.1000000000D+01
 Atom O10      Shell   100 F   1     bf  272 -   278         -2.460148394144         -2.452200868889          0.094847262338
      0.1428000000D+01  0.1000000000D+01
 Atom O11      Shell   101 S   6     bf  279 -   279         -2.462064370381          2.451357785555          0.022751776534
      0.2703238263D+05  0.5722733521D-03
      0.4052387139D+04  0.4435323349D-02
      0.9223272271D+03  0.2302010771D-01
      0.2612407099D+03  0.9282249067D-01
      0.8535464135D+02  0.2937850001D+00
      0.3103503524D+02  0.6740160450D+00
 Atom O11      Shell   102 S   2     bf  280 -   280         -2.462064370381          2.451357785555          0.022751776534
      0.1226086073D+02  0.6383993703D+00
      0.4998707601D+01  0.3953458713D+00
 Atom O11      Shell   103 S   1     bf  281 -   281         -2.462064370381          2.451357785555          0.022751776534
      0.1170310816D+01  0.1000000000D+01
 Atom O11      Shell   104 S   1     bf  282 -   282         -2.462064370381          2.451357785555          0.022751776534
      0.4647474099D+00  0.1000000000D+01
 Atom O11      Shell   105 S   1     bf  283 -   283         -2.462064370381          2.451357785555          0.022751776534
      0.1850453636D+00  0.1000000000D+01
 Atom O11      Shell   106 P   4     bf  284 -   286         -2.462064370381          2.451357785555          0.022751776534
      0.6327495480D+02  0.1201833222D-01
      0.1462704938D+02  0.8300542179D-01
      0.4450122346D+01  0.3199174393D+00
      0.1527579965D+01  0.7071554292D+00
 Atom O11      Shell   107 P   1     bf  287 -   289         -2.462064370381          2.451357785555          0.022751776534
      0.5293511794D+00  0.1000000000D+01
 Atom O11      Shell   108 P   1     bf  290 -   292         -2.462064370381          2.451357785555          0.022751776534
      0.1747842127D+00  0.1000000000D+01
 Atom O11      Shell   109 D   1     bf  293 -   297         -2.462064370381          2.451357785555          0.022751776534
      0.2314000000D+01  0.1000000000D+01
 Atom O11      Shell   110 D   1     bf  298 -   302         -2.462064370381          2.451357785555          0.022751776534
      0.6450000000D+00  0.1000000000D+01
 Atom O11      Shell   111 F   1     bf  303 -   309         -2.462064370381          2.451357785555          0.022751776534
      0.1428000000D+01  0.1000000000D+01
 Atom C12      Shell   112 S   6     bf  310 -   310         -4.707676703286         -1.484597096535          0.039160903318
      0.1357534968D+05  0.6064550360D-03
      0.2035233368D+04  0.4697908888D-02
      0.4632256236D+03  0.2433247765D-01
      0.1312001960D+03  0.9739996831D-01
      0.4285301589D+02  0.3019558425D+00
      0.1558418577D+02  0.6623360914D+00
 Atom C12      Shell   113 S   2     bf  311 -   311         -4.707676703286         -1.484597096535          0.039160903318
      0.6206713851D+01  0.6559530854D+00
      0.2576489653D+01  0.3758563329D+00
 Atom C12      Shell   114 S   1     bf  312 -   312         -4.707676703286         -1.484597096535          0.039160903318
      0.5769633942D+00  0.1000000000D+01
 Atom C12      Shell   115 S   1     bf  313 -   313         -4.707676703286         -1.484597096535          0.039160903318
      0.2297283136D+00  0.1000000000D+01
 Atom C12      Shell   116 S   1     bf  314 -   314         -4.707676703286         -1.484597096535          0.039160903318
      0.9516444003D-01  0.1000000000D+01
 Atom C12      Shell   117 P   4     bf  315 -   317         -4.707676703286         -1.484597096535          0.039160903318
      0.3469723224D+02  0.1132722000D-01
      0.7958262283D+01  0.7616965920D-01
      0.2378082688D+01  0.3019225220D+00
      0.8143320818D+00  0.7278502735D+00
 Atom C12      Shell   118 P   1     bf  318 -   320         -4.707676703286         -1.484597096535          0.039160903318
      0.2888754725D+00  0.1000000000D+01
 Atom C12      Shell   119 P   1     bf  321 -   323         -4.707676703286         -1.484597096535          0.039160903318
      0.1005682367D+00  0.1000000000D+01
 Atom C12      Shell   120 D   1     bf  324 -   328         -4.707676703286         -1.484597096535          0.039160903318
      0.1097000000D+01  0.1000000000D+01
 Atom C12      Shell   121 D   1     bf  329 -   333         -4.707676703286         -1.484597096535          0.039160903318
      0.3180000000D+00  0.1000000000D+01
 Atom C12      Shell   122 F   1     bf  334 -   340         -4.707676703286         -1.484597096535          0.039160903318
      0.7610000000D+00  0.1000000000D+01
 Atom C13      Shell   123 S   6     bf  341 -   341         -4.708776400867          1.480531287439          0.009536981669
      0.1357534968D+05  0.6064550360D-03
      0.2035233368D+04  0.4697908888D-02
      0.4632256236D+03  0.2433247765D-01
      0.1312001960D+03  0.9739996831D-01
      0.4285301589D+02  0.3019558425D+00
      0.1558418577D+02  0.6623360914D+00
 Atom C13      Shell   124 S   2     bf  342 -   342         -4.708776400867          1.480531287439          0.009536981669
      0.6206713851D+01  0.6559530854D+00
      0.2576489653D+01  0.3758563329D+00
 Atom C13      Shell   125 S   1     bf  343 -   343         -4.708776400867          1.480531287439          0.009536981669
      0.5769633942D+00  0.1000000000D+01
 Atom C13      Shell   126 S   1     bf  344 -   344         -4.708776400867          1.480531287439          0.009536981669
      0.2297283136D+00  0.1000000000D+01
 Atom C13      Shell   127 S   1     bf  345 -   345         -4.708776400867          1.480531287439          0.009536981669
      0.9516444003D-01  0.1000000000D+01
 Atom C13      Shell   128 P   4     bf  346 -   348         -4.708776400867          1.480531287439          0.009536981669
      0.3469723224D+02  0.1132722000D-01
      0.7958262283D+01  0.7616965920D-01
      0.2378082688D+01  0.3019225220D+00
      0.8143320818D+00  0.7278502735D+00
 Atom C13      Shell   129 P   1     bf  349 -   351         -4.708776400867          1.480531287439          0.009536981669
      0.2888754725D+00  0.1000000000D+01
 Atom C13      Shell   130 P   1     bf  352 -   354         -4.708776400867          1.480531287439          0.009536981669
      0.1005682367D+00  0.1000000000D+01
 Atom C13      Shell   131 D   1     bf  355 -   359         -4.708776400867          1.480531287439          0.009536981669
      0.1097000000D+01  0.1000000000D+01
 Atom C13      Shell   132 D   1     bf  360 -   364         -4.708776400867          1.480531287439          0.009536981669
      0.3180000000D+00  0.1000000000D+01
 Atom C13      Shell   133 F   1     bf  365 -   371         -4.708776400867          1.480531287439          0.009536981669
      0.7610000000D+00  0.1000000000D+01
 Atom O14      Shell   134 S   6     bf  372 -   372         -6.687724595034         -2.666667550508          0.007693836211
      0.2703238263D+05  0.5722733521D-03
      0.4052387139D+04  0.4435323349D-02
      0.9223272271D+03  0.2302010771D-01
      0.2612407099D+03  0.9282249067D-01
      0.8535464135D+02  0.2937850001D+00
      0.3103503524D+02  0.6740160450D+00
 Atom O14      Shell   135 S   2     bf  373 -   373         -6.687724595034         -2.666667550508          0.007693836211
      0.1226086073D+02  0.6383993703D+00
      0.4998707601D+01  0.3953458713D+00
 Atom O14      Shell   136 S   1     bf  374 -   374         -6.687724595034         -2.666667550508          0.007693836211
      0.1170310816D+01  0.1000000000D+01
 Atom O14      Shell   137 S   1     bf  375 -   375         -6.687724595034         -2.666667550508          0.007693836211
      0.4647474099D+00  0.1000000000D+01
 Atom O14      Shell   138 S   1     bf  376 -   376         -6.687724595034         -2.666667550508          0.007693836211
      0.1850453636D+00  0.1000000000D+01
 Atom O14      Shell   139 P   4     bf  377 -   379         -6.687724595034         -2.666667550508          0.007693836211
      0.6327495480D+02  0.1201833222D-01
      0.1462704938D+02  0.8300542179D-01
      0.4450122346D+01  0.3199174393D+00
      0.1527579965D+01  0.7071554292D+00
 Atom O14      Shell   140 P   1     bf  380 -   382         -6.687724595034         -2.666667550508          0.007693836211
      0.5293511794D+00  0.1000000000D+01
 Atom O14      Shell   141 P   1     bf  383 -   385         -6.687724595034         -2.666667550508          0.007693836211
      0.1747842127D+00  0.1000000000D+01
 Atom O14      Shell   142 D   1     bf  386 -   390         -6.687724595034         -2.666667550508          0.007693836211
      0.2314000000D+01  0.1000000000D+01
 Atom O14      Shell   143 D   1     bf  391 -   395         -6.687724595034         -2.666667550508          0.007693836211
      0.6450000000D+00  0.1000000000D+01
 Atom O14      Shell   144 F   1     bf  396 -   402         -6.687724595034         -2.666667550508          0.007693836211
      0.1428000000D+01  0.1000000000D+01
 Atom O15      Shell   145 S   6     bf  403 -   403         -6.690288894483          2.660196325405         -0.022185433255
      0.2703238263D+05  0.5722733521D-03
      0.4052387139D+04  0.4435323349D-02
      0.9223272271D+03  0.2302010771D-01
      0.2612407099D+03  0.9282249067D-01
      0.8535464135D+02  0.2937850001D+00
      0.3103503524D+02  0.6740160450D+00
 Atom O15      Shell   146 S   2     bf  404 -   404         -6.690288894483          2.660196325405         -0.022185433255
      0.1226086073D+02  0.6383993703D+00
      0.4998707601D+01  0.3953458713D+00
 Atom O15      Shell   147 S   1     bf  405 -   405         -6.690288894483          2.660196325405         -0.022185433255
      0.1170310816D+01  0.1000000000D+01
 Atom O15      Shell   148 S   1     bf  406 -   406         -6.690288894483          2.660196325405         -0.022185433255
      0.4647474099D+00  0.1000000000D+01
 Atom O15      Shell   149 S   1     bf  407 -   407         -6.690288894483          2.660196325405         -0.022185433255
      0.1850453636D+00  0.1000000000D+01
 Atom O15      Shell   150 P   4     bf  408 -   410         -6.690288894483          2.660196325405         -0.022185433255
      0.6327495480D+02  0.1201833222D-01
      0.1462704938D+02  0.8300542179D-01
      0.4450122346D+01  0.3199174393D+00
      0.1527579965D+01  0.7071554292D+00
 Atom O15      Shell   151 P   1     bf  411 -   413         -6.690288894483          2.660196325405         -0.022185433255
      0.5293511794D+00  0.1000000000D+01
 Atom O15      Shell   152 P   1     bf  414 -   416         -6.690288894483          2.660196325405         -0.022185433255
      0.1747842127D+00  0.1000000000D+01
 Atom O15      Shell   153 D   1     bf  417 -   421         -6.690288894483          2.660196325405         -0.022185433255
      0.2314000000D+01  0.1000000000D+01
 Atom O15      Shell   154 D   1     bf  422 -   426         -6.690288894483          2.660196325405         -0.022185433255
      0.6450000000D+00  0.1000000000D+01
 Atom O15      Shell   155 F   1     bf  427 -   433         -6.690288894483          2.660196325405         -0.022185433255
      0.1428000000D+01  0.1000000000D+01
 Effective core potential in the form of general ECP input:
      1 0
 Pa1-ECP   5 60
 H component
  1
  2        1.0000000        0.00000000    0.00000000
 S-H projection
  1
  2       15.2691737      475.47573283    0.00000000
 P-H projection
  1
  2        9.9577370      207.66485962    0.00000000
 D-H projection
  1
  2        8.9431413      156.67411988    0.00000000
 F-H projection
  1
  2        7.0104666       67.98223685    0.00000000
 G-H projection
  1
  2       12.2010560      -57.63059989    0.00000000
 
 There are   506 symmetry adapted cartesian basis functions of A   symmetry.
 There are   433 symmetry adapted basis functions of A   symmetry.
   433 basis functions,   750 primitive gaussians,   506 cartesian basis functions
    56 alpha electrons       56 beta electrons
       nuclear repulsion energy      1001.5192426008 Hartrees.
 IExCor=  404 DFT=T Ex=B Corr=P86 ExCW=0 ScaHFX=  0.000000
 ScaDFX=  1.000000  1.000000  1.000000  1.000000 ScalE2=  1.000000  1.000000
 IRadAn=      5 IRanWt=     -1 IRanGd=            0 ICorTp=0 IEmpDi=  4
 NAtoms=   15 NActive=   15 NUniq=   15 SFac= 1.00D+00 NAtFMM=   60 NAOKFM=F Big=F
 Integral buffers will be    131072 words long.
 Raffenetti 2 integral format.
 Two-electron integral symmetry is turned on.
 Warning! Using old PCM defaults because the COSMOthermo output has been requested.
 These settings can be overridden by following keywords.
 ------------------------------------------------------------------------------
 Polarizable Continuum Model (PCM)
 =================================
 Model                : C-PCM.
 Atomic radii         : Klamt.
 XCosmo               : -1.000 (infinite dielectric limit)
 Polarization charges : Electronic and nuclear charges.
 Charge compensation  : Type 3 (Electronic density weighted correction).
 Solution method      : On-the-fly selection.
 Cavity type          : VdW (van der Waals Surface) (Alpha=1.000).
 Cavity algorithm     : GePol (No added spheres)
                        Default sphere list used, NSphG=   15.
                        Tesserae with average area of 0.200 Ang**2.
                        Smoothing algorithm: None.
                        Polarization charges: point-like.
                        Self-potential: constant (ISelfS= 1).
                        Self-field    : global E.n sum rule (ISelfD= 3).
 Solvent              : Water, Eps=  78.355300 Eps(inf)=   1.777849
 ------------------------------------------------------------------------------
 Spheres list:
 ISph  on   Nord     Re0    Alpha      Xe            Ye            Ze
    1  Pa      1    2.0000  1.170      0.648015     -0.000954      0.003676
    2   O      2    1.7200  1.000      0.526849     -0.089794     -2.117260
    3   H      3    1.3000  1.000      0.970241      0.337692     -2.859662
    4   O      4    1.7200  1.000      2.013571     -1.649838      0.049471
    5   H      5    1.3000  1.000      2.480343     -2.169507     -0.614610
    6   O      6    1.7200  1.000      1.972678      1.667992     -0.148519
    7   H      7    1.3000  1.000      2.515016      2.223643      0.421439
    8   O      8    1.7200  1.000      0.643315      0.075286      2.127486
    9   H      9    1.3000  1.000      1.184059     -0.290303      2.837757
   10   O     10    1.7200  1.000     -1.301854     -1.297649      0.050191
   11   O     11    1.7200  1.000     -1.302868      1.297203      0.012040
   12   C     12    2.0000  1.000     -2.491195     -0.785615      0.020723
   13   C     13    2.0000  1.000     -2.491777      0.783463      0.005047
   14   O     14    1.7200  1.000     -3.538991     -1.411140      0.004071
   15   O     15    1.7200  1.000     -3.540348      1.407715     -0.011740
 ------------------------------------------------------------------------------
 GePol: Number of generator spheres                  =      15
 GePol: Total number of spheres                      =      15
 GePol: Number of exposed spheres                    =      15 (100.00%)
 GePol: Number of tesserae                           =    1373
 GePol: Average area of tesserae                     =       0.15 Ang**2
 GePol: Minimum area of tessera                      =   0.10D-02 Ang**2
 GePol: Maximum area of tessera                      =    0.35817 Ang**2
 GePol: Number of small tesserae                     =       7
 GePol: Fraction of small tesserae (<1% of avg)      =       0.51%
 GePol: Total count of vertices                      =    4580
 GePol: Maximum number of vertices in a tessera      =       6
 GePol: Cavity surface area                          =    204.018 Ang**2
 GePol: Cavity volume                                =    178.449 Ang**3
 DisRep: Neglecting contributions from atom    1 of solute.
 Leave Link  301 at Mon Jun 26 13:51:54 2023, MaxMem=  2147483648 cpu:               1.1 elap:               0.2
 (Enter /home/pcmt/gaussian/g16.C.01/g16/l302.exe)
 NPDir=0 NMtPBC=     1 NCelOv=     1 NCel=       1 NClECP=     1 NCelD=      1
         NCelK=      1 NCelE2=     1 NClLst=     1 CellRange=     0.0.
 One-electron integrals computed using PRISM.
 One-electron integral symmetry used in STVInt
   1 Symmetry operations used in ECPInt.
 ECPInt:  NShTT=   12090 NPrTT=   36858 LenC2=   11119 LenP2D=   24845.
 LDataN:  DoStor=T MaxTD1= 9 Len=  602
 NBasis=   433 RedAO= T EigKep=  4.78D-04  NBF=   433
 NBsUse=   433 1.00D-06 EigRej= -1.00D+00 NBFU=   433
 Precomputing XC quadrature grid using
 IXCGrd= 4 IRadAn=           5 IRanWt=          -1 IRanGd=           0 AccXCQ= 0.00D+00.
 Defaulting to unpruned grid for atomic number  91.
 Generated NRdTot=       0 NPtTot=           0 NUsed=           0 NTot=          32
 NSgBfM=   497   497   497   497   497 MxSgAt=    15 MxSgA2=    15.
 Leave Link  302 at Mon Jun 26 13:51:56 2023, MaxMem=  2147483648 cpu:               8.7 elap:               1.2
 (Enter /home/pcmt/gaussian/g16.C.01/g16/l303.exe)
 DipDrv:  MaxL=1.
 Leave Link  303 at Mon Jun 26 13:51:56 2023, MaxMem=  2147483648 cpu:               0.7 elap:               0.1
 (Enter /home/pcmt/gaussian/g16.C.01/g16/l401.exe)
 ExpMin= 2.32D-02 ExpMax= 2.70D+04 ExpMxC= 1.20D+04 IAcc=3 IRadAn=         5 AccDes= 0.00D+00
 Harris functional with IExCor=  404 and IRadAn=       5 diagonalized for initial guess.
 HarFok:  IExCor=  404 AccDes= 0.00D+00 IRadAn=         5 IDoV= 1 UseB2=F ITyADJ=14
 ICtDFT=  3500011 ScaDFX=  1.000000  1.000000  1.000000  1.000000
 Defaulting to unpruned grid for atomic number  91.
 FoFCou: FMM=F IPFlag=           0 FMFlag=      100000 FMFlg1=           0
         NFxFlg=           0 DoJE=T BraDBF=F KetDBF=T FulRan=T
         wScrn=  0.000000 ICntrl=       500 IOpCl=  0 I1Cent=   200000004 NGrid=           0
         NMat0=    1 NMatS0=      1 NMatT0=    0 NMatD0=    1 NMtDS0=    0 NMtDT0=    0
 Petite list used in FoFCou.
 Harris En= -1124.42099892644    
 JPrj=0 DoOrth=F DoCkMO=F.
 Leave Link  401 at Mon Jun 26 13:52:00 2023, MaxMem=  2147483648 cpu:              32.8 elap:               4.1
 (Enter /home/pcmt/gaussian/g16.C.01/g16/l502.exe)
 Integral symmetry usage will be decided dynamically.
 Closed shell SCF:
 Using DIIS extrapolation, IDIIS=  1040.
 NGot=  2147483648 LenX=  2146962868 LenY=  2146706326
 Requested convergence on RMS density matrix=1.00D-08 within 100 cycles.
 Requested convergence on MAX density matrix=1.00D-06.
 Requested convergence on             energy=1.00D-06.
 No special actions if energy rises.
 Fock matrices will be formed incrementally for  20 cycles.

 Cycle   1  Pass 1  IDiag  1:
 FoFJK:  IHMeth= 1 ICntrl=     500 DoSepK=F KAlg= 0 I1Cent=           0 FoldK=F
 IRaf= 870000000 NMat=       1 IRICut=       1 DoRegI=T DoRafI=F ISym2E= 0 IDoP0=0 IntGTp=1.
 FoFCou: FMM=F IPFlag=           0 FMFlag=      100000 FMFlg1=           0
         NFxFlg=           0 DoJE=T BraDBF=F KetDBF=F FulRan=T
         wScrn=  0.000000 ICntrl=       500 IOpCl=  0 I1Cent=           0 NGrid=           0
         NMat0=    1 NMatS0=      1 NMatT0=    0 NMatD0=    1 NMtDS0=    0 NMtDT0=    0
 Symmetry not used in FoFCou.
 Defaulting to unpruned grid for atomic number  91.
 Defaulting to unpruned grid for atomic number  91.
 Defaulting to unpruned grid for atomic number  91.
 Defaulting to unpruned grid for atomic number  91.
 Defaulting to unpruned grid for atomic number  91.
 Defaulting to unpruned grid for atomic number  91.
 Defaulting to unpruned grid for atomic number  91.
 Defaulting to unpruned grid for atomic number  91.
 Inv3:  Mode=1 IEnd=     5655387.
 Iteration    1 A*A^-1 deviation from unit magnitude is 4.44D-15 for   1310.
 Iteration    1 A*A^-1 deviation from orthogonality  is 3.12D-15 for   1310    861.
 Iteration    1 A^-1*A deviation from unit magnitude is 3.44D-15 for   1346.
 Iteration    1 A^-1*A deviation from orthogonality  is 1.40D-14 for   1310    861.
 E= -1121.70447541716    
 DIIS: error= 4.10D-02 at cycle   1 NSaved=   1.
 NSaved= 1 IEnMin= 1 EnMin= -1121.70447541716     IErMin= 1 ErrMin= 4.10D-02
 ErrMax= 4.10D-02  0.00D+00 EMaxC= 1.00D-01 BMatC= 1.72D+00 BMatP= 1.72D+00
 IDIUse=3 WtCom= 5.90D-01 WtEn= 4.10D-01
 Coeff-Com:  0.100D+01
 Coeff-En:   0.100D+01
 Coeff:      0.100D+01
 Gap=     0.082 Goal=   None    Shift=    0.000
 GapD=    0.082 DampG=0.500 DampE=0.250 DampFc=0.1250 IDamp=-1.
 Damping current iteration by 1.25D-01
 RMSDP=9.62D-03 MaxDP=1.31D+00              OVMax= 9.98D-01

 Cycle   2  Pass 1  IDiag  1:
 RMSU=  1.18D-03    CP:  1.01D+00
 E= -1121.76439261175     Delta-E=       -0.059917194593 Rises=F Damp=T
 DIIS: error= 1.99D-02 at cycle   2 NSaved=   2.
 NSaved= 2 IEnMin= 2 EnMin= -1121.76439261175     IErMin= 2 ErrMin= 1.99D-02
 ErrMax= 1.99D-02  0.00D+00 EMaxC= 1.00D-01 BMatC= 2.90D-01 BMatP= 1.72D+00
 IDIUse=3 WtCom= 8.01D-01 WtEn= 1.99D-01
 Coeff-Com: -0.762D-01 0.108D+01
 Coeff-En:   0.475D+00 0.525D+00
 Coeff:      0.335D-01 0.967D+00
 Gap=     0.046 Goal=   None    Shift=    0.000
 RMSDP=4.08D-03 MaxDP=1.56D-01 DE=-5.99D-02 OVMax= 9.38D-01

 Cycle   3  Pass 1  IDiag  1:
 RMSU=  4.07D-03    CP:  1.01D+00  7.92D-01
 E= -1121.65279075551     Delta-E=        0.111601856249 Rises=F Damp=F
 DIIS: error= 5.06D-02 at cycle   3 NSaved=   3.
 NSaved= 3 IEnMin= 2 EnMin= -1121.76439261175     IErMin= 2 ErrMin= 1.99D-02
 ErrMax= 5.06D-02  0.00D+00 EMaxC= 1.00D-01 BMatC= 1.49D+00 BMatP= 2.90D-01
 IDIUse=2 WtCom= 0.00D+00 WtEn= 1.00D+00
 EnCoef did     2 forward-backward iterations
 Coeff-En:   0.209D+00 0.404D+00 0.386D+00
 Coeff:      0.209D+00 0.404D+00 0.386D+00
 Gap=     0.185 Goal=   None    Shift=    0.000
 RMSDP=6.51D-03 MaxDP=6.03D-01 DE= 1.12D-01 OVMax= 8.11D-01

 Cycle   4  Pass 1  IDiag  1:
 RMSU=  3.05D-03    CP:  1.06D+00  3.00D+00 -6.34D-02
 E= -1096.85336060266     Delta-E=       24.799430152845 Rises=F Damp=F
 DIIS: error= 4.28D-01 at cycle   4 NSaved=   4.
 NSaved= 4 IEnMin= 2 EnMin= -1121.76439261175     IErMin= 2 ErrMin= 1.99D-02
 ErrMax= 4.28D-01  0.00D+00 EMaxC= 1.00D-01 BMatC= 5.09D+01 BMatP= 2.90D-01
 IDIUse=2 WtCom= 0.00D+00 WtEn= 1.00D+00
 EnCoef did   100 forward-backward iterations
 Coeff-En:   0.485D+00 0.153D-01 0.403D+00 0.972D-01
 Coeff:      0.485D+00 0.153D-01 0.403D+00 0.972D-01
 Gap=     0.021 Goal=   None    Shift=    0.000
 RMSDP=3.50D-03 MaxDP=2.95D-01 DE= 2.48D+01 OVMax= 9.46D-01

 Cycle   5  Pass 1  IDiag  1:
 RMSU=  1.94D-03    CP:  1.06D+00  2.36D+00  1.28D-01  2.49D-01
 E= -1122.05230335716     Delta-E=      -25.198942754496 Rises=F Damp=F
 DIIS: error= 8.19D-02 at cycle   5 NSaved=   5.
 NSaved= 5 IEnMin= 5 EnMin= -1122.05230335716     IErMin= 2 ErrMin= 1.99D-02
 ErrMax= 8.19D-02  0.00D+00 EMaxC= 1.00D-01 BMatC= 1.39D+00 BMatP= 2.90D-01
 IDIUse=2 WtCom= 0.00D+00 WtEn= 1.00D+00
 EnCoef did     2 forward-backward iterations
 Coeff-En:   0.333D+00 0.000D+00 0.163D+00 0.000D+00 0.504D+00
 Coeff:      0.333D+00 0.000D+00 0.163D+00 0.000D+00 0.504D+00
 Gap=     0.137 Goal=   None    Shift=    0.000
 RMSDP=1.76D-03 MaxDP=1.54D-01 DE=-2.52D+01 OVMax= 3.16D-01

 Cycle   6  Pass 1  IDiag  1:
 RMSU=  9.80D-04    CP:  1.05D+00  1.57D+00  2.68D-01  5.56D-02  6.13D-01
 E= -1122.72001129825     Delta-E=       -0.667707941092 Rises=F Damp=F
 DIIS: error= 1.95D-02 at cycle   6 NSaved=   6.
 NSaved= 6 IEnMin= 6 EnMin= -1122.72001129825     IErMin= 6 ErrMin= 1.95D-02
 ErrMax= 1.95D-02  0.00D+00 EMaxC= 1.00D-01 BMatC= 2.19D-01 BMatP= 2.90D-01
 IDIUse=3 WtCom= 8.05D-01 WtEn= 1.95D-01
 Coeff-Com: -0.406D-01 0.376D+00 0.112D+00-0.210D-01 0.231D+00 0.343D+00
 Coeff-En:   0.000D+00 0.000D+00 0.000D+00 0.000D+00 0.259D+00 0.741D+00
 Coeff:     -0.327D-01 0.302D+00 0.904D-01-0.169D-01 0.236D+00 0.420D+00
 Gap=     0.179 Goal=   None    Shift=    0.000
 RMSDP=7.27D-04 MaxDP=3.20D-02 DE=-6.68D-01 OVMax= 8.62D-02

 Cycle   7  Pass 1  IDiag  1:
 RMSU=  4.65D-04    CP:  1.05D+00  1.44D+00  2.58D-01  9.06D-02  6.03D-01
                    CP:  4.67D-01
 E= -1122.79601559965     Delta-E=       -0.076004301405 Rises=F Damp=F
 DIIS: error= 1.60D-02 at cycle   7 NSaved=   7.
 NSaved= 7 IEnMin= 7 EnMin= -1122.79601559965     IErMin= 7 ErrMin= 1.60D-02
 ErrMax= 1.60D-02  0.00D+00 EMaxC= 1.00D-01 BMatC= 1.19D-01 BMatP= 2.19D-01
 IDIUse=3 WtCom= 8.40D-01 WtEn= 1.60D-01
 EnCoef did     3 forward-backward iterations
 Coeff-Com: -0.131D+00 0.229D+00 0.113D-01-0.643D-02 0.122D+00 0.302D+00
 Coeff-Com:  0.473D+00
 Coeff-En:   0.000D+00 0.000D+00 0.000D+00 0.000D+00 0.192D+00 0.269D+00
 Coeff-En:   0.539D+00
 Coeff:     -0.110D+00 0.192D+00 0.948D-02-0.540D-02 0.133D+00 0.297D+00
[...]
 122         V                 0.571276          1.574586
 123         V                 0.573624          1.588206
 124         V                 0.601939          1.552502
 125         V                 0.621718          2.267483
 126         V                 0.627772          1.472627
 127         V                 0.633613          3.149930
 128         V                 0.658544          1.527140
 129         V                 0.685373          1.873865
 130         V                 0.693322          1.560684
 131         V                 0.700670          1.556842
 132         V                 0.720978          1.623698
 133         V                 0.740651          1.732609
 134         V                 0.749922          1.782706
 135         V                 0.755745          1.910232
 136         V                 0.758598          1.885877
 137         V                 0.776451          2.046995
 138         V                 0.791533          1.662225
 139         V                 0.794604          1.717494
 140         V                 0.840673          1.905584
 141         V                 0.876685          1.824107
 142         V                 0.879174          1.889601
 143         V                 0.904288          2.110123
 144         V                 0.910280          2.187652
 145         V                 0.929389          2.294966
 146         V                 0.931610          2.150183
 147         V                 0.953332          2.438416
 148         V                 0.955823          2.626075
 149         V                 0.983471          2.062479
 150         V                 0.988478          2.097069
 151         V                 1.033614          2.767114
 152         V                 1.052759          2.702381
 153         V                 1.075134          2.889248
 154         V                 1.090067          2.886261
 155         V                 1.110012          2.879743
 156         V                 1.121299          2.469814
 157         V                 1.134303          2.406881
 158         V                 1.156212          2.359571
 159         V                 1.160374          2.452855
 160         V                 1.165491          3.277721
 161         V                 1.178516          3.069413
 162         V                 1.199786          2.567458
 163         V                 1.204768          2.722820
 164         V                 1.222493          2.960586
 165         V                 1.249621          3.345203
 166         V                 1.254516          3.210330
 167         V                 1.274621          2.839624
 168         V                 1.298647          2.960755
 169         V                 1.318079          2.679966
 170         V                 1.336632          2.975623
 171         V                 1.348545          2.664745
 172         V                 1.355550          2.912751
 173         V                 1.369549          2.761972
 174         V                 1.391780          3.068795
 175         V                 1.398822          3.252569
 176         V                 1.413269          2.486962
 177         V                 1.429352          2.589936
 178         V                 1.454557          2.920461
 179         V                 1.469853          2.855111
 180         V                 1.472226          3.084062
 181         V                 1.479925          2.822214
 182         V                 1.489962          3.163909
 183         V                 1.506350          2.830522
 184         V                 1.527200          2.988655
 185         V                 1.534068          3.056295
 186         V                 1.543384          3.133828
 187         V                 1.556063          3.042229
 188         V                 1.580995          3.170973
 189         V                 1.605864          3.245752
 190         V                 1.612190          3.075896
 191         V                 1.621964          3.267480
 192         V                 1.631576          3.093809
 193         V                 1.657674          3.235310
 194         V                 1.678277          3.101917
 195         V                 1.698529          3.294602
 196         V                 1.706164          3.243092
 197         V                 1.737842          3.346619
 198         V                 1.760216          3.368040
 199         V                 1.763357          3.376434
 200         V                 1.776443          3.175337
 201         V                 1.787679          3.233469
 202         V                 1.793056          3.236156
 203         V                 1.795709          3.181520
 204         V                 1.816114          3.301353
 205         V                 1.853312          2.921382
 206         V                 1.863992          3.461869
 207         V                 1.876148          3.608417
 208         V                 1.912046          3.287933
 209         V                 1.922095          3.533673
 210         V                 1.937899          3.638264
 211         V                 1.943958          3.385142
 212         V                 1.958839          3.607478
 213         V                 1.975310          3.529894
 214         V                 1.995928          3.490227
 215         V                 2.041807          3.637975
 216         V                 2.047323          3.550904
 217         V                 2.083447          3.666045
 218         V                 2.102375          4.009902
 219         V                 2.114772          3.987519
 220         V                 2.126595          3.901667
 221         V                 2.137516          3.611400
 222         V                 2.162701          4.255657
 223         V                 2.173869          3.683753
 224         V                 2.201817          3.699031
 225         V                 2.210009          3.785785
 226         V                 2.222794          3.816939
 227         V                 2.229943          4.207197
 228         V                 2.242946          4.128333
 229         V                 2.266344          4.096602
 230         V                 2.270333          4.579357
 231         V                 2.293032          4.272265
 232         V                 2.298379          4.361902
 233         V                 2.423918          5.340078
 234         V                 2.444143          4.670239
 235         V                 2.456054          4.508859
 236         V                 2.463740          4.456986
 237         V                 2.487888          4.342880
 238         V                 2.495613          4.492149
 239         V                 2.519034          5.060814
 240         V                 2.571213          5.253611
 241         V                 2.589832          4.395430
 242         V                 2.603528          6.453752
 243         V                 2.610125          6.189142
 244         V                 2.611919          6.408821
 245         V                 2.627624          6.422134
 246         V                 2.650428          6.142726
 247         V                 2.678040          5.921521
 248         V                 2.687315          6.529243
 249         V                 2.704389          5.297734
 250         V                 2.707743          6.144976
 251         V                 2.719652          6.328990
 252         V                 2.748229          6.288427
 253         V                 2.770048          5.993274
 254         V                 2.820966          6.371535
 255         V                 2.826235          6.553542
 256         V                 2.850141          5.060080
 257         V                 2.886067          6.872704
 258         V                 2.909821          5.381839
 259         V                 2.916211          5.995936
 260         V                 2.938911          4.623009
 261         V                 2.952560          6.717691
 262         V                 2.968769          5.839440
 263         V                 2.985265          6.183819
 264         V                 3.009492          4.591303
 265         V                 3.014447          6.506914
 266         V                 3.037101          6.294861
 267         V                 3.095045          6.524366
 268         V                 3.110168          4.655405
 269         V                 3.183057          6.054659
 270         V                 3.201986          6.507473
 271         V                 3.213436          7.289399
 272         V                 3.261462          4.873961
 273         V                 3.289263          7.935262
 274         V                 3.327629          5.584740
 275         V                 3.330564          6.787987
 276         V                 3.361031          5.232215
 277         V                 3.364558          6.239544
 278         V                 3.368291          7.707105
 279         V                 3.419440          6.524071
 280         V                 3.433596          8.425810
 281         V                 3.473559          4.861695
 282         V                 3.489413          6.940320
 283         V                 3.586914          5.473764
 284         V                 3.590020          5.296913
 285         V                 3.620473          7.408870
 286         V                 3.658618          6.615557
 287         V                 3.708629          6.702606
 288         V                 3.716260          7.605933
 289         V                 3.722492          5.306918
 290         V                 3.752778          8.755436
 291         V                 3.775067          7.298164
 292         V                 3.825769          6.546697
 293         V                 3.870871          8.151932
 294         V                 3.930848          8.917308
 295         V                 3.940606          8.026968
 296         V                 4.017871          7.456236
 297         V                 4.050485          8.914792
 298         V                 4.122301          7.718329
 299         V                 4.171522          7.071584
 300         V                 4.182404          8.943023
 301         V                 4.236020          9.273156
 302         V                 4.256971          8.890437
 303         V                 4.368674          7.013710
 304         V                 4.432597          7.358947
 305         V                 4.526746          6.537283
 306         V                 4.748907          8.155551
 307         V                 5.019373          6.444220
 308         V                 5.019635          6.442391
 309         V                 5.023482          6.458085
 310         V                 5.025222          6.454883
 311         V                 5.026498          6.469476
 312         V                 5.031923          6.464193
 313         V                 5.038232          6.468835
 314         V                 5.042350          6.481208
 315         V                 5.043331          6.531397
 316         V                 5.046713          6.492639
 317         V                 5.048282          6.528245
 318         V                 5.055647          6.555101
 319         V                 5.056997          6.509508
 320         V                 5.070499          6.608142
 321         V                 5.083372          6.602694
 322         V                 5.097158          6.725414
 323         V                 5.103908          6.638599
 324         V                 5.115082          6.782637
 325         V                 5.118803          6.997139
 326         V                 5.128163          6.684843
 327         V                 5.136945          6.768549
 328         V                 5.160426          6.813950
 329         V                 5.167113          6.814748
 330         V                 5.185833          6.799239
 331         V                 5.198992          6.905430
 332         V                 5.240392          6.837791
 333         V                 5.273198          7.294709
 334         V                 5.325917          6.931877
 335         V                 5.330527          6.942650
 336         V                 5.359422          7.067314
 337         V                 5.366791          7.210050
 338         V                 5.370671          6.982871
 339         V                 5.382343          7.019019
 340         V                 5.416839          7.244921
 341         V                 5.442007          7.150232
 342         V                 5.443571          7.144211
 343         V                 5.453912          7.171332
 344         V                 5.456685          7.222509
 345         V                 5.512705          7.317377
 346         V                 5.560596          7.379387
 347         V                 5.643835          7.847996
 348         V                 5.761942          7.779788
 349         V                 5.811663          7.879176
 350         V                 5.815484          8.383867
 351         V                 5.916771          8.193313
 352         V                 5.963002          8.260018
 353         V                 6.033684         10.401341
 354         V                 6.079195          8.851360
 355         V                 6.088778          8.892512
 356         V                 6.116743          8.952921
 357         V                 6.124401          9.031505
 358         V                 6.127032          9.018669
 359         V                 6.163958          9.324317
 360         V                 6.168729          9.145732
 361         V                 6.182082          9.256705
 362         V                 6.188002          9.269198
 363         V                 6.203882          9.342623
 364         V                 6.232117          9.348663
 365         V                 6.234544          9.247425
 366         V                 6.241003          9.094773
 367         V                 6.249961          9.197464
 368         V                 6.276423          9.323313
 369         V                 6.289495          9.459485
 370         V                 6.295661          9.409602
 371         V                 6.315459          9.383650
 372         V                 6.319291          9.397200
 373         V                 6.361995          9.456692
 374         V                 6.367748          9.476227
 375         V                 6.379235          9.523894
 376         V                 6.400544          9.339465
 377         V                 6.429355          9.478394
 378         V                 6.442015          9.632845
 379         V                 6.461266          9.613717
 380         V                 6.488290          9.634587
 381         V                 6.509456          9.789298
 382         V                 6.523780         10.067537
 383         V                 6.613580          9.529186
 384         V                 6.640314         10.097014
 385         V                 6.651704          9.438765
 386         V                 6.664823          9.454201
 387         V                 6.669780         10.038290
 388         V                 6.740693          9.929220
 389         V                 6.750554          9.572878
 390         V                 6.797003          9.949080
 391         V                 6.809361          9.800097
 392         V                 6.826647         10.235316
 393         V                 6.874101         10.098435
 394         V                 6.933040         10.059333
 395         V                 6.947829          9.869356
 396         V                 6.955012          9.931093
 397         V                 6.980267          9.918030
 398         V                 7.009435          9.948271
 399         V                 7.049135         10.299530
 400         V                 7.056852         10.290142
 401         V                 7.138332         10.351695
 402         V                 7.144491         10.843590
 403         V                 7.416439         10.123202
 404         V                 7.464581         13.700222
 405         V                 7.495190         12.535838
 406         V                 7.520335         13.579962
 407         V                 8.198656         15.793056
 408         V                 8.223771         15.802096
 409         V                 8.361793         15.851035
 410         V                 8.848462         16.145923
 411         V                 8.992194         16.329063
 412         V                23.027039         56.741531
 413         V                23.198045         56.893851
 414         V                29.420479         36.144351
 415         V                29.451288         36.182218
 416         V                29.464117         36.177386
 417         V                43.287942        108.637111
 418         V                43.313792        108.653148
 419         V                43.340521        108.670383
 420         V                43.381659        108.746329
 421         V                43.416089        108.749929
 422         V                43.488584        108.881401
 423         V                43.535794        108.931191
 424         V                43.761467        109.141555
 425         V                54.063016         39.957628
 426         V                70.277389         84.075409
 427         V                70.298267         84.112046
 428         V                70.301411         84.118008
 429         V               142.727048        242.590550
 430         V               142.765611        242.639236
 431         V               142.772334        242.647151
 432         V               202.573213        130.067267
 433         V               626.082631       1034.493173
 Total kinetic energy from orbitals= 8.425431948167D+02
 No NMR shielding tensors so no spin-rotation constants.
 Leave Link  601 at Mon Jun 26 13:57:09 2023, MaxMem=  2147483648 cpu:               5.1 elap:               0.7
 (Enter /home/pcmt/gaussian/g16.C.01/g16/l9999.exe)

 Test job not archived.
 1\1\GINC-U-0-13\SP\RBP86\Gen\C2H4O8Pa1(1-)\ROOT\26-Jun-2023\0\\#p BP86
 /GEN Pseudo=Read GFInput GFPrint IOP(6/7=3) Symm=(Loose) Int=(UltraFin
 e) Guess=(Harris) SCRF=(COSMORS) Scf=(NoVarAcc,MaxCycle=100,conver=8)\
 \pa_oh4_c2o4-bp86-cosmors-deftzvp-klamt.com SGP in PCM calculation\\-1
 ,1\Pa,0,0.6599278617,-0.2256211325,-0.3736562825\O,0,1.1600741205,1.29
 31852928,-1.775092779\H,0,0.8702624892,1.5496626597,-2.6586819026\O,0,
 -0.7366245677,1.0656389897,0.6101870195\H,0,-1.0898674236,1.9462593018
 ,0.4408850944\O,0,-0.5685495857,-1.1691701977,-1.8446539253\H,0,-1.189
 371454,-1.9021361454,-1.9158760615\O,0,0.2826542128,-1.7509173578,1.05
 72657388\H,0,-0.3875360388,-1.9238287545,1.7291967244\O,0,2.5325004401
 ,0.4584521892,0.8556067748\O,0,2.6124051607,-1.3668497214,-0.987379656
 8\C,0,3.7213100028,-0.0140020699,0.6528821219\C,0,3.7682600788,-1.1228
 575598,-0.4563916062\O,0,4.7370777003,0.3315695752,1.2344589686\O,0,4.
 8194967186,-1.6690778357,-0.7496812031\\Version=ES64L-G16RevC.01\State
 =1-A\HF=-1122.8992879\RMSD=4.693e-09\Dipole=-5.7670011,0.600989,-0.962
 0819\Quadrupole=-18.9435323,10.2871404,8.6563919,4.7575759,-4.839885,-
 7.0095099\PG=C01 [X(C2H4O8Pa1)]\\@


 A BIRD IN THE HAND IS SAFER THAN ONE OVERHEAD.

                       -- NEWTON'S SEVENTH LAW
 Job cpu time:       0 days  0 hours 41 minutes 24.4 seconds.
 Elapsed time:       0 days  0 hours  5 minutes 15.3 seconds.
 File lengths (MBytes):  RWF=    116 Int=      0 D2E=      0 Chk=     13 Scr=      1
 Normal termination of Gaussian 16 at Mon Jun 26 13:57:10 2023.
