

 Parallel Execution: Process Information
 ==============================================================================
 Rank   Node Name                              NodeID   MyNodeRank  NodeMaster
    0   u-0-5.local                               0          0          0
    1   u-0-5.local                               0          1         -1
    2   u-0-5.local                               1          0          1
    3   u-0-5.local                               1          1         -1
    4   u-0-5.local                               2          0          2
    5   u-0-5.local                               2          1         -1
    6   u-0-5.local                               3          0          3
    7   u-0-5.local                               3          1         -1
 ==============================================================================


May use up to 31228MB of RAM as shared memory on node 0
May use up to 31250MB of RAM as shared memory on node 1
May use up to 31250MB of RAM as shared memory on node 2
May use up to 31250MB of RAM as shared memory on node 3

 *******************************************************************************
 *                                                                             *
 *  --------------------------------                                           *
 *   Amsterdam Modeling Suite (AMS)              2022.103                      *
 *  --------------------------------                                           *
 *                                               r104886 2022-06-17            *
 *                                                                             *
 *                                                                             *
 *                              =================                              *
 *                              |               |                              *
 *                              |     A M S     |                              *
 *                              |               |                              *
 *                              =================                              *
 *                                                                             *
 *                                                                             *
 *   Online information and documentation:  https://www.scm.com/support/       *
 *   E-mail:  support@scm.com   info@scm.com                                   *
 *                                                                             *
 *   Scientific publications using AMS results must be properly referenced     *
 *   See the User Manuals (or the web site) for recommended citations          *
 *   The terms and conditions of the End User License Agreement apply to       *
 *   the use of AMS, https://www.scm.com/license-terms/                        *
 *                                                                             *
 **********************  x86_64_linux_intel / intelmpi  ************************
 
 Licensed to: Dr. Val?rie Vallet / Laboratoire PhLAM UMR 8523 / Villeneuve d'Ascq Cedex / FRANCE 2023-02-21 11:49:39
 SCM User ID: u10325
  
 AMS 2022.103  RunTime: Feb28-2023 20:23:06  ShM Nodes: 4  Procs: 8

 AMS jobname: pa_oh4_no3.SR.b3lyp.tz2p.opt-freq-B21-solvation
 AMS jobid  : 1803361269

 Start   directory: /home/shaaban/ams/PhD/nitrate/pa_oh4_no3/solvation/B21/
 Results directory: /home/shaaban/ams/PhD/nitrate/pa_oh4_no3/solvation/B21/pa_oh4_no3.SR.b3lyp.tz2p.opt-freq-B21-solvation.results/
 Scratch directory: /state/partition2/shaaban/929852.phlam-s-sakura/amstmp_pa_oh4_no3.SR.b3lyp.tz2p.opt-freq-B21-solvation_kid0.1803361269/


 Communication costs MPI_COMM_WORLD:      2.730 usec per message,   0.0088 usec per 8-byte item
 Communication costs for intra-node:      0.631 usec per message,   0.0024 usec per 8-byte item

 RNG seed: -1643072643 -811629991 1827635183 1112622834 -411745892 462756023 -222319338 468153966



                      ************************************************************************
                      *  ADF 2022.103  RunTime: Feb28-2023 20:23:07  ShM Nodes: 4  Procs: 8  *
                      ************************************************************************
  
       ***************************
       *  GEOMETRY OPTIMIZATION  *
       ***************************

Optimization Method                    Quasi Newton
Optimization Coordinates               Delocalized Coordinates
Optimize lattice                       F
 
 ------------------------------------------------------
 Convergence criteria (Hartree,Angstrom)
 ------------------------------------------------------
 Maximum gradient               0.000100000000
 Maximum rms gradient           0.000066666667
 Maximum step allowed           0.001000000000
 Maximum rms step allowed       0.000666666667
 Maximum energy change allowe   0.000013000000
 Maximum stress energy allowe   0.000500000000
 
Initial model Hessian                  Automatic Hessian
 
------------------------------------
Quasi-Newton Optimizer Parameters
------------------------------------
Hessian Update Method                  BFGS
Maximum number of steps                  250
First GDIIS cycle                          0
Maximum GDIIS vectors                      0
Trust radius (bohr)                        0.200000
Trust radius varies                        T
Constraints converged at all steps         T
Use projector                              T
 
 Rigid motions settings for: old optimizer
 Atomic rotations (x,y,z):     T T T
 Atomic translations (x,y,z):  T T T
 Tolerance:                   1.000000000000000E-006
 
--------
Geometry
--------
Formula: H4NO7Pa
Atoms
  Index Symbol   x (angstrom)   y (angstrom)   z (angstrom)
      1     Pa     0.44593792    -0.19043616    -0.11598631       adf.R=2.200
      2      O     1.34003608     1.27294761    -1.29260133       adf.R=1.517
      3      H     1.58564721     1.91905489    -1.95872538       adf.R=1.350
      4      O    -1.09886933     1.08485263     0.47010122       adf.R=1.517
      5      H    -1.80579726     1.71178687     0.63080919       adf.R=1.350
      6      O    -0.25059527    -1.24376746    -1.77277687       adf.R=1.517
      7      H    -0.57362887    -1.72143042    -2.53843301       adf.R=1.350
      8      O    -0.13574909    -1.67631954     1.21804199       adf.R=1.517
      9      H    -0.61025706    -2.33773997     1.72689557       adf.R=1.350
     10      O     2.27988341     0.25799012     1.47994314       adf.R=1.517
     11      O     2.69355336    -1.23612406    -0.03406946       adf.R=1.517
     12      N     3.12646639    -0.57937837     0.98506190       adf.R=1.608
     13      O     4.22554591    -0.73216135     1.43761306       adf.R=1.517
 
Total System Charge             0.00000
Bonding info available!
 
 
----------------
ADF Engine Input
----------------
 
 Basis
 Type TZ2P
 Core None
 End
 XC
 Hybrid B3LYP
 End
 Solvation
 Surf Delley
 Solv name=Water cav0=0.0 cav1=0.0067639
 Charged method=CONJ
 C-Mat POT
 SCF VAR ALL
 CSMRSP
 End
 NumericalQuality Good
 

 Title: *** (NO TITLE) ***

Bad geometry: could not add a dihedral for atom    5
Bad geometry: could not add a dihedral for atom    7
 Using automatic Hessian for delocalized coordinates.
 *** GO1_GOStep1 ***

 SOLVATION
-------------------------------------------

  The Delley construction of COSMO surface surface is calculated

       Division Level for Surface Triangles (NDIV)                  3
       Final Division Level for Triangles (NFDIV)                   1
       Radius of the Solvent (RSOL)                           1.93000 angstr
  Dielectric Constant (EPSL)                                 78.39000

       COSMO equation is solved iteratively-               conjugate-gradient

       Maximun of Iterations for Charges (NCIX)                  1000
       Criterion for Charge convergence (CCNV)                1.0E-08

  COSMO charges included variationally in SCF

       COSMO included at every SCF cycle

  Geometry-dependent empirical factor                         0.00000

  C-Matrix calculated in cspmtx

  In cspmtx, C-Matrix calculated using fitted potential

-------------------------------------------



 -------------------------------------------
  COSMO surface
  Area             =          587.173
  Volume           =          932.548
  Number of Points =         1629
 -------------------------------------------



 ======================
 RI Hartree-Fock Scheme
 ======================
  
 Fit Set Quality     : GOOD
 Threshold Quality   : GOOD
 Integration Quality : GOOD
 Response Quality    : DEFAULT
 Is Range Separated  :  F
 
 RIHartreeFock Dependency: number of modified vectors:           4
 cosmo_calcen: 0.5 (esolb+esolc) (Hartrees) =   -0.026614

 Solvation energy (screening term,uncorrected) =    -16.700832 kcal/mol

 Solvation energy (dispersion and cavitation terms) =      1.097968 kcal/mol
 Solvation Energy Contributions (Hartrees)
          esola   esolb+esolc
     0.02661447   -0.05322893
 esol last cycle   -0.02661447
  
 Hartree-Fock exchange energy:   -531.731900258304     
 cosmo_calcen: 0.5 (esolb+esolc) (Hartrees) =   -0.026614

 Solvation energy (screening term,uncorrected) =    -16.700833 kcal/mol

 Solvation energy (dispersion and cavitation terms) =      1.097968 kcal/mol
 Solvation Energy Contributions (Hartrees)
          esola   esolb+esolc
     0.02661447   -0.05322894
 esol last cycle   -0.02661447

 Energy gradients wrt nuclear displacements
 ==========================================

     Atom      Cartesian (a.u./angstrom)
                 X         Y         Z
 ----------------------------------------
     1 Pa    0.019575 -0.005367  0.006783
     2 O    -0.002178  0.003245 -0.004542
     3 H    -0.000334 -0.004298  0.005229
     4 O    -0.004322  0.003938 -0.000382
     5 H     0.004868 -0.004181 -0.000147
     6 O    -0.003732 -0.001536 -0.004363
     7 H     0.002723  0.002887  0.005210
     8 O    -0.005358 -0.001813  0.000514
     9 H     0.004499  0.004212 -0.002672
    10 O    -0.014326  0.006411 -0.000732
    11 O    -0.011317 -0.001364 -0.008266
    12 N     0.021018 -0.003947  0.007659
    13 O    -0.011115  0.001814 -0.004292
 ----------------------------------------
 Mulliken charges used for AMS results%charges...
 
----------------------------------------------------------------------
Geometry Convergence after Step   1       (Hartree/Angstrom,Angstrom)
----------------------------------------------------------------------
current energy                               -3.74124840 Hartree
energy change                      -3.74124840     0.00001300    F
constrained gradient max            0.02102362     0.00010000    F
constrained gradient rms            0.00693805     0.00006667    F
gradient max                        0.02102335
gradient rms                        0.00693805
cart. step max                      0.00704741     0.00100000    F
cart. step rms                      0.00265045     0.00066667    F
 
 
--------
Geometry
--------
Formula: H4NO7Pa
Atoms
  Index Symbol   x (angstrom)   y (angstrom)   z (angstrom)
      1     Pa     0.44277352    -0.18791297    -0.11521349       adf.R=2.200
      2      O     1.34327828     1.27302726    -1.29192758       adf.R=1.517
      3      H     1.58796579     1.91918380    -1.96322658       adf.R=1.350
      4      O    -1.10322407     1.08646380     0.47096242       adf.R=1.517
      5      H    -1.81284467     1.71576474     0.63001905       adf.R=1.350
      6      O    -0.24927354    -1.24402818    -1.77275111       adf.R=1.517
      7      H    -0.57778170    -1.72207187    -2.54003530       adf.R=1.350
      8      O    -0.13280965    -1.67800845     1.21897575       adf.R=1.517
      9      H    -0.61103792    -2.34258021     1.72659505       adf.R=1.350
     10      O     2.28466005     0.25590555     1.47980468       adf.R=1.517
     11      O     2.69518078    -1.23351387    -0.03064568       adf.R=1.517
     12      N     3.12560028    -0.57854825     0.98459982       adf.R=1.608
     13      O     4.22968626    -0.73440654     1.43871669       adf.R=1.517
 
Total System Charge             0.00000
Bonding info available!
 
 *** GO1_GOStep2 ***

 SOLVATION
-------------------------------------------

  The Delley construction of COSMO surface surface is calculated

       Division Level for Surface Triangles (NDIV)                  3
       Final Division Level for Triangles (NFDIV)                   1
       Radius of the Solvent (RSOL)                           1.93000 angstr
  Dielectric Constant (EPSL)                                 78.39000

       COSMO equation is solved iteratively-               conjugate-gradient

       Maximun of Iterations for Charges (NCIX)                  1000
       Criterion for Charge convergence (CCNV)                1.0E-08

  COSMO charges included variationally in SCF

       COSMO included at every SCF cycle

  Geometry-dependent empirical factor                         0.00000

  C-Matrix calculated in cspmtx

  In cspmtx, C-Matrix calculated using fitted potential

-------------------------------------------



 -------------------------------------------
  COSMO surface
  Area             =          587.820
  Volume           =          933.377
  Number of Points =         1633
 -------------------------------------------



 ======================
 RI Hartree-Fock Scheme
 ======================
  
 Fit Set Quality     : GOOD
 Threshold Quality   : GOOD
 Integration Quality : GOOD
 Response Quality    : DEFAULT
 Is Range Separated  :  F
 
 RIHartreeFock Dependency: number of modified vectors:           4
 cosmo_calcen: 0.5 (esolb+esolc) (Hartrees) =   -0.027191

 Solvation energy (screening term,uncorrected) =    -17.062582 kcal/mol

 Solvation energy (dispersion and cavitation terms) =      1.099177 kcal/mol
 Solvation Energy Contributions (Hartrees)
          esola   esolb+esolc
     0.02719095   -0.05438190
 esol last cycle   -0.02719095
  
 Hartree-Fock exchange energy:   -531.725194326301     
 cosmo_calcen: 0.5 (esolb+esolc) (Hartrees) =   -0.027191

 Solvation energy (screening term,uncorrected) =    -17.062583 kcal/mol

 Solvation energy (dispersion and cavitation terms) =      1.099177 kcal/mol
 Solvation Energy Contributions (Hartrees)
          esola   esolb+esolc
     0.02719095   -0.05438191
 esol last cycle   -0.02719095

 Energy gradients wrt nuclear displacements
 ==========================================

     Atom      Cartesian (a.u./angstrom)
                 X         Y         Z
 ----------------------------------------
     1 Pa    0.019185 -0.004732  0.006906
     2 O    -0.003011 -0.000202 -0.001008
     3 H     0.001273  0.000001  0.000835
     4 O    -0.000503  0.000557 -0.001048
     5 H     0.000303 -0.000169  0.000874
     6 O    -0.001859  0.000924 -0.000227
     7 H     0.000525 -0.000279  0.000108
     8 O    -0.002559  0.001268 -0.001891
     9 H     0.001375 -0.000126  0.000682
    10 O    -0.009758  0.001565 -0.003449
    11 O    -0.008920  0.001804 -0.002826
    12 N     0.006518 -0.000829  0.001919
    13 O    -0.002569  0.000219 -0.000873
 ----------------------------------------
 Mulliken charges used for AMS results%charges...

 dE(predicted):    -0.20225E-03, dE(actual):    -0.34541E-03, Trust radius:    0.200000, all in a.u.
 
----------------------------------------------------------------------
Geometry Convergence after Step   2       (Hartree/Angstrom,Angstrom)
----------------------------------------------------------------------
current energy                               -3.74159382 Hartree
energy change                      -0.00034541     0.00001300    F
constrained gradient max            0.01918401     0.00010000    F
constrained gradient rms            0.00431633     0.00006667    F
gradient max                        0.01918408
gradient rms                        0.00431633
cart. step max                      0.00971441     0.00100000    F
cart. step rms                      0.00427192     0.00066667    F
 
 
--------
Geometry
--------
Formula: H4NO7Pa
Atoms
  Index Symbol   x (angstrom)   y (angstrom)   z (angstrom)
      1     Pa     0.43609322    -0.18378127    -0.11348272       adf.R=2.200
      2      O     1.35031534     1.27241966    -1.28767233       adf.R=1.517
      3      H     1.59115710     1.91550815    -1.96583274       adf.R=1.350
      4      O    -1.11169610     1.08870571     0.47152684       adf.R=1.517
      5      H    -1.82255908     1.72045045     0.62528531       adf.R=1.350
      6      O    -0.24540443    -1.24458534    -1.77244396       adf.R=1.517
      7      H    -0.58361780    -1.72022942    -2.53905479       adf.R=1.350
      8      O    -0.12803753    -1.68038302     1.22111849       adf.R=1.517
      9      H    -0.61312286    -2.34690127     1.72296471       adf.R=1.350
     10      O     2.29224065     0.25271192     1.48234145       adf.R=1.517
     11      O     2.69748383    -1.23277393    -0.02675743       adf.R=1.517
     12      N     3.12299651    -0.58105855     0.98573962       adf.R=1.608
     13      O     4.23632454    -0.73080829     1.43214127       adf.R=1.517
 
Total System Charge             0.00000
Bonding info available!
 
 *** GO1_GOStep3 ***

 SOLVATION
-------------------------------------------

  The Delley construction of COSMO surface surface is calculated

       Division Level for Surface Triangles (NDIV)                  3
       Final Division Level for Triangles (NFDIV)                   1
       Radius of the Solvent (RSOL)                           1.93000 angstr
  Dielectric Constant (EPSL)                                 78.39000

       COSMO equation is solved iteratively-               conjugate-gradient

       Maximun of Iterations for Charges (NCIX)                  1000
       Criterion for Charge convergence (CCNV)                1.0E-08

  COSMO charges included variationally in SCF

       COSMO included at every SCF cycle

  Geometry-dependent empirical factor                         0.00000

  C-Matrix calculated in cspmtx

  In cspmtx, C-Matrix calculated using fitted potential

-------------------------------------------



 -------------------------------------------
  COSMO surface
  Area             =          588.328
  Volume           =          934.176
  Number of Points =         1634
 -------------------------------------------



 ======================
 RI Hartree-Fock Scheme
 ======================
  
 Fit Set Quality     : GOOD
 Threshold Quality   : GOOD
 Integration Quality : GOOD
 Response Quality    : DEFAULT
 Is Range Separated  :  F
 
 RIHartreeFock Dependency: number of modified vectors:           4
 cosmo_calcen: 0.5 (esolb+esolc) (Hartrees) =   -0.028026

 Solvation energy (screening term,uncorrected) =    -17.586444 kcal/mol

 Solvation energy (dispersion and cavitation terms) =      1.100128 kcal/mol
 Solvation Energy Contributions (Hartrees)
          esola   esolb+esolc
     0.02802578   -0.05605156
 esol last cycle   -0.02802578
  
 Hartree-Fock exchange energy:   -531.723525012163     
 cosmo_calcen: 0.5 (esolb+esolc) (Hartrees) =   -0.028026

 Solvation energy (screening term,uncorrected) =    -17.586444 kcal/mol

 Solvation energy (dispersion and cavitation terms) =      1.100128 kcal/mol
 Solvation Energy Contributions (Hartrees)
          esola   esolb+esolc
     0.02802578   -0.05605156
 esol last cycle   -0.02802578

 Energy gradients wrt nuclear displacements
 ==========================================

     Atom      Cartesian (a.u./angstrom)
                 X         Y         Z
 ----------------------------------------
     1 Pa    0.016611 -0.003331  0.006165
     2 O    -0.002626 -0.001572  0.000352
     3 H     0.001996  0.002153 -0.001404
     4 O     0.001106 -0.000776 -0.001074
     5 H    -0.001950  0.001762  0.001340
     6 O    -0.000941  0.001585  0.001193
     7 H    -0.000613 -0.001734 -0.002310
     8 O    -0.000997  0.001830 -0.002374
     9 H    -0.000270 -0.002292  0.002311
    10 O    -0.001318 -0.002492 -0.006219
    11 O    -0.003221  0.005783  0.002338
    12 N    -0.010497 -0.001891 -0.000017
    13 O     0.002721  0.000975 -0.000300
 ----------------------------------------
 Mulliken charges used for AMS results%charges...

 dE(predicted):    -0.16952E-03, dE(actual):    -0.27792E-03, Trust radius:    0.200000, all in a.u.
 
----------------------------------------------------------------------
Geometry Convergence after Step   3       (Hartree/Angstrom,Angstrom)
----------------------------------------------------------------------
current energy                               -3.74187174 Hartree
energy change                      -0.00027792     0.00001300    F
constrained gradient max            0.01661008     0.00010000    F
constrained gradient rms            0.00395190     0.00006667    F
gradient max                        0.01661017
gradient rms                        0.00395190
cart. step max                      0.04332753     0.00100000    F
cart. step rms                      0.01220006     0.00066667    F
 
 
--------
Geometry
--------
Formula: H4NO7Pa
Atoms
  Index Symbol   x (angstrom)   y (angstrom)   z (angstrom)
      1     Pa     0.42525609    -0.17330247    -0.11278838       adf.R=2.200
      2      O     1.35517420     1.27722417    -1.28443810       adf.R=1.517
      3      H     1.58103018     1.91364648    -1.97601472       adf.R=1.350
      4      O    -1.12837869     1.09054192     0.47191662       adf.R=1.517
      5      H    -1.84099700     1.72487608     0.61492972       adf.R=1.350
      6      O    -0.23598670    -1.24642202    -1.77102520       adf.R=1.517
      7      H    -0.59391129    -1.71749309    -2.53309339       adf.R=1.350
      8      O    -0.10786952    -1.68030413     1.22673127       adf.R=1.517
      9      H    -0.60345752    -2.34899804     1.71803852       adf.R=1.350
     10      O     2.30997090     0.25562827     1.48153455       adf.R=1.517
     11      O     2.70585575    -1.22573622    -0.02937156       adf.R=1.517
     12      N     3.13111899    -0.56625033     0.96989549       adf.R=1.608
     13      O     4.22436800    -0.77413582     1.45955888       adf.R=1.517
 
Total System Charge             0.00000
Bonding info available!
 
 *** GO1_GOStep4 ***

 SOLVATION
-------------------------------------------

  The Delley construction of COSMO surface surface is calculated

       Division Level for Surface Triangles (NDIV)                  3
       Final Division Level for Triangles (NFDIV)                   1
       Radius of the Solvent (RSOL)                           1.93000 angstr
  Dielectric Constant (EPSL)                                 78.39000

       COSMO equation is solved iteratively-               conjugate-gradient

       Maximun of Iterations for Charges (NCIX)                  1000
       Criterion for Charge convergence (CCNV)                1.0E-08

  COSMO charges included variationally in SCF

       COSMO included at every SCF cycle

  Geometry-dependent empirical factor                         0.00000

  C-Matrix calculated in cspmtx

  In cspmtx, C-Matrix calculated using fitted potential

-------------------------------------------



 -------------------------------------------
  COSMO surface
  Area             =          587.906
  Volume           =          934.189
  Number of Points =         1628
 -------------------------------------------



 ======================
 RI Hartree-Fock Scheme
 ======================
  
 Fit Set Quality     : GOOD
 Threshold Quality   : GOOD
 Integration Quality : GOOD
 Response Quality    : DEFAULT
 Is Range Separated  :  F
 
 RIHartreeFock Dependency: number of modified vectors:           4
 cosmo_calcen: 0.5 (esolb+esolc) (Hartrees) =   -0.029577

 Solvation energy (screening term,uncorrected) =    -18.559992 kcal/mol

 Solvation energy (dispersion and cavitation terms) =      1.099340 kcal/mol
 Solvation Energy Contributions (Hartrees)
          esola   esolb+esolc
     0.02957723   -0.05915445
 esol last cycle   -0.02957723
  
 Hartree-Fock exchange energy:   -531.721316023809     
 cosmo_calcen: 0.5 (esolb+esolc) (Hartrees) =   -0.029577

 Solvation energy (screening term,uncorrected) =    -18.559999 kcal/mol

 Solvation energy (dispersion and cavitation terms) =      1.099340 kcal/mol
 Solvation Energy Contributions (Hartrees)
          esola   esolb+esolc
     0.02957724   -0.05915448
 esol last cycle   -0.02957724

 Energy gradients wrt nuclear displacements
 ==========================================

     Atom      Cartesian (a.u./angstrom)
                 X         Y         Z
 ----------------------------------------
     1 Pa    0.010320 -0.001472  0.004662
     2 O    -0.001141 -0.002415  0.001284
     3 H     0.002371  0.003807 -0.003244
     4 O     0.002368 -0.001653 -0.000775
     5 H    -0.003696  0.003217  0.001612
     6 O     0.000126  0.001573  0.001768
     7 H    -0.001673 -0.002712 -0.004057
     8 O     0.000505  0.001571 -0.002131
     9 H    -0.001652 -0.003933  0.003451
    10 O     0.006207 -0.016179 -0.000696
    11 O     0.001275  0.000560  0.016084
    12 N    -0.018333  0.026802 -0.027390
    13 O     0.003324 -0.009166  0.009432
 ----------------------------------------
 Mulliken charges used for AMS results%charges...

 dE(predicted):    -0.25135E-03, dE(actual):     0.21739E-03, Trust radius:    0.039883, all in a.u.
 
----------------------------------------------------------------------
Geometry Convergence after Step   4       (Hartree/Angstrom,Angstrom)
----------------------------------------------------------------------
current energy                               -3.74165435 Hartree
energy change                       0.00021739     0.00001300    F
constrained gradient max            0.02739456     0.00010000    F
constrained gradient rms            0.00851110     0.00006667    F
gradient max                        0.02739360
gradient rms                        0.00851110
cart. step max                      0.01043368     0.00100000    F
cart. step rms                      0.00336189     0.00066667    F
 
 
--------
Geometry
--------
Formula: H4NO7Pa
Atoms
  Index Symbol   x (angstrom)   y (angstrom)   z (angstrom)
      1     Pa     0.42534791    -0.17417485    -0.11197692       adf.R=2.200
      2      O     1.35563187     1.27657742    -1.28168988       adf.R=1.517
      3      H     1.58011954     1.91220906    -1.97259487       adf.R=1.350
      4      O    -1.12808227     1.08970255     0.47112122       adf.R=1.517
      5      H    -1.83953101     1.72383045     0.61256090       adf.R=1.350
      6      O    -0.23476365    -1.24638447    -1.77025063       adf.R=1.517
      7      H    -0.59228437    -1.71632137    -2.53164729       adf.R=1.350
      8      O    -0.11114492    -1.67962191     1.22659530       adf.R=1.517
      9      H    -0.60903036    -2.34628045     1.71577904       adf.R=1.350
     10      O     2.30818910     0.25512892     1.48451728       adf.R=1.517
     11      O     2.70467551    -1.22967375    -0.03024196       adf.R=1.517
     12      N     3.13140718    -0.57201466     0.97415289       adf.R=1.608
     13      O     4.23163887    -0.76370214     1.44954865       adf.R=1.517
 
Total System Charge             0.00000
Bonding info available!
 
 *** GO1_GOStep5 ***

 SOLVATION
-------------------------------------------

  The Delley construction of COSMO surface surface is calculated

       Division Level for Surface Triangles (NDIV)                  3
       Final Division Level for Triangles (NFDIV)                   1
       Radius of the Solvent (RSOL)                           1.93000 angstr
  Dielectric Constant (EPSL)                                 78.39000

       COSMO equation is solved iteratively-               conjugate-gradient

       Maximun of Iterations for Charges (NCIX)                  1000
       Criterion for Charge convergence (CCNV)                1.0E-08

  COSMO charges included variationally in SCF

       COSMO included at every SCF cycle

  Geometry-dependent empirical factor                         0.00000

  C-Matrix calculated in cspmtx

  In cspmtx, C-Matrix calculated using fitted potential

-------------------------------------------



 -------------------------------------------
  COSMO surface
  Area             =          587.260
  Volume           =          933.215
  Number of Points =         1631
 -------------------------------------------



 ======================
 RI Hartree-Fock Scheme
 ======================
  
 Fit Set Quality     : GOOD
 Threshold Quality   : GOOD
 Integration Quality : GOOD
 Response Quality    : DEFAULT
 Is Range Separated  :  F
 
 RIHartreeFock Dependency: number of modified vectors:           4
 cosmo_calcen: 0.5 (esolb+esolc) (Hartrees) =   -0.029344

 Solvation energy (screening term,uncorrected) =    -18.413582 kcal/mol

 Solvation energy (dispersion and cavitation terms) =      1.098131 kcal/mol
 Solvation Energy Contributions (Hartrees)
          esola   esolb+esolc
     0.02934391   -0.05868782
 esol last cycle   -0.02934391
  
 Hartree-Fock exchange energy:   -531.720384504359     
 cosmo_calcen: 0.5 (esolb+esolc) (Hartrees) =   -0.029344

 Solvation energy (screening term,uncorrected) =    -18.413582 kcal/mol

 Solvation energy (dispersion and cavitation terms) =      1.098131 kcal/mol
 Solvation Energy Contributions (Hartrees)
          esola   esolb+esolc
     0.02934391   -0.05868782
 esol last cycle   -0.02934391

 Energy gradients wrt nuclear displacements
 ==========================================

     Atom      Cartesian (a.u./angstrom)
                 X         Y         Z
 ----------------------------------------
     1 Pa    0.009365 -0.001442  0.003918
     2 O    -0.000957 -0.001393  0.000097
     3 H     0.001787  0.002192 -0.001508
     4 O     0.001213 -0.000582 -0.000642
     5 H    -0.002004  0.001715  0.001259
     6 O    -0.000443  0.000896  0.000662
     7 H    -0.000829 -0.001586 -0.002232
     8 O    -0.000387  0.000582 -0.001424
     9 H    -0.000443 -0.002266  0.002207
    10 O     0.002452 -0.008944  0.000474
    11 O     0.000137 -0.000642  0.008840
    12 N    -0.013903  0.017748 -0.018436
    13 O     0.004013 -0.006277  0.006785
 ----------------------------------------
 Mulliken charges used for AMS results%charges...

 dE(predicted):    -0.36254E-03, dE(actual):    -0.39111E-03, Trust radius:    0.079766, all in a.u.
 
----------------------------------------------------------------------
Geometry Convergence after Step   5       (Hartree/Angstrom,Angstrom)
----------------------------------------------------------------------
current energy                               -3.74204546 Hartree
energy change                      -0.00039111     0.00001300    F
constrained gradient max            0.01844324     0.00010000    F
constrained gradient rms            0.00569726     0.00006667    F
gradient max                        0.01844227
gradient rms                        0.00569726
cart. step max                      0.02057387     0.00100000    F
cart. step rms                      0.00754703     0.00066667    F
 
 
--------
Geometry
--------
Formula: H4NO7Pa
Atoms
  Index Symbol   x (angstrom)   y (angstrom)   z (angstrom)
      1     Pa     0.42268991    -0.17376904    -0.10876849       adf.R=2.200
      2      O     1.35707879     1.27797273    -1.27196761       adf.R=1.517
      3      H     1.57036574     1.91043786    -1.96719188       adf.R=1.350
      4      O    -1.13290534     1.08743559     0.46867569       adf.R=1.517
      5      H    -1.84229792     1.72366063     0.60094636       adf.R=1.350
      6      O    -0.22679996    -1.24744181    -1.76768535       adf.R=1.517
      7      H    -0.58949228    -1.71307954    -2.52741079       adf.R=1.350
      8      O    -0.11490642    -1.67727882     1.22978762       adf.R=1.517
      9      H    -0.62594977    -2.33874860     1.70935763       adf.R=1.350
     10      O     2.31372294     0.24996749     1.49038878       adf.R=1.517
     11      O     2.70637876    -1.23654756    -0.03005551       adf.R=1.517
     12      N     3.13631039    -0.58453173     0.98082248       adf.R=1.608
     13      O     4.24797856    -0.74880239     1.42897478       adf.R=1.517
 
Total System Charge             0.00000
Bonding info available!
 
 *** GO1_GOStep6 ***

 SOLVATION
-------------------------------------------

  The Delley construction of COSMO surface surface is calculated

       Division Level for Surface Triangles (NDIV)                  3
       Final Division Level for Triangles (NFDIV)                   1
       Radius of the Solvent (RSOL)                           1.93000 angstr
  Dielectric Constant (EPSL)                                 78.39000

       COSMO equation is solved iteratively-               conjugate-gradient

       Maximun of Iterations for Charges (NCIX)                  1000
       Criterion for Charge convergence (CCNV)                1.0E-08

  COSMO charges included variationally in SCF

       COSMO included at every SCF cycle

  Geometry-dependent empirical factor                         0.00000

  C-Matrix calculated in cspmtx

  In cspmtx, C-Matrix calculated using fitted potential

-------------------------------------------



 -------------------------------------------
  COSMO surface
  Area             =          587.176
  Volume           =          933.519
  Number of Points =         1630
 -------------------------------------------



 ======================
 RI Hartree-Fock Scheme
 ======================
  
 Fit Set Quality     : GOOD
 Threshold Quality   : GOOD
 Integration Quality : GOOD
 Response Quality    : DEFAULT
 Is Range Separated  :  F
 
 RIHartreeFock Dependency: number of modified vectors:           4
 cosmo_calcen: 0.5 (esolb+esolc) (Hartrees) =   -0.029513

 Solvation energy (screening term,uncorrected) =    -18.519587 kcal/mol

 Solvation energy (dispersion and cavitation terms) =      1.097974 kcal/mol
 Solvation Energy Contributions (Hartrees)
          esola   esolb+esolc
     0.02951284   -0.05902568
 esol last cycle   -0.02951284
  
 Hartree-Fock exchange energy:   -531.722475884612     
 cosmo_calcen: 0.5 (esolb+esolc) (Hartrees) =   -0.029513

 Solvation energy (screening term,uncorrected) =    -18.519588 kcal/mol

 Solvation energy (dispersion and cavitation terms) =      1.097974 kcal/mol
 Solvation Energy Contributions (Hartrees)
          esola   esolb+esolc
     0.02951284   -0.05902568
 esol last cycle   -0.02951284

 Energy gradients wrt nuclear displacements
 ==========================================

     Atom      Cartesian (a.u./angstrom)
                 X         Y         Z
 ----------------------------------------
     1 Pa    0.004960 -0.000899  0.001481
     2 O    -0.000622 -0.000399 -0.001077
     3 H     0.001019  0.000241  0.000578
     4 O     0.000315  0.000484 -0.000439
     5 H     0.000003 -0.000117  0.000832
     6 O    -0.000810  0.000172 -0.000346
     7 H     0.000147 -0.000157  0.000026
     8 O    -0.001150 -0.000436 -0.000612
     9 H     0.000999 -0.000244  0.000670
    10 O     0.001108 -0.000855  0.000256
    11 O     0.000779  0.000199  0.001422
    12 N    -0.007158  0.002424 -0.003401
    13 O     0.000409 -0.000413  0.000610
 ----------------------------------------
 Mulliken charges used for AMS results%charges...

 dE(predicted):    -0.35579E-03, dE(actual):    -0.40656E-03, Trust radius:    0.159531, all in a.u.
 
----------------------------------------------------------------------
Geometry Convergence after Step   6       (Hartree/Angstrom,Angstrom)
----------------------------------------------------------------------
current energy                               -3.74245202 Hartree
energy change                      -0.00040656     0.00001300    F
constrained gradient max            0.00715328     0.00010000    F
constrained gradient rms            0.00168163     0.00006667    F
gradient max                        0.00715391
gradient rms                        0.00168163
cart. step max                      0.01559745     0.00100000    F
cart. step rms                      0.00671851     0.00066667    F
 
 
--------
Geometry
--------
Formula: H4NO7Pa
Atoms
  Index Symbol   x (angstrom)   y (angstrom)   z (angstrom)
      1     Pa     0.41991726    -0.17197184    -0.10509272       adf.R=2.200
      2      O     1.35658355     1.28225460    -1.26288664       adf.R=1.517
      3      H     1.55480151     1.91174635    -1.96502840       adf.R=1.350
      4      O    -1.14032694     1.08487648     0.46573267       adf.R=1.517
      5      H    -1.84786102     1.72510550     0.58679234       adf.R=1.350
      6      O    -0.21654662    -1.24920708    -1.76503751       adf.R=1.517
      7      H    -0.58765192    -1.71060778    -2.52304311       adf.R=1.350
      8      O    -0.11536354    -1.67472509     1.23502017       adf.R=1.517
      9      H    -0.64154722    -2.33157592     1.70412096       adf.R=1.350
     10      O     2.32359846     0.24476908     1.49440696       adf.R=1.517
     11      O     2.71058823    -1.24025588    -0.03045658       adf.R=1.517
     12      N     3.14412631    -0.59193861     0.98233337       adf.R=1.608
     13      O     4.26185534    -0.74919501     1.41901219       adf.R=1.517
 
Total System Charge             0.00000
Bonding info available!
 
 *** GO1_GOStep7 ***

 SOLVATION
-------------------------------------------

  The Delley construction of COSMO surface surface is calculated

       Division Level for Surface Triangles (NDIV)                  3
       Final Division Level for Triangles (NFDIV)                   1
       Radius of the Solvent (RSOL)                           1.93000 angstr
  Dielectric Constant (EPSL)                                 78.39000

       COSMO equation is solved iteratively-               conjugate-gradient

       Maximun of Iterations for Charges (NCIX)                  1000
       Criterion for Charge convergence (CCNV)                1.0E-08

  COSMO charges included variationally in SCF

       COSMO included at every SCF cycle

  Geometry-dependent empirical factor                         0.00000

  C-Matrix calculated in cspmtx

  In cspmtx, C-Matrix calculated using fitted potential

-------------------------------------------



 -------------------------------------------
  COSMO surface
  Area             =          586.346
  Volume           =          932.634
  Number of Points =         1622
 -------------------------------------------



 ======================
 RI Hartree-Fock Scheme
 ======================
  
 Fit Set Quality     : GOOD
 Threshold Quality   : GOOD
 Integration Quality : GOOD
 Response Quality    : DEFAULT
 Is Range Separated  :  F
 
 RIHartreeFock Dependency: number of modified vectors:           4
 cosmo_calcen: 0.5 (esolb+esolc) (Hartrees) =   -0.030060

 Solvation energy (screening term,uncorrected) =    -18.862980 kcal/mol

 Solvation energy (dispersion and cavitation terms) =      1.096422 kcal/mol
 Solvation Energy Contributions (Hartrees)
          esola   esolb+esolc
     0.03006007   -0.06012014
 esol last cycle   -0.03006007
  
 Hartree-Fock exchange energy:   -531.720325559995     
 cosmo_calcen: 0.5 (esolb+esolc) (Hartrees) =   -0.030060

 Solvation energy (screening term,uncorrected) =    -18.862988 kcal/mol

 Solvation energy (dispersion and cavitation terms) =      1.096422 kcal/mol
 Solvation Energy Contributions (Hartrees)
          esola   esolb+esolc
     0.03006008   -0.06012016
 esol last cycle   -0.03006008

 Energy gradients wrt nuclear displacements
 ==========================================

     Atom      Cartesian (a.u./angstrom)
                 X         Y         Z
 ----------------------------------------
     1 Pa    0.001174 -0.000488 -0.000330
     2 O    -0.000482 -0.000404 -0.001060
     3 H     0.000863 -0.000038  0.000875
     4 O     0.000554  0.000626 -0.000358
     5 H     0.000264 -0.000434  0.000756
     6 O    -0.000531  0.000129 -0.000226
     7 H     0.000226  0.000108  0.000377
     8 O    -0.001008 -0.000473 -0.000455
     9 H     0.001188  0.000073  0.000389
    10 O     0.000645  0.001922  0.000314
    11 O     0.001371  0.000451 -0.000986
    12 N    -0.006437 -0.002319  0.001091
    13 O     0.002172  0.000848 -0.000388
 ----------------------------------------
 Mulliken charges used for AMS results%charges...

 dE(predicted):    -0.72357E-04, dE(actual):    -0.15167E-03, Trust radius:    0.159531, all in a.u.
 
----------------------------------------------------------------------
Geometry Convergence after Step   7       (Hartree/Angstrom,Angstrom)
----------------------------------------------------------------------
current energy                               -3.74260368 Hartree
energy change                      -0.00015167     0.00001300    F
constrained gradient max            0.00643098     0.00010000    F
constrained gradient rms            0.00134765     0.00006667    F
gradient max                        0.00643170
gradient rms                        0.00134766
cart. step max                      0.03287398     0.00100000    F
cart. step rms                      0.01185948     0.00066667    F
 
 
--------
Geometry
--------
Formula: H4NO7Pa
Atoms
  Index Symbol   x (angstrom)   y (angstrom)   z (angstrom)
      1     Pa     0.41841800    -0.16970299    -0.09795922       adf.R=2.200
      2      O     1.35185980     1.29182810    -1.24874016       adf.R=1.517
      3      H     1.52192753     1.91693685    -1.96215471       adf.R=1.350
      4      O    -1.15160649     1.07884279     0.46028708       adf.R=1.517
      5      H    -1.85460560     1.72731944     0.56187887       adf.R=1.350
      6      O    -0.19846828    -1.25216322    -1.75980133       adf.R=1.517
      7      H    -0.58156092    -1.70729733    -2.51559417       adf.R=1.350
      8      O    -0.11730254    -1.66976987     1.24473231       adf.R=1.517
      9      H    -0.66959947    -2.31763857     1.69608756       adf.R=1.350
     10      O     2.34221384     0.23551126     1.49931578       adf.R=1.517
     11      O     2.71883373    -1.24573253    -0.03158972       adf.R=1.517
     12      N     3.16031626    -0.60168567     0.98158394       adf.R=1.608
     13      O     4.28174754    -0.75717347     1.40782749       adf.R=1.517
 
Total System Charge             0.00000
Bonding info available!
 
 *** GO1_GOStep8 ***

 SOLVATION
-------------------------------------------

  The Delley construction of COSMO surface surface is calculated

       Division Level for Surface Triangles (NDIV)                  3
       Final Division Level for Triangles (NFDIV)                   1
       Radius of the Solvent (RSOL)                           1.93000 angstr
  Dielectric Constant (EPSL)                                 78.39000

       COSMO equation is solved iteratively-               conjugate-gradient

       Maximun of Iterations for Charges (NCIX)                  1000
       Criterion for Charge convergence (CCNV)                1.0E-08

  COSMO charges included variationally in SCF

       COSMO included at every SCF cycle

  Geometry-dependent empirical factor                         0.00000

  C-Matrix calculated in cspmtx

  In cspmtx, C-Matrix calculated using fitted potential

-------------------------------------------



 -------------------------------------------
  COSMO surface
  Area             =          585.187
  Volume           =          931.667
  Number of Points =         1613
 -------------------------------------------



 ======================
 RI Hartree-Fock Scheme
 ======================
  
 Fit Set Quality     : GOOD
 Threshold Quality   : GOOD
 Integration Quality : GOOD
 Response Quality    : DEFAULT
 Is Range Separated  :  F
 
 RIHartreeFock Dependency: number of modified vectors:           4
 cosmo_calcen: 0.5 (esolb+esolc) (Hartrees) =   -0.030887

 Solvation energy (screening term,uncorrected) =    -19.381826 kcal/mol

 Solvation energy (dispersion and cavitation terms) =      1.094254 kcal/mol
 Solvation Energy Contributions (Hartrees)
          esola   esolb+esolc
     0.03088690   -0.06177381
 esol last cycle   -0.03088690
  
 Hartree-Fock exchange energy:   -531.718785571145     
 cosmo_calcen: 0.5 (esolb+esolc) (Hartrees) =   -0.030887

 Solvation energy (screening term,uncorrected) =    -19.381836 kcal/mol

 Solvation energy (dispersion and cavitation terms) =      1.094254 kcal/mol
 Solvation Energy Contributions (Hartrees)
          esola   esolb+esolc
     0.03088692   -0.06177384
 esol last cycle   -0.03088692

 Energy gradients wrt nuclear displacements
 ==========================================

     Atom      Cartesian (a.u./angstrom)
                 X         Y         Z
 ----------------------------------------
     1 Pa   -0.003724  0.000028 -0.002614
     2 O    -0.000533 -0.000612 -0.000720
     3 H     0.000739 -0.000135  0.000953
     4 O     0.001127  0.000675 -0.000268
     5 H     0.000315 -0.000626  0.000733
     6 O    -0.000016  0.000186  0.000156
     7 H     0.000149  0.000255  0.000516
     8 O    -0.000737 -0.000052 -0.000544
     9 H     0.001218  0.000168  0.000243
    10 O     0.000173  0.003215  0.000492
    11 O     0.001418  0.000418 -0.002186
    12 N    -0.001549 -0.005198  0.004579
    13 O     0.001419  0.001678 -0.001340
 ----------------------------------------
 Mulliken charges used for AMS results%charges...

 dE(predicted):    -0.80570E-04, dE(actual):    -0.20029E-03, Trust radius:    0.159531, all in a.u.
 
----------------------------------------------------------------------
Geometry Convergence after Step   8       (Hartree/Angstrom,Angstrom)
----------------------------------------------------------------------
current energy                               -3.74280397 Hartree
energy change                      -0.00020029     0.00001300    F
constrained gradient max            0.00515929     0.00010000    F
constrained gradient rms            0.00162961     0.00006667    F
gradient max                        0.00516099
gradient rms                        0.00162961
cart. step max                      0.05131991     0.00100000    F
cart. step rms                      0.01717029     0.00066667    F
 
 
--------
Geometry
--------
Formula: H4NO7Pa
Atoms
  Index Symbol   x (angstrom)   y (angstrom)   z (angstrom)
      1     Pa     0.41953569    -0.16736175    -0.08628446       adf.R=2.200
      2      O     1.34188840     1.30667598    -1.23032915       adf.R=1.517
      3      H     1.47060762     1.92516734    -1.95838632       adf.R=1.350
      4      O    -1.16665609     1.06830918     0.45226053       adf.R=1.517
      5      H    -1.86017918     1.73075998     0.52619027       adf.R=1.350
      6      O    -0.17342644    -1.25543817    -1.75136838       adf.R=1.517
      7      H    -0.56948249    -1.70283906    -2.50526635       adf.R=1.350
      8      O    -0.12142315    -1.66325111     1.25921324       adf.R=1.517
      9      H    -0.70976696    -2.29698617     1.68502730       adf.R=1.350
     10      O     2.36942397     0.22335182     1.50448211       adf.R=1.517
     11      O     2.73096223    -1.25217966    -0.03388271       adf.R=1.517
     12      N     3.18385511    -0.61260974     0.97772300       adf.R=1.608
     13      O     4.30683469    -0.77432382     1.39649462       adf.R=1.517
 
Total System Charge             0.00000
Bonding info available!
 
 *** GO1_GOStep9 ***

 SOLVATION
-------------------------------------------

  The Delley construction of COSMO surface surface is calculated

       Division Level for Surface Triangles (NDIV)                  3
       Final Division Level for Triangles (NFDIV)                   1
       Radius of the Solvent (RSOL)                           1.93000 angstr
  Dielectric Constant (EPSL)                                 78.39000

       COSMO equation is solved iteratively-               conjugate-gradient

       Maximun of Iterations for Charges (NCIX)                  1000
       Criterion for Charge convergence (CCNV)                1.0E-08

  COSMO charges included variationally in SCF

       COSMO included at every SCF cycle

  Geometry-dependent empirical factor                         0.00000

  C-Matrix calculated in cspmtx

  In cspmtx, C-Matrix calculated using fitted potential

-------------------------------------------



 -------------------------------------------
  COSMO surface
  Area             =          588.926
  Volume           =          938.848
  Number of Points =         1624
 -------------------------------------------



 ======================
 RI Hartree-Fock Scheme
 ======================
  
 Fit Set Quality     : GOOD
 Threshold Quality   : GOOD
 Integration Quality : GOOD
 Response Quality    : DEFAULT
 Is Range Separated  :  F
 
 RIHartreeFock Dependency: number of modified vectors:           4
 cosmo_calcen: 0.5 (esolb+esolc) (Hartrees) =   -0.031980

 Solvation energy (screening term,uncorrected) =    -20.067484 kcal/mol

 Solvation energy (dispersion and cavitation terms) =      1.101246 kcal/mol
 Solvation Energy Contributions (Hartrees)
          esola   esolb+esolc
     0.03197957   -0.06395914
 esol last cycle   -0.03197957
  
 Hartree-Fock exchange energy:   -531.717042912343     
 cosmo_calcen: 0.5 (esolb+esolc) (Hartrees) =   -0.031980

 Solvation energy (screening term,uncorrected) =    -20.067497 kcal/mol

 Solvation energy (dispersion and cavitation terms) =      1.101246 kcal/mol
 Solvation Energy Contributions (Hartrees)
          esola   esolb+esolc
     0.03197959   -0.06395918
 esol last cycle   -0.03197959

 Energy gradients wrt nuclear displacements
 ==========================================

     Atom      Cartesian (a.u./angstrom)
                 X         Y         Z
 ----------------------------------------
     1 Pa   -0.008505 -0.000023 -0.004705
     2 O    -0.000707 -0.000808 -0.000283
     3 H     0.000656 -0.000038  0.000796
     4 O     0.001760  0.000819 -0.000163
     5 H     0.000113 -0.000640  0.000794
     6 O     0.000590  0.000326  0.000503
     7 H    -0.000062  0.000258  0.000439
     8 O    -0.000417  0.000713 -0.000783
     9 H     0.001019  0.000043  0.000247
    10 O    -0.000312  0.003023  0.001014
    11 O     0.001155 -0.000122 -0.001854
    12 N     0.004331 -0.004829  0.005239
    13 O     0.000380  0.001279 -0.001245
 ----------------------------------------
 Mulliken charges used for AMS results%charges...

 dE(predicted):    -0.86790E-04, dE(actual):    -0.23700E-03, Trust radius:    0.159531, all in a.u.
 
----------------------------------------------------------------------
Geometry Convergence after Step   9       (Hartree/Angstrom,Angstrom)
----------------------------------------------------------------------
current energy                               -3.74304097 Hartree
energy change                      -0.00023700     0.00001300    F
constrained gradient max            0.00850716     0.00010000    F
constrained gradient rms            0.00222374     0.00006667    F
gradient max                        0.00850694
gradient rms                        0.00222374
cart. step max                      0.06175198     0.00100000    F
cart. step rms                      0.01994298     0.00066667    F
 
 
--------
Geometry
--------
Formula: H4NO7Pa
Atoms
  Index Symbol   x (angstrom)   y (angstrom)   z (angstrom)
      1     Pa     0.42437488    -0.16516829    -0.07035364       adf.R=2.200
      2      O     1.32807646     1.32433286    -1.21048059       adf.R=1.517
      3      H     1.40885564     1.93374735    -1.95347978       adf.R=1.350
      4      O    -1.18338045     1.05372325     0.44263741       adf.R=1.517
      5      H    -1.86076345     1.73569456     0.48471793       adf.R=1.350
      6      O    -0.14654047    -1.25762224    -1.73951189       adf.R=1.517
      7      H    -0.55119345    -1.69808973    -2.49319808       adf.R=1.350
      8      O    -0.12800877    -1.65707486     1.27607012       adf.R=1.517
      9      H    -0.75588945    -2.27294194     1.67158013       adf.R=1.350
     10      O     2.40033187     0.20994948     1.50953317       adf.R=1.517
     11      O     2.74419631    -1.25808308    -0.03757230       adf.R=1.517
     12      N     3.20958976    -0.62324177     0.97131097       adf.R=1.608
     13      O     4.33252453    -0.79595079     1.38462025       adf.R=1.517
 
Total System Charge             0.00000
Bonding info available!
 
 *** GO1_GOStep10 ***

 SOLVATION
-------------------------------------------

  The Delley construction of COSMO surface surface is calculated

       Division Level for Surface Triangles (NDIV)                  3
       Final Division Level for Triangles (NFDIV)                   1
       Radius of the Solvent (RSOL)                           1.93000 angstr
  Dielectric Constant (EPSL)                                 78.39000

       COSMO equation is solved iteratively-               conjugate-gradient

       Maximun of Iterations for Charges (NCIX)                  1000
       Criterion for Charge convergence (CCNV)                1.0E-08

  COSMO charges included variationally in SCF

       COSMO included at every SCF cycle

  Geometry-dependent empirical factor                         0.00000

  C-Matrix calculated in cspmtx

  In cspmtx, C-Matrix calculated using fitted potential

-------------------------------------------



 -------------------------------------------
  COSMO surface
  Area             =          587.373
  Volume           =          937.907
  Number of Points =         1630
 -------------------------------------------



 ======================
 RI Hartree-Fock Scheme
 ======================
  
 Fit Set Quality     : GOOD
 Threshold Quality   : GOOD
 Integration Quality : GOOD
 Response Quality    : DEFAULT
 Is Range Separated  :  F
 
 RIHartreeFock Dependency: number of modified vectors:           4
 cosmo_calcen: 0.5 (esolb+esolc) (Hartrees) =   -0.033044

 Solvation energy (screening term,uncorrected) =    -20.735708 kcal/mol

 Solvation energy (dispersion and cavitation terms) =      1.098341 kcal/mol
 Solvation Energy Contributions (Hartrees)
          esola   esolb+esolc
     0.03304445   -0.06608890
 esol last cycle   -0.03304445
  
 Hartree-Fock exchange energy:   -531.716162113510     
 cosmo_calcen: 0.5 (esolb+esolc) (Hartrees) =   -0.033044

 Solvation energy (screening term,uncorrected) =    -20.735719 kcal/mol

 Solvation energy (dispersion and cavitation terms) =      1.098341 kcal/mol
 Solvation Energy Contributions (Hartrees)
          esola   esolb+esolc
     0.03304447   -0.06608894
 esol last cycle   -0.03304447

 Energy gradients wrt nuclear displacements
 ==========================================

     Atom      Cartesian (a.u./angstrom)
                 X         Y         Z
 ----------------------------------------
     1 Pa   -0.011426 -0.000236 -0.005611
     2 O    -0.000957 -0.000854  0.000030
     3 H     0.000560  0.000207  0.000474
     4 O     0.002147  0.001099 -0.000004
     5 H    -0.000256 -0.000565  0.000927
     6 O     0.001031  0.000259  0.000509
     7 H    -0.000326  0.000161  0.000200
     8 O    -0.000292  0.001359 -0.000918
     9 H     0.000681 -0.000195  0.000299
    10 O    -0.000021  0.001270  0.001301
    11 O     0.001038 -0.000732 -0.000266
    12 N     0.009187 -0.002058  0.003672
    13 O    -0.001367  0.000286 -0.000614
 ----------------------------------------
 Mulliken charges used for AMS results%charges...

 dE(predicted):    -0.83096E-04, dE(actual):    -0.24576E-03, Trust radius:    0.159531, all in a.u.
 
----------------------------------------------------------------------
Geometry Convergence after Step  10       (Hartree/Angstrom,Angstrom)
----------------------------------------------------------------------
current energy                               -3.74328673 Hartree
energy change                      -0.00024576     0.00001300    F
constrained gradient max            0.01142738     0.00010000    F
constrained gradient rms            0.00270665     0.00006667    F
gradient max                        0.01142709
gradient rms                        0.00270665
cart. step max                      0.07340708     0.00100000    F
cart. step rms                      0.02356837     0.00066667    F
 
 
--------
Geometry
--------
Formula: H4NO7Pa
Atoms
  Index Symbol   x (angstrom)   y (angstrom)   z (angstrom)
      1     Pa     0.43340022    -0.16288121    -0.04824943       adf.R=2.200
      2      O     1.31058538     1.34502282    -1.18715996       adf.R=1.517
      3      H     1.33544856     1.94103816    -1.94545580       adf.R=1.350
      4      O    -1.20370727     1.03275923     0.42975174       adf.R=1.517
      5      H    -1.85277782     1.74332827     0.43430998       adf.R=1.350
      6      O    -0.11820069    -1.25773366    -1.72251447       adf.R=1.517
      7      H    -0.52505473    -1.69241199    -2.47861861       adf.R=1.350
      8      O    -0.13719280    -1.65187927     1.29605578       adf.R=1.517
      9      H    -0.80875392    -2.24469438     1.65461447       adf.R=1.350
     10      O     2.43439921     0.19451333     1.51587914       adf.R=1.517
     11      O     2.75721250    -1.26371318    -0.04309515       adf.R=1.517
     12      N     3.23662714    -0.63439454     0.96236527       adf.R=1.608
     13      O     4.36018761    -0.81967877     1.36799076       adf.R=1.517
 
Total System Charge             0.00000
Bonding info available!
 
 *** GO1_GOStep11 ***

 SOLVATION
-------------------------------------------

  The Delley construction of COSMO surface surface is calculated

       Division Level for Surface Triangles (NDIV)                  3
       Final Division Level for Triangles (NFDIV)                   1
       Radius of the Solvent (RSOL)                           1.93000 angstr
  Dielectric Constant (EPSL)                                 78.39000

       COSMO equation is solved iteratively-               conjugate-gradient

       Maximun of Iterations for Charges (NCIX)                  1000
       Criterion for Charge convergence (CCNV)                1.0E-08

  COSMO charges included variationally in SCF

       COSMO included at every SCF cycle

  Geometry-dependent empirical factor                         0.00000

  C-Matrix calculated in cspmtx

  In cspmtx, C-Matrix calculated using fitted potential

-------------------------------------------



 -------------------------------------------
  COSMO surface
  Area             =          585.849
  Volume           =          938.388
  Number of Points =         1623
 -------------------------------------------



 ======================
 RI Hartree-Fock Scheme
 ======================
  
 Fit Set Quality     : GOOD
 Threshold Quality   : GOOD
 Integration Quality : GOOD
 Response Quality    : DEFAULT
 Is Range Separated  :  F
 
 RIHartreeFock Dependency: number of modified vectors:           4
 cosmo_calcen: 0.5 (esolb+esolc) (Hartrees) =   -0.034039

 Solvation energy (screening term,uncorrected) =    -21.359764 kcal/mol

 Solvation energy (dispersion and cavitation terms) =      1.095492 kcal/mol
 Solvation Energy Contributions (Hartrees)
          esola   esolb+esolc
     0.03403895   -0.06807790
 esol last cycle   -0.03403895
  
 Hartree-Fock exchange energy:   -531.715633966889     
 cosmo_calcen: 0.5 (esolb+esolc) (Hartrees) =   -0.034039

 Solvation energy (screening term,uncorrected) =    -21.359768 kcal/mol

 Solvation energy (dispersion and cavitation terms) =      1.095492 kcal/mol
 Solvation Energy Contributions (Hartrees)
          esola   esolb+esolc
     0.03403895   -0.06807791
 esol last cycle   -0.03403895

 Energy gradients wrt nuclear displacements
 ==========================================

     Atom      Cartesian (a.u./angstrom)
                 X         Y         Z
 ----------------------------------------
     1 Pa   -0.012268 -0.000601 -0.005501
     2 O    -0.001161 -0.000698  0.000140
     3 H     0.000366  0.000448  0.000122
     4 O     0.002184  0.001553  0.000135
     5 H    -0.000625 -0.000451  0.001052
     6 O     0.001134  0.000021  0.000087
     7 H    -0.000543 -0.000011 -0.000065
     8 O    -0.000351  0.001871 -0.001014
     9 H     0.000212 -0.000486  0.000338
    10 O     0.000672 -0.000920  0.001891
    11 O     0.001276 -0.001557  0.001616
    12 N     0.011782  0.001867  0.000900
    13 O    -0.002677 -0.001036  0.000302
 ----------------------------------------
 Mulliken charges used for AMS results%charges...

 dE(predicted):    -0.97775E-04, dE(actual):    -0.24179E-03, Trust radius:    0.319062, all in a.u.
 
----------------------------------------------------------------------
Geometry Convergence after Step  11       (Hartree/Angstrom,Angstrom)
----------------------------------------------------------------------
current energy                               -3.74352852 Hartree
energy change                      -0.00024179     0.00001300    F
constrained gradient max            0.01226971     0.00010000    F
constrained gradient rms            0.00304575     0.00006667    F
gradient max                        0.01226936
gradient rms                        0.00304575
cart. step max                      0.12065701     0.00100000    F
cart. step rms                      0.03959057     0.00066667    F
 
 
--------
Geometry
--------
Formula: H4NO7Pa
Atoms
  Index Symbol   x (angstrom)   y (angstrom)   z (angstrom)
      1     Pa     0.45131952    -0.15851753    -0.00672992       adf.R=2.200
      2      O     1.28103536     1.37918476    -1.14605422       adf.R=1.517
      3      H     1.21479155     1.94552556    -1.92522729       adf.R=1.350
      4      O    -1.24081774     0.98943179     0.40309840       adf.R=1.517
      5      H    -1.82344443     1.75415113     0.34949749       adf.R=1.350
      6      O    -0.07557634    -1.25344274    -1.68998141       adf.R=1.517
      7      H    -0.47433442    -1.68126510    -2.45446892       adf.R=1.350
      8      O    -0.15369098    -1.64464167     1.33072935       adf.R=1.517
      9      H    -0.89215029    -2.19295389     1.62477472       adf.R=1.350
     10      O     2.48667468     0.17033850     1.52536539       adf.R=1.517
     11      O     2.77212149    -1.27159319    -0.05418875       adf.R=1.517
     12      N     3.27490218    -0.65201905     0.94530098       adf.R=1.608
     13      O     4.40134283    -0.85492378     1.33375789       adf.R=1.517
 
Total System Charge             0.00000
Bonding info available!
 
 *** GO1_GOStep12 ***

 SOLVATION
-------------------------------------------

  The Delley construction of COSMO surface surface is calculated

       Division Level for Surface Triangles (NDIV)                  3
       Final Division Level for Triangles (NFDIV)                   1
       Radius of the Solvent (RSOL)                           1.93000 angstr
  Dielectric Constant (EPSL)                                 78.39000

       COSMO equation is solved iteratively-               conjugate-gradient

       Maximun of Iterations for Charges (NCIX)                  1000
       Criterion for Charge convergence (CCNV)                1.0E-08

  COSMO charges included variationally in SCF

       COSMO included at every SCF cycle

  Geometry-dependent empirical factor                         0.00000

  C-Matrix calculated in cspmtx

  In cspmtx, C-Matrix calculated using fitted potential

-------------------------------------------



 -------------------------------------------
  COSMO surface
  Area             =          584.572
  Volume           =          940.929
  Number of Points =         1599
 -------------------------------------------



 ======================
 RI Hartree-Fock Scheme
 ======================
  
 Fit Set Quality     : GOOD
 Threshold Quality   : GOOD
 Integration Quality : GOOD
 Response Quality    : DEFAULT
 Is Range Separated  :  F
 
 RIHartreeFock Dependency: number of modified vectors:           4
 cosmo_calcen: 0.5 (esolb+esolc) (Hartrees) =   -0.035414

 Solvation energy (screening term,uncorrected) =    -22.222634 kcal/mol

 Solvation energy (dispersion and cavitation terms) =      1.093105 kcal/mol
 Solvation Energy Contributions (Hartrees)
          esola   esolb+esolc
     0.03541402   -0.07082804
 esol last cycle   -0.03541402
  
 Hartree-Fock exchange energy:   -531.716215530874     
 cosmo_calcen: 0.5 (esolb+esolc) (Hartrees) =   -0.035414

 Solvation energy (screening term,uncorrected) =    -22.222630 kcal/mol

 Solvation energy (dispersion and cavitation terms) =      1.093105 kcal/mol
 Solvation Energy Contributions (Hartrees)
          esola   esolb+esolc
     0.03541401   -0.07082802
 esol last cycle   -0.03541401

 Energy gradients wrt nuclear displacements
 ==========================================

     Atom      Cartesian (a.u./angstrom)
                 X         Y         Z
 ----------------------------------------
     1 Pa   -0.011296 -0.000203 -0.004026
     2 O    -0.001213 -0.000450  0.000177
     3 H    -0.000196  0.000587 -0.000326
     4 O     0.002271  0.001294 -0.000092
     5 H    -0.000908 -0.000204  0.001201
     6 O     0.000757 -0.000515 -0.001001
     7 H    -0.000690 -0.000251 -0.000419
     8 O    -0.000788  0.002274 -0.000814
     9 H    -0.000388 -0.000544  0.000161
    10 O     0.002197 -0.004099  0.002738
    11 O     0.001755 -0.002731  0.004230
    12 N     0.012453  0.007557 -0.003484
    13 O    -0.003954 -0.002714  0.001656
 ----------------------------------------
 Mulliken charges used for AMS results%charges...

 dE(predicted):    -0.18796E-03, dE(actual):    -0.25358E-03, Trust radius:    0.319062, all in a.u.
 
----------------------------------------------------------------------
Geometry Convergence after Step  12       (Hartree/Angstrom,Angstrom)
----------------------------------------------------------------------
current energy                               -3.74378210 Hartree
energy change                      -0.00025358     0.00001300    F
constrained gradient max            0.01246105     0.00010000    F
constrained gradient rms            0.00347967     0.00006667    F
gradient max                        0.01245812
gradient rms                        0.00347968
cart. step max                      0.07166996     0.00100000    F
cart. step rms                      0.02616963     0.00066667    F
 
 
--------
Geometry
--------
Formula: H4NO7Pa
Atoms
  Index Symbol   x (angstrom)   y (angstrom)   z (angstrom)
      1     Pa     0.46679940    -0.15443912     0.02639659       adf.R=2.200
      2      O     1.26265502     1.40141814    -1.11705783       adf.R=1.517
      3      H     1.14312160     1.94316959    -1.90780348       adf.R=1.350
      4      O    -1.26980616     0.95173869     0.37951405       adf.R=1.517
      5      H    -1.78612883     1.76043296     0.29332728       adf.R=1.350
      6      O    -0.05518367    -1.24503777    -1.66261748       adf.R=1.517
      7      H    -0.43235981    -1.67274401    -2.43794827       adf.R=1.350
      8      O    -0.16334475    -1.64325180     1.35442037       adf.R=1.517
      9      H    -0.93975533    -2.15973097     1.60700871       adf.R=1.350
     10      O     2.51417832     0.15810163     1.52937164       adf.R=1.517
     11      O     2.77185935    -1.27388549    -0.06458787       adf.R=1.517
     12      N     3.29009733    -0.66215587     0.93138627       adf.R=1.608
     13      O     4.42004094    -0.87434119     1.30446372       adf.R=1.517
 
Total System Charge             0.00000
Bonding info available!
 
 *** GO1_GOStep13 ***

 SOLVATION
-------------------------------------------

  The Delley construction of COSMO surface surface is calculated

       Division Level for Surface Triangles (NDIV)                  3
       Final Division Level for Triangles (NFDIV)                   1
       Radius of the Solvent (RSOL)                           1.93000 angstr
  Dielectric Constant (EPSL)                                 78.39000

       COSMO equation is solved iteratively-               conjugate-gradient

       Maximun of Iterations for Charges (NCIX)                  1000
       Criterion for Charge convergence (CCNV)                1.0E-08

  COSMO charges included variationally in SCF

       COSMO included at every SCF cycle

  Geometry-dependent empirical factor                         0.00000

  C-Matrix calculated in cspmtx

  In cspmtx, C-Matrix calculated using fitted potential

-------------------------------------------



 -------------------------------------------
  COSMO surface
  Area             =          583.655
  Volume           =          942.346
  Number of Points =         1582
 -------------------------------------------



 ======================
 RI Hartree-Fock Scheme
 ======================
  
 Fit Set Quality     : GOOD
 Threshold Quality   : GOOD
 Integration Quality : GOOD
 Response Quality    : DEFAULT
 Is Range Separated  :  F
 
 RIHartreeFock Dependency: number of modified vectors:           4
 cosmo_calcen: 0.5 (esolb+esolc) (Hartrees) =   -0.035939

 Solvation energy (screening term,uncorrected) =    -22.552214 kcal/mol

 Solvation energy (dispersion and cavitation terms) =      1.091390 kcal/mol
 Solvation Energy Contributions (Hartrees)
          esola   esolb+esolc
     0.03593924   -0.07187847
 esol last cycle   -0.03593924
  
 Hartree-Fock exchange energy:   -531.717657929487     
 cosmo_calcen: 0.5 (esolb+esolc) (Hartrees) =   -0.035939

 Solvation energy (screening term,uncorrected) =    -22.552224 kcal/mol

 Solvation energy (dispersion and cavitation terms) =      1.091390 kcal/mol
 Solvation Energy Contributions (Hartrees)
          esola   esolb+esolc
     0.03593925   -0.07187850
 esol last cycle   -0.03593925

 Energy gradients wrt nuclear displacements
 ==========================================

     Atom      Cartesian (a.u./angstrom)
                 X         Y         Z
 ----------------------------------------
     1 Pa   -0.006800  0.000704 -0.000886
     2 O    -0.001034 -0.000138 -0.000247
     3 H    -0.000653  0.000659 -0.000597
     4 O     0.001953  0.000135 -0.000651
     5 H    -0.000779  0.000151  0.001273
     6 O    -0.000416 -0.000913 -0.002073
     7 H    -0.000559 -0.000385 -0.000540
     8 O    -0.001000  0.001982 -0.000588
     9 H    -0.000947 -0.000522  0.000041
    10 O     0.003291 -0.005215  0.002821
    11 O     0.002221 -0.003083  0.004961
    12 N     0.008215  0.009920 -0.005822
    13 O    -0.003491 -0.003295  0.002308
 ----------------------------------------
 Mulliken charges used for AMS results%charges...

 dE(predicted):    -0.19484E-03, dE(actual):    -0.13627E-03, Trust radius:    0.319062, all in a.u.
 
----------------------------------------------------------------------
Geometry Convergence after Step  13       (Hartree/Angstrom,Angstrom)
----------------------------------------------------------------------
current energy                               -3.74391837 Hartree
energy change                      -0.00013627     0.00001300    F
constrained gradient max            0.00999349     0.00010000    F
constrained gradient rms            0.00312971     0.00006667    F
gradient max                        0.00999151
gradient rms                        0.00312974
cart. step max                      0.03137353     0.00100000    F
cart. step rms                      0.01242212     0.00066667    F
 
 
--------
Geometry
--------
Formula: H4NO7Pa
Atoms
  Index Symbol   x (angstrom)   y (angstrom)   z (angstrom)
      1     Pa     0.47547935    -0.15214207     0.04466897       adf.R=2.200
      2      O     1.26459395     1.40553987    -1.10436873       adf.R=1.517
      3      H     1.14787243     1.94083333    -1.89974945       adf.R=1.350
      4      O    -1.28742315     0.93070238     0.36582807       adf.R=1.517
      5      H    -1.75475529     1.76825595     0.27187271       adf.R=1.350
      6      O    -0.06427302    -1.23412774    -1.64503384       adf.R=1.517
      7      H    -0.40719405    -1.66945638    -2.43153670       adf.R=1.350
      8      O    -0.15931745    -1.65171884     1.36287181       adf.R=1.517
      9      H    -0.93821461    -2.16501926     1.61359089       adf.R=1.350
     10      O     2.50711257     0.16037095     1.52676330       adf.R=1.517
     11      O     2.75222051    -1.27040756    -0.07334662       adf.R=1.517
     12      N     3.27524724    -0.66314619     0.92262835       adf.R=1.608
     13      O     4.41082491    -0.87040966     1.28168495       adf.R=1.517
 
Total System Charge             0.00000
Bonding info available!
 
 *** GO1_GOStep14 ***

 SOLVATION
-------------------------------------------

  The Delley construction of COSMO surface surface is calculated

       Division Level for Surface Triangles (NDIV)                  3
       Final Division Level for Triangles (NFDIV)                   1
       Radius of the Solvent (RSOL)                           1.93000 angstr
  Dielectric Constant (EPSL)                                 78.39000

       COSMO equation is solved iteratively-               conjugate-gradient

       Maximun of Iterations for Charges (NCIX)                  1000
       Criterion for Charge convergence (CCNV)                1.0E-08

  COSMO charges included variationally in SCF

       COSMO included at every SCF cycle

  Geometry-dependent empirical factor                         0.00000

  C-Matrix calculated in cspmtx

  In cspmtx, C-Matrix calculated using fitted potential

-------------------------------------------



 -------------------------------------------
  COSMO surface
  Area             =          581.447
  Volume           =          940.315
  Number of Points =         1578
 -------------------------------------------



 ======================
 RI Hartree-Fock Scheme
 ======================
  
 Fit Set Quality     : GOOD
 Threshold Quality   : GOOD
 Integration Quality : GOOD
 Response Quality    : DEFAULT
 Is Range Separated  :  F
 
 RIHartreeFock Dependency: number of modified vectors:           4
 cosmo_calcen: 0.5 (esolb+esolc) (Hartrees) =   -0.035408

 Solvation energy (screening term,uncorrected) =    -22.219014 kcal/mol

 Solvation energy (dispersion and cavitation terms) =      1.087260 kcal/mol
 Solvation Energy Contributions (Hartrees)
          esola   esolb+esolc
     0.03540825   -0.07081650
 esol last cycle   -0.03540825
  
 Hartree-Fock exchange energy:   -531.719926843710     
 cosmo_calcen: 0.5 (esolb+esolc) (Hartrees) =   -0.035408

 Solvation energy (screening term,uncorrected) =    -22.219012 kcal/mol

 Solvation energy (dispersion and cavitation terms) =      1.087260 kcal/mol
 Solvation Energy Contributions (Hartrees)
          esola   esolb+esolc
     0.03540825   -0.07081649
 esol last cycle   -0.03540825

 Energy gradients wrt nuclear displacements
 ==========================================

     Atom      Cartesian (a.u./angstrom)
                 X         Y         Z
 ----------------------------------------
     1 Pa    0.002085  0.000697  0.002752
     2 O    -0.000751  0.000232 -0.001255
     3 H    -0.000571  0.000716 -0.000473
     4 O     0.001412 -0.001169 -0.001410
     5 H    -0.000581  0.000595  0.001275
     6 O    -0.002060 -0.000815 -0.002454
     7 H    -0.000181 -0.000301 -0.000299
     8 O    -0.001803  0.000612 -0.000483
     9 H    -0.000788 -0.000396  0.000251
    10 O     0.003089 -0.003215  0.001954
    11 O     0.002203 -0.001737  0.003431
    12 N    -0.001379  0.007004 -0.005073
    13 O    -0.000675 -0.002224  0.001784
 ----------------------------------------
 Mulliken charges used for AMS results%charges...
 Rebuilding optimization coordinates
Bad geometry: could not add a dihedral for atom    7

 dE(predicted):    -0.25453E-03, dE(actual):    -0.18961E-03, Trust radius:    0.319062, all in a.u.
 
----------------------------------------------------------------------
Geometry Convergence after Step  14       (Hartree/Angstrom,Angstrom)
----------------------------------------------------------------------
current energy                               -3.74410798 Hartree
energy change                      -0.00018961     0.00001300    F
constrained gradient max            0.00707210     0.00010000    F
constrained gradient rms            0.00207369     0.00006667    F
gradient max                        0.00707236
gradient rms                        0.00207378
cart. step max                      0.02372693     0.00100000    F
cart. step rms                      0.00880341     0.00066667    F
 
 
--------
Geometry
--------
Formula: H4NO7Pa
Atoms
  Index Symbol   x (angstrom)   y (angstrom)   z (angstrom)
      1     Pa     0.46896616    -0.14901078     0.04870669       adf.R=2.200
      2      O     1.27569685     1.40470054    -1.09343540       adf.R=1.517
      3      H     1.17159936     1.93761595    -1.89175903       adf.R=1.350
      4      O    -1.30174934     0.92772090     0.35979579       adf.R=1.517
      5      H    -1.75294989     1.77365882     0.26274366       adf.R=1.350
      6      O    -0.06734316    -1.23088064    -1.63974336       adf.R=1.517
      7      H    -0.39855714    -1.66899141    -2.42953886       adf.R=1.350
      8      O    -0.14813517    -1.65553000     1.36857562       adf.R=1.517
      9      H    -0.92280048    -2.17265858     1.62308954       adf.R=1.350
     10      O     2.49721009     0.16208727     1.52311731       adf.R=1.517
     11      O     2.73595028    -1.27007254    -0.07869006       adf.R=1.517
     12      N     3.26141459    -0.66581591     0.91824573       adf.R=1.608
     13      O     4.40287123    -0.86354884     1.26476608       adf.R=1.517
 
Total System Charge             0.00000
Bonding info available!
 
 *** GO1_GOStep15 ***

 SOLVATION
-------------------------------------------

  The Delley construction of COSMO surface surface is calculated

       Division Level for Surface Triangles (NDIV)                  3
       Final Division Level for Triangles (NFDIV)                   1
       Radius of the Solvent (RSOL)                           1.93000 angstr
  Dielectric Constant (EPSL)                                 78.39000

       COSMO equation is solved iteratively-               conjugate-gradient

       Maximun of Iterations for Charges (NCIX)                  1000
       Criterion for Charge convergence (CCNV)                1.0E-08

  COSMO charges included variationally in SCF

       COSMO included at every SCF cycle

  Geometry-dependent empirical factor                         0.00000

  C-Matrix calculated in cspmtx

  In cspmtx, C-Matrix calculated using fitted potential

-------------------------------------------



 -------------------------------------------
  COSMO surface
  Area             =          580.057
  Volume           =          938.202
  Number of Points =         1580
 -------------------------------------------



 ======================
 RI Hartree-Fock Scheme
 ======================
  
 Fit Set Quality     : GOOD
 Threshold Quality   : GOOD
 Integration Quality : GOOD
 Response Quality    : DEFAULT
 Is Range Separated  :  F
 
 RIHartreeFock Dependency: number of modified vectors:           4
 cosmo_calcen: 0.5 (esolb+esolc) (Hartrees) =   -0.035439

 Solvation energy (screening term,uncorrected) =    -22.238161 kcal/mol

 Solvation energy (dispersion and cavitation terms) =      1.084661 kcal/mol
 Solvation Energy Contributions (Hartrees)
          esola   esolb+esolc
     0.03543876   -0.07087752
 esol last cycle   -0.03543876
  
 Hartree-Fock exchange energy:   -531.721148169615     
 cosmo_calcen: 0.5 (esolb+esolc) (Hartrees) =   -0.035439

[...]
    11     O       0.057080  -0.052916  -0.078800
    12     N      -0.034834  -0.024833  -0.055634
    13     O      -0.052111   0.049065   0.051260
 
 Mode:    21      Frequency (cm-1):      224.9885     Intensity (km/mol):      183.2505
 Index  Atom      ---- Displacements (x/y/z) ----
     1    Pa      -0.006491   0.001617   0.001253
     2     O       0.111558  -0.068380  -0.034592
     3     H      -0.769346   0.359298   0.051658
     4     O      -0.003508  -0.030889   0.041615
     5     H      -0.247032  -0.139925   0.058688
     6     O       0.070318   0.041890  -0.043608
     7     H      -0.020642  -0.076505   0.069747
     8     O      -0.030826   0.051096   0.037502
     9     H       0.241607  -0.267500  -0.127467
    10     O      -0.000651   0.003835  -0.011866
    11     O      -0.001808  -0.008869   0.001750
    12     N      -0.001313  -0.003840  -0.006687
    13     O      -0.000059  -0.000828  -0.006365
 
 Mode:    22      Frequency (cm-1):      259.7751     Intensity (km/mol):      202.3135
 Index  Atom      ---- Displacements (x/y/z) ----
     1    Pa      -0.000382  -0.003728  -0.002826
     2     O       0.022556  -0.028034  -0.018079
     3     H      -0.144561   0.045966  -0.004889
     4     O      -0.026471  -0.046048  -0.049535
     5     H       0.378294   0.440780   0.707791
     6     O      -0.057537   0.022269  -0.014591
     7     H       0.309042  -0.085935  -0.021517
     8     O      -0.004976   0.010042   0.006615
     9     H      -0.042837   0.069124   0.083137
    10     O       0.040647   0.015596   0.053533
    11     O      -0.019657   0.058043   0.010571
    12     N       0.009980   0.021008   0.021177
    13     O       0.010723  -0.026018  -0.014412
 
 Mode:    23      Frequency (cm-1):      299.6665     Intensity (km/mol):      333.5990
 Index  Atom      ---- Displacements (x/y/z) ----
     1    Pa       0.007397   0.002424   0.007762
     2     O      -0.035028  -0.077314  -0.048134
     3     H       0.313113   0.481022   0.222896
     4     O      -0.037632  -0.015898   0.010590
     5     H       0.160864   0.036486  -0.099005
     6     O       0.003662   0.007053  -0.004745
     7     H      -0.065967   0.033402  -0.007006
     8     O      -0.048856   0.022765  -0.091421
     9     H       0.350921  -0.169728   0.634654
    10     O      -0.015110  -0.001564  -0.010551
    11     O      -0.000052  -0.000891  -0.012027
    12     N      -0.010311   0.000996  -0.007558
    13     O      -0.012617   0.005946   0.003427
 
 Mode:    24      Frequency (cm-1):      320.3261     Intensity (km/mol):      165.9981
 Index  Atom      ---- Displacements (x/y/z) ----
     1    Pa       0.001088   0.002832   0.000412
     2     O      -0.071367  -0.097289  -0.040663
     3     H       0.440260   0.519559   0.271615
     4     O       0.019523  -0.000989  -0.009912
     5     H      -0.089894  -0.009467   0.103359
     6     O       0.024589   0.058583  -0.050214
     7     H      -0.057572  -0.153339   0.133164
     8     O       0.024918  -0.029292   0.093654
     9     H      -0.282779   0.103098  -0.524280
    10     O      -0.003219  -0.000423   0.001404
    11     O      -0.004798  -0.001811   0.002060
    12     N      -0.003496  -0.000367   0.000458
    13     O      -0.002931   0.001654  -0.001664
 
 Mode:    25      Frequency (cm-1):      333.7041     Intensity (km/mol):      148.2232
 Index  Atom      ---- Displacements (x/y/z) ----
     1    Pa      -0.001488   0.001896  -0.003253
     2     O       0.042171  -0.038262   0.006426
     3     H      -0.189487   0.081690   0.031056
     4     O      -0.109876  -0.005947   0.070953
     5     H       0.698049   0.142477  -0.545376
     6     O       0.010550  -0.003412   0.000432
     7     H      -0.045053  -0.005169   0.015301
     8     O       0.043423  -0.012347   0.001896
     9     H      -0.237643   0.228827  -0.132253
    10     O       0.006573   0.000404   0.004897
    11     O       0.004265   0.007097  -0.001135
    12     N       0.005982   0.001426   0.001641
    13     O       0.004917  -0.004392   0.001853
 
 Mode:    26      Frequency (cm-1):      498.2172     Intensity (km/mol):      113.6523
 Index  Atom      ---- Displacements (x/y/z) ----
     1    Pa       0.025595  -0.009514   0.001512
     2     O      -0.097961  -0.176555   0.152495
     3     H      -0.165521  -0.294156   0.092976
     4     O      -0.262845   0.196910   0.019132
     5     H      -0.654488   0.118503   0.311421
     6     O      -0.018678  -0.047617  -0.068963
     7     H      -0.032256  -0.027817  -0.079648
     8     O       0.075006   0.163517  -0.127302
     9     H      -0.006603   0.209587  -0.238590
    10     O      -0.003799  -0.000458  -0.003005
    11     O      -0.004758   0.000945   0.001892
    12     N      -0.000676  -0.000243  -0.000737
    13     O      -0.001957   0.000511  -0.000866
 
 Mode:    27      Frequency (cm-1):      527.1166     Intensity (km/mol):      290.4811
 Index  Atom      ---- Displacements (x/y/z) ----
     1    Pa       0.014560  -0.023754  -0.037745
     2     O       0.036858   0.083522  -0.064165
     3     H       0.065914   0.155401  -0.030038
     4     O      -0.262696   0.175278   0.033647
     5     H      -0.417766   0.167080   0.208671
     6     O       0.094447   0.243267   0.366971
     7     H       0.131392   0.196166   0.389611
     8     O      -0.078252  -0.184965   0.143427
     9     H      -0.045573  -0.162703   0.330300
    10     O       0.002855  -0.002940  -0.001878
    11     O      -0.000968   0.002909  -0.000904
    12     N       0.009245   0.002369   0.006181
    13     O       0.006113   0.001543   0.006076
 
 Mode:    28      Frequency (cm-1):      538.1476     Intensity (km/mol):      513.5576
 Index  Atom      ---- Displacements (x/y/z) ----
     1    Pa       0.015206   0.043367  -0.026327
     2     O      -0.115355  -0.243557   0.217150
     3     H      -0.343631  -0.520394   0.074389
     4     O       0.039762  -0.036838   0.000102
     5     H       0.103556  -0.030930  -0.066208
     6     O      -0.016040  -0.041785  -0.041345
     7     H      -0.024427  -0.029517  -0.048244
     8     O      -0.114015  -0.240729   0.176400
     9     H       0.081889  -0.348618   0.475539
    10     O      -0.000809  -0.000516   0.000106
    11     O      -0.000476  -0.004099   0.002604
    12     N      -0.001261  -0.001320  -0.000037
    13     O      -0.000091   0.000842  -0.002142
 
 Mode:    29      Frequency (cm-1):      636.1984     Intensity (km/mol):      199.4029
 Index  Atom      ---- Displacements (x/y/z) ----
     1    Pa       0.018445   0.007045   0.021432
     2     O       0.103850   0.213445  -0.170512
     3     H       0.159949   0.279809  -0.140829
     4     O      -0.234820   0.145466   0.035163
     5     H      -0.307462   0.130716   0.071402
     6     O      -0.097027  -0.225856  -0.349367
     7     H      -0.123210  -0.210390  -0.362928
     8     O      -0.090934  -0.214824   0.169056
     9     H      -0.041150  -0.251832   0.234347
    10     O      -0.026271  -0.029133  -0.051539
    11     O      -0.030995   0.042088   0.038348
    12     N       0.072413  -0.016908   0.018689
    13     O       0.066029  -0.014881   0.015391
 
 Mode:    30      Frequency (cm-1):      707.6367     Intensity (km/mol):        0.3432
 Index  Atom      ---- Displacements (x/y/z) ----
     1    Pa       0.000279   0.000682   0.001631
     2     O      -0.001146   0.002433   0.001202
     3     H       0.029112  -0.001078   0.002985
     4     O      -0.003526   0.002846  -0.001127
     5     H       0.000534   0.002946  -0.003823
     6     O      -0.000727   0.005743   0.007196
     7     H      -0.023343   0.012279   0.007460
     8     O      -0.000842   0.000966   0.001243
     9     H      -0.003839   0.009005   0.019317
    10     O      -0.496883   0.221875   0.025877
    11     O       0.477556   0.009682   0.267008
    12     N      -0.018024   0.141505   0.153780
    13     O       0.037159  -0.378733  -0.461219
 
 Mode:    31      Frequency (cm-1):      750.7957     Intensity (km/mol):       40.2725
 Index  Atom      ---- Displacements (x/y/z) ----
     1    Pa      -0.002836  -0.002282  -0.004688
     2     O      -0.024860  -0.056078   0.043081
     3     H      -0.019882  -0.066220   0.042584
     4     O       0.071054  -0.043440  -0.009865
     5     H       0.104464  -0.034988  -0.020213
     6     O       0.018475   0.056201   0.084300
     7     H       0.003630   0.056434   0.092367
     8     O       0.023229   0.055485  -0.043939
     9     H       0.017832   0.066952  -0.038559
    10     O      -0.297904  -0.237284  -0.456703
    11     O      -0.354646   0.377343   0.291119
    12     N       0.265366  -0.039249   0.071017
    13     O       0.366619  -0.086296   0.092743
 
 Mode:    32      Frequency (cm-1):      817.0761     Intensity (km/mol):       22.8228
 Index  Atom      ---- Displacements (x/y/z) ----
     1    Pa      -0.000365  -0.000964   0.000195
     2     O       0.000628  -0.002537   0.002034
     3     H       0.007369  -0.004403   0.001917
     4     O       0.000464   0.000141   0.000325
     5     H       0.008568   0.004292   0.001696
     6     O      -0.000235   0.000542   0.001996
     7     H      -0.006854  -0.000374   0.004196
     8     O      -0.001920   0.001334  -0.000507
     9     H      -0.007481   0.008543   0.004607
    10     O       0.072428   0.197101  -0.153931
    11     O       0.082108   0.203993  -0.150625
    12     N      -0.272481  -0.665194   0.521799
    13     O       0.090244   0.195206  -0.159707
 
 Mode:    33      Frequency (cm-1):     1048.4996     Intensity (km/mol):      120.2675
 Index  Atom      ---- Displacements (x/y/z) ----
     1    Pa      -0.000815   0.000448  -0.000226
     2     O      -0.001931  -0.007809   0.005566
     3     H      -0.003960  -0.002673   0.009396
     4     O       0.007264  -0.005206  -0.002005
     5     H      -0.004172  -0.012342  -0.004583
     6     O       0.004039   0.004029   0.007180
     7     H       0.003443   0.007538   0.006233
     8     O       0.004297   0.006478  -0.005986
     9     H       0.015334  -0.002273  -0.006450
    10     O      -0.363162   0.381737   0.297203
    11     O      -0.286376  -0.246043  -0.460614
    12     N       0.234138  -0.057027   0.045371
    13     O       0.441994  -0.089112   0.121914
 
 Mode:    34      Frequency (cm-1):     1232.1340     Intensity (km/mol):      673.4133
 Index  Atom      ---- Displacements (x/y/z) ----
     1    Pa       0.000238  -0.002411  -0.002878
     2     O      -0.001561   0.002127   0.002015
     3     H       0.021106  -0.000744   0.002917
     4     O      -0.000043   0.000073  -0.000362
     5     H       0.003431   0.000339  -0.000249
     6     O      -0.002207   0.003458   0.003485
     7     H      -0.010281   0.003758   0.003733
     8     O      -0.000779   0.000993   0.001291
     9     H       0.002283   0.002199   0.017525
    10     O      -0.110591   0.226277   0.231380
    11     O       0.070107   0.202711   0.295174
    12     N       0.066583  -0.541849  -0.661637
    13     O      -0.017692   0.073203   0.086327
 
 Mode:    35      Frequency (cm-1):     1508.4301     Intensity (km/mol):     1400.1627
 Index  Atom      ---- Displacements (x/y/z) ----
     1    Pa       0.003997  -0.000630   0.001304
     2     O       0.001555   0.009320  -0.006475
     3     H      -0.001744   0.007552  -0.013423
     4     O      -0.009406   0.005291   0.001548
     5     H      -0.009983   0.007895   0.000323
     6     O      -0.003442  -0.005521  -0.009164
     7     H      -0.001178  -0.009635  -0.011905
     8     O      -0.004725  -0.008030   0.006949
     9     H      -0.015450  -0.006235   0.001896
    10     O       0.063077  -0.034823  -0.010725
    11     O       0.059511   0.011122   0.046089
    12     N      -0.782543   0.158979  -0.212955
    13     O       0.522577  -0.107411   0.140832
 
 Mode:    36      Frequency (cm-1):     3796.7981     Intensity (km/mol):      408.9521
 Index  Atom      ---- Displacements (x/y/z) ----
     1    Pa      -0.000026  -0.000026   0.000024
     2     O      -0.005861  -0.023361   0.055790
     3     H       0.094185   0.372836  -0.890446
     4     O      -0.003254   0.007216  -0.002911
     5     H       0.055648  -0.116629   0.045114
     6     O      -0.000280  -0.000998  -0.001439
     7     H       0.006154   0.019345   0.025214
     8     O      -0.008159  -0.008157   0.002288
     9     H       0.130685   0.130827  -0.036704
    10     O      -0.000096   0.000040  -0.000050
    11     O      -0.000106   0.000012  -0.000051
    12     N       0.000201  -0.000013   0.000051
    13     O      -0.000109   0.000025  -0.000036
 
 Mode:    37      Frequency (cm-1):     3799.6982     Intensity (km/mol):      273.5779
 Index  Atom      ---- Displacements (x/y/z) ----
     1    Pa      -0.000000  -0.000028   0.000022
     2     O       0.000985   0.003947  -0.009271
     3     H      -0.015807  -0.062076   0.147378
     4     O       0.004317  -0.009487   0.003791
     5     H      -0.074092   0.155436  -0.060099
     6     O       0.000467   0.001569   0.001875
     7     H      -0.008562  -0.027102  -0.035206
     8     O      -0.042002  -0.042091   0.011977
     9     H       0.669424   0.671261  -0.190357
    10     O       0.000152  -0.000015   0.000033
    11     O       0.000179  -0.000014   0.000046
    12     N      -0.000259   0.000053  -0.000104
    13     O       0.000158  -0.000024   0.000044
 
 Mode:    38      Frequency (cm-1):     3808.5791     Intensity (km/mol):      298.2347
 Index  Atom      ---- Displacements (x/y/z) ----
     1    Pa      -0.000014   0.000045   0.000006
     2     O       0.001218   0.004138  -0.009621
     3     H      -0.016093  -0.062568   0.150391
     4     O      -0.024985   0.051815  -0.019976
     5     H       0.395326  -0.826201   0.319625
     6     O       0.000804   0.002447   0.003157
     7     H      -0.013950  -0.042969  -0.056123
     8     O      -0.006666  -0.006921   0.002085
     9     H       0.105061   0.105442  -0.029652
    10     O       0.000180  -0.000032   0.000057
    11     O       0.000082  -0.000077  -0.000001
    12     N      -0.000216   0.000085  -0.000015
    13     O       0.000126  -0.000026   0.000018
 
 Mode:    39      Frequency (cm-1):     3835.1486     Intensity (km/mol):      420.5136
 Index  Atom      ---- Displacements (x/y/z) ----
     1    Pa       0.000011  -0.000014  -0.000009
     2     O       0.000489   0.001569  -0.003099
     3     H      -0.004783  -0.019343   0.045989
     4     O      -0.001778   0.003277  -0.001083
     5     H       0.023032  -0.048634   0.018776
     6     O      -0.012107  -0.037530  -0.048910
     7     H       0.190362   0.594466   0.773498
     8     O      -0.002246  -0.002400   0.000908
     9     H       0.033621   0.033232  -0.009571
    10     O       0.000137   0.000011   0.000092
    11     O       0.000159   0.000010   0.000047
    12     N      -0.000244   0.000019  -0.000100
    13     O       0.000133  -0.000024   0.000046

PES point character: Geometry corresponds to a transition state.
                     (Hint: Very small negative frequencies do not count towards being a
                     transition state, as they usually indicate noise on a very flat PES. See
                     the PESPointCharacter%NegativeFrequenciesTolerance keyword documentation.)




 ============================
 Statistical Thermal Analysis  ***  ideal gas assumed  ***
 ============================
  
 Pressure:                  1.000000 atm.
 Temperature:             298.150000 K



 Moments of Inertia [amu*bohr^2] and principal axis
 ==================================================

        1010.5798       2529.3672       2637.0624
 ------------------------------------------------
           0.9460         -0.3188          0.0584
          -0.2104         -0.7412         -0.6375
           0.2465          0.5908         -0.7683


 The rotational contribution to the molecular entropy includes
 a term, dependent on the symmetry number sigma. The results 
 reported below were computed using sigma = 1, determined from
 the point group symmetry of the input geometry (NOSYM). 
 If this is not the correct symmetry, try symmetrizing the molecule before
 running the calculation (note: linear molecules should be aligned along one
 of the Cartesian axes).
 Contributions from frequencies below 20 1/cm are not included in vibrational sums.
 Their contributions, if any, are reported separately.


     Temp                                                        Transl      Rotat     Vibrat     Total
     ----                                                        ------      -----     ------     -----

     298.15   Entropy (cal/mol-K):                               43.545     30.290     49.241    123.076
              Nuclear Internal Energy (kcal/mol):                 0.889      0.889     45.755     47.532
              Constant Volume Heat Capacity (cal/mol-K):          2.981      2.981     40.537     46.499
          (c) Constant Volume Heat Capacity (cal/mol-K):          2.981      2.981     36.400     42.361

       Summary of energy terms
                                                   hartree              eV         kcal/mol           kJ/mol
                                      --------------------     -----------       ----------      -----------
      Energy from Engine:               -3.744919655335104       -101.9044         -2349.97         -9832.29
      Nuclear Internal Energy:           0.075746996620454          2.0612            47.53           198.87
  (c) Nuclear Internal Energy:           0.073588973395304          2.0025            46.18           193.21
      Internal Energy U:                -3.669172658714650        -99.8433         -2302.44         -9633.41
      pV/n = RT:                         0.000944186013486          0.0257             0.59             2.48
      Enthalpy H:                       -3.668228472701164        -99.8176         -2301.85         -9630.93
      -T*S:                             -0.058477172217145         -1.5912           -36.69          -153.53
  (c) -T*S:                             -0.057020878255621         -1.5516           -35.78          -149.71
      Gibbs free energy:                -3.726705644918309       -101.4088         -2338.54         -9784.46
 
 
 
  (c) The properties marked with this symbol have been corrected using 'low vibrational frequency free rotor
      interpolation corrections'. For those terms all positive frequencies are used (also ones below 20 1/cm),
      but the contribution to the partition function of small vibrational frequencies is modified as described
      in the following paper:
      S. Grimme, 'Supramolecular Binding Thermodynamics by Dispersion-Corrected Density Functional Theory'
      (Chem. Eur. J. 2012, 18, 9955-9964)
      Configuration: Dampener Frequency          :   100.000 1/cm
                     Dampener Alpha              :     4.000
                     Averaging Moment of Inertia : 1.000E-44 kg m2

--------------
Atomic charges
--------------
  Index   Atom    Charge
      1     Pa    2.8430
      2      O   -0.6402
      3      H    0.1129
      4      O   -0.6995
      5      H    0.1395
      6      O   -0.6282
      7      H    0.0557
      8      O   -0.6416
      9      H    0.1135
     10      O   -0.5825
     11      O   -0.5754
     12      N    0.9610
     13      O   -0.4580


Dipole moment vector    (Debye):    -5.96264889    1.47928720   -3.49111746
              magnitude (Debye):     7.06607200


ERROR: Geometry optimization failed! (Converged, but did not find a minimum on the PES.)


AMS application finished. Exiting.
NORMAL TERMINATION
     Total cpu time:  122267.86
  Total system time:    2635.90
 Total elapsed time:  124899.95
