
 Working directory              : /state/partition2/shaaban/999637.phlam-s-sakura/molpro.P8hxMML5Qr/
 Global scratch directory       : /state/partition2/shaaban/999637.phlam-s-sakura/molpro.P8hxMML5Qr/
 Wavefunction directory         : /home/shaaban/wfu/
 Main file repository           : /state/partition2/shaaban/999637.phlam-s-sakura/molpro.P8hxMML5Qr/

 id        : lill

 Nodes      nprocs
 u-0-0.local    8
 GA implementation: MPI file
 GA implementation (serial work in mppx): MPI file

 Using customized tuning parameters: mindgm=1; mindgv=20; mindgc=4; mindgr=1; noblas=0; minvec=7
 default implementation of scratch files=sf  


 Variables initialized (1040), CPU time= 0.01 sec
 ***,PaO(OH)2(NCS)(H2O) - MP2 and CCSD(T)
 memory,2500, m;
 file, 1, pao_oh2_N_h2o.ccsd-tx.int, new;
 file, 2, pao_oh2_N_h2o.ccsd-tx.wfu, new;
 
 gprint, basis;
 gprint, orbital=10;
 
 nosym;
 
 geomtyp=xyz;
 
 geometry={
 Including file /home/shaaban/molpro/PhD/thiocyanate/gp/pao_oh2_NCS_h2o/pao_oh2_N_h2o-gp.xyz
 }
 
 charge=0;
 
                                                                                 ! Select X2C SR Hamiltonian
 SET,DKHO=101
 
                                                                                 ! Calculation with VTZ basis set
 basis={
 Pa=cc-pVTZ-X2C;
 O=aug-cc-pVTZ-X2C;
 H=aug-cc-pVTZ-X2C;
 N=aug-cc-pVTZ-X2C;
 C=aug-cc-pVTZ-X2C;
 S=aug-cc-pVTZ-X2C;
 }
 
                                                                                 ! Hartree-Fock calculation
 {hf;}
 
                                                                                 ! MP2 and CCSD(T) calculation
 {ccsd(t);}
 
                                                                  ! Save HF energy and CCSD(T) correlation energy for VTZ basis set
 energy_hf(1) = energr(1);
 corr_mp2(1) = EMP2-energr(1);
 corr_ccsdt(1) = ENERGT(1)-energr(1);
 
 Commands initialized (846), CPU time= 0.02 sec, 717 directives.
 Default parameters read. Elapsed time= 0.16 sec

 Checking input...
 Passed
1


                                         ***  PROGRAM SYSTEM MOLPRO  ***
                                       Copyright, TTI GmbH Stuttgart, 2015
                                    Version 2023.2 linked Fri Sep 22 09:27:09 2023


 **********************************************************************************************************************************
 LABEL *   PaO(OH)2(NCS)(H2O) - MP2 and CCSD(T)                                                                                                                          
  64 bit mpp version                                                                     DATE: 15-Jan-24          TIME: 10:07:47  
 **********************************************************************************************************************************

 SHA1:             3c61bfe44d37c8635c785372c339f5cbdd4e4b59
 **********************************************************************************************************************************

 Memory per process:      2500 MW
 Total memory per node:  20000 MW

 GA preallocation disabled
 GA check disabled

 Variable memory set to 2500.0 MW



 Permanent file  1  pao_oh2_n_h2o.ccsd-tx.int        assigned.  Implementation=df  
 Permanent file  2  pao_oh2_n_h2o.ccsd-tx.wfu        assigned.  Implementation=df  



 **********************************************************************************************************************************
 DATASETS  * FILE   NREC   LENGTH (MB)   RECORD NAMES
              1       1        0.06       500   
                                          VAR  

              2       1        0.06       500   
                                          VAR  

 PROGRAMS   *        TOTAL      FILE
 CPU TIMES  *         0.23      0.01
 REAL TIME  *         0.48 SEC
 DISK USED  *         0.16 MB (local),        1.32 MB (total)
 **********************************************************************************************************************************


 SETTING GEOMTYP        =    XYZ
 ZSYMEL=NOSYM


 Geometry recognized as XYZ

 SETTING CHARGE         =      0.0000000D+00                                  
 SETTING DKHO           =       101.00000000                                  
 SETTING BASIS          =    PA=CC-PVTZ-X2C,O=AUG-CC-PVTZ-X2C,H=AUG-CC-PVTZ-X2C,N=AUG-CC-PVTZ-X2C,C=AUG-CC-PVTZ-X2C,S=AUG-CC-PVTZ-X2C


 Recomputing integrals since basis changed


 Using spherical harmonics

 Library entry PA     S cc-pVTZ-X2C          selected for orbital group  1
 Library entry PA     P cc-pVTZ-X2C          selected for orbital group  1
 Library entry PA     D cc-pVTZ-X2C          selected for orbital group  1
 Library entry PA     F cc-pVTZ-X2C          selected for orbital group  1
 Library entry PA     G cc-pVTZ-X2C          selected for orbital group  1
 Library entry PA     H cc-pVTZ-X2C          selected for orbital group  1
 Library entry O      S aug-cc-pVTZ-X2C      selected for orbital group  2
 Library entry O      P aug-cc-pVTZ-X2C      selected for orbital group  2
 Library entry O      D aug-cc-pVTZ-X2C      selected for orbital group  2
 Library entry O      F aug-cc-pVTZ-X2C      selected for orbital group  2
 Library entry H      S aug-cc-pVTZ-X2C      selected for orbital group  3
 Library entry H      P aug-cc-pVTZ-X2C      selected for orbital group  3
 Library entry H      D aug-cc-pVTZ-X2C      selected for orbital group  3
 Library entry N      S aug-cc-pVTZ-X2C      selected for orbital group 10
 Library entry N      P aug-cc-pVTZ-X2C      selected for orbital group 10
 Library entry N      D aug-cc-pVTZ-X2C      selected for orbital group 10
 Library entry N      F aug-cc-pVTZ-X2C      selected for orbital group 10
 Library entry C      S aug-cc-pVTZ-X2C      selected for orbital group 11
 Library entry C      P aug-cc-pVTZ-X2C      selected for orbital group 11
 Library entry C      D aug-cc-pVTZ-X2C      selected for orbital group 11
 Library entry C      F aug-cc-pVTZ-X2C      selected for orbital group 11
 Library entry S      S aug-cc-pVTZ-X2C      selected for orbital group 12
 Library entry S      P aug-cc-pVTZ-X2C      selected for orbital group 12
 Library entry S      D aug-cc-pVTZ-X2C      selected for orbital group 12
 Library entry S      F aug-cc-pVTZ-X2C      selected for orbital group 12


 PROGRAM * SEWARD (Integral evaluation for generally contracted gaussian basis sets)     Author: Roland Lindh, 1990

 Geometry written to block  1 of record 700


 Point group  C1  



 ATOMIC COORDINATES

 NR  ATOM    CHARGE       X              Y              Z

   1  PA     91.00    0.430761279   -0.172410890   -0.783597091
   2  O       8.00    2.135748071    2.548051009   -3.133963263
   3  H       1.00    2.921971660    4.073904220   -3.714342325
   4  O       8.00   -0.854038620    1.681364977    1.888772014
   5  H       1.00   -0.293373711   -5.200130870    2.486373306
   6  O       8.00   -1.212743438   -2.357736103   -3.697346478
   7  H       1.00   -1.533568633   -2.952238747   -5.381579592
   8  O       8.00   -1.286704279   -3.684670955    2.274339959
   9  H       1.00   -1.506803671   -2.946861253    3.929264005
  10  N       7.00    4.089680570   -2.411149926    0.264580718
  11  C       6.00    5.998982222   -3.535586468    0.660474065
  12  S      16.00    8.533514764   -5.050424582    1.208511332

 Bond lengths in Bohr (Angstrom)

 1-2  3.978958915  1-3  5.729449259  1-4  3.496963308  1-5  6.041112983  1-6  3.995834022
     ( 2.105574381)     ( 3.031893979)     ( 1.850513290)     ( 3.196819319)     ( 2.114504303)

  1- 7  5.720793476   1- 8  4.963530771   1- 9  5.801964535   1-10  4.415690158   1-11  6.663435746
       ( 3.027313536)       ( 2.626587370)       ( 3.070267410)       ( 2.336682602)       ( 3.526138343)

  2- 3  1.811964517   5- 8  1.824358109   6- 7  1.814663435   8- 9  1.825261761  10-11  2.250893573
       ( 0.958850329)       ( 0.965408736)       ( 0.960278535)       ( 0.965886928)       ( 1.191121583)

 11-12  3.003154103
       ( 1.589200712)

 Bond angles

  1-2-3  161.96831079   1-3-2   12.41375711   1-5-8   46.45064248   1-6-7  158.22884102

  1-7-6   15.01458086   1-8-5  118.09949075   1-8-9  108.31729440   1-9-8   54.30595914

  1-10-11  176.27647751   1-11-10    2.46650933   1-11-12  177.98158464   2- 1- 3    5.61793210

  2-1-4  104.26462371   2-1-5  160.07175093   2-1-6   96.85928462   2-1-7   90.26336243

  2- 1- 8  174.86747715   2- 1- 9  161.77946297   2- 1-10   97.57326012   2- 1-11   96.60511977

  3-1-4   99.07746856   3-1-5  161.05183104   3-1-6  102.19074047   3-1-7   95.64144358

  3- 1- 8  171.90254485   3- 1- 9  156.22188683   3- 1-10   97.86781158   3- 1-11   96.98335680

  4-1-5   89.05430854   4-1-6  134.11116079   4-1-7  138.21445721   4-1-8   77.12513543

  4- 1- 9   60.66284402   4- 1-10  113.06654432   4- 1-11  114.13960690   5- 1- 6   83.69870935

  5- 1- 7   89.39757113   5- 1- 8   15.44986677   5- 1- 9   28.63567446   5- 1-10   63.18497022

  5- 1-11   64.07505461   5- 8- 9  107.22100238   6- 1- 7    6.75657812   6- 1- 8   85.40750611

  6- 1- 9  101.15353206   6- 1-10  103.68779076   6- 1-11  103.04391602   7- 1- 8   91.86313799

  7- 1- 9  107.80825246   7- 1-10  103.23515731   7- 1-11  102.46594700   8- 1- 9   17.37674646

  8- 1-10   77.39171771   8- 1-11   78.37433266   9- 1-10   80.87772563   9- 1-11   82.04892438

 10- 1-11    1.25701316  10-11-12  179.46976587


 BASIS DATA

   Nr Sym  Nuc  Type         Exponents   Contraction coefficients

    1.1 A     1  1s    57606659.000000     0.002669    0.000875   -0.001011   -0.000162    0.000138   -0.000062
                                           0.000029    0.000051   -0.000067   -0.000085    0.000000
    2.1 A              15333099.000000     0.001763    0.000577   -0.000669   -0.000107    0.000091   -0.000041
                                           0.000019    0.000034   -0.000045   -0.000056    0.000000
    3.1 A               5244434.800000     0.005688    0.001860   -0.002159   -0.000346    0.000294   -0.000133
                                           0.000061    0.000110   -0.000144   -0.000182    0.000000
    4.1 A               1993947.300000     0.005833    0.001897   -0.002226   -0.000357    0.000304   -0.000137
                                           0.000063    0.000114   -0.000148   -0.000188    0.000000
    5.1 A                831464.670000     0.012471    0.004046   -0.004768   -0.000766    0.000651   -0.000294
                                           0.000135    0.000243   -0.000318   -0.000402    0.000000
    6.1 A                367473.800000     0.015337    0.004923   -0.005922   -0.000954    0.000810   -0.000366
                                           0.000168    0.000303   -0.000396   -0.000502    0.000000
    7.1 A                170948.980000     0.027802    0.008860   -0.010807   -0.001745    0.001481   -0.000669
                                           0.000307    0.000553   -0.000723   -0.000913    0.000000
    8.1 A                 82498.208000     0.037893    0.011845   -0.014983   -0.002432    0.002060   -0.000931
                                           0.000428    0.000771   -0.001008   -0.001281    0.000000
    9.1 A                 41068.557000     0.063446    0.019489   -0.025472   -0.004156    0.003514   -0.001588
                                           0.000730    0.001312   -0.001713   -0.002158    0.000000
   10.1 A                 20931.097000     0.090970    0.026964   -0.037612   -0.006192    0.005220   -0.002360
                                           0.001084    0.001959   -0.002562   -0.003271    0.000000
   11.1 A                 10881.858000     0.141353    0.040137   -0.060450   -0.010069    0.008456   -0.003823
                                           0.001756    0.003150   -0.004109   -0.005142    0.000000
                           5751.850200     0.192150    0.050328   -0.087023   -0.014758    0.012320   -0.005570
                                           0.002559    0.004641   -0.006081   -0.007843    0.000000
                           3085.413800     0.245625    0.057494   -0.119370   -0.020746    0.017180   -0.007769
                                           0.003568    0.006365   -0.008281   -0.010186    0.000000
                           1676.302600     0.236828    0.048791   -0.122988   -0.021795    0.017936   -0.008112
                                           0.003728    0.006861   -0.009046   -0.012129    0.000000
                            920.364860     0.144288    0.051386   -0.045258   -0.005640    0.005268   -0.002373
                                           0.001085    0.001652   -0.001974   -0.001042    0.000000
                            507.302700    -0.025759    0.115725    0.203246    0.056561   -0.041187    0.018724
                                          -0.008598   -0.014902    0.019190    0.021482    0.000000
                            285.301180    -0.127248    0.207489    0.548666    0.172341   -0.122683    0.055908
                                          -0.025737   -0.047910    0.063712    0.088054    0.000000
                            162.083520    -0.106345    0.166212    0.606264    0.222723   -0.155054    0.070944
                                          -0.032607   -0.056240    0.072273    0.078654    0.000000
                             92.502257    -0.075897    0.111536    0.036795   -0.036386    0.019294   -0.009062
                                           0.004086    0.001475    0.001168    0.030443    0.000000
                             54.996696    -0.159518    0.199400   -0.676887   -0.645265    0.447335   -0.211910
                                           0.098395    0.193270   -0.267108   -0.419400    0.000000
                             32.498055    -0.126680    0.162427   -0.590845   -0.685716    0.477369   -0.227312
                                           0.105023    0.171409   -0.214999   -0.161690    0.000000
                             19.139224    -0.031866    0.038627   -0.102127    0.187644   -0.152132    0.072681
                                          -0.032972   -0.027495    0.028200   -0.136514    0.000000
                             11.382710     0.001867    0.000895    0.103491    0.862021   -0.976205    0.547811
                                          -0.263192   -0.581563    0.872312    1.708580    0.000000
                              6.786052     0.000710   -0.001446    0.057992    0.445035   -0.716251    0.417708
                                          -0.198179   -0.257965    0.233684   -0.803168    0.000000
                              4.149622     0.000624    0.000224    0.007493    0.066545    0.448492   -0.350229
                                           0.170540    0.219139   -0.310498    1.111350    0.000000
                              2.398648    -0.000456    0.000036    0.000333    0.014140    0.872214   -0.849732
                                           0.456257    1.306370   -2.312230   -7.677220    0.000000
                              1.389239     0.000090    0.000196   -0.000539    0.002102    0.319316   -0.431871
                                           0.230358    0.273179    0.312923   10.897300    0.000000
                              0.799685    -0.000092   -0.000045    0.000120    0.000488    0.047531    0.436228
                                          -0.277578   -1.772950    4.829150   -2.756210    0.000000
                              0.427327     0.000032    0.000027   -0.000069   -0.000720    0.030738    0.715435
                                          -0.561943   -0.897998   -3.625440   -6.603630    0.000000
                              0.220940    -0.000014   -0.000008    0.000023   -0.000086    0.010089    0.233487
                                          -0.326569    1.531090   -1.220420    6.760400    0.000000
                              0.086038     0.000004    0.000003   -0.000008   -0.000060    0.001152    0.063336
                                           0.301677    1.025940    2.677810   -2.145480    0.000000
                              0.041219    -0.000002   -0.000001    0.000004   -0.000044    0.001537    0.118995
                                           0.692734   -0.772162   -0.536170   -1.021350    0.000000
                              0.018781     0.000001    0.000000   -0.000001   -0.000024    0.000590    0.043903
                                           0.253879   -0.484754   -0.805222    1.252960    1.000000
   12.1 A     1  2px   52575799.000000     0.000013
                       15301659.000000     0.000017
                        4822461.600000     0.000052
                        1632045.600000     0.000107
                         584338.640000     0.000256
                         219508.320000     0.000572
                          86085.039000     0.001336
                          35172.956000     0.003129
                          14975.745000     0.007503
                           6652.821900     0.017986
                           3084.270200     0.042103
                           1489.211300     0.090969
                            745.288670     0.167976
                            384.521300     0.234709
                            203.927220     0.220200
                            110.523340     0.174708
                             61.345569     0.190642
                             34.404375     0.137246
                             19.094147     0.033402
                             10.684628    -0.000867
                              5.931463    -0.000935
                              3.230992    -0.000009
                              1.730655     0.000164
                              0.869483     0.000022
                              0.440589     0.000009
                              0.215859    -0.000000
                              0.091015     0.000001
                              0.040174    -0.000000
                              0.017215     0.000000
   13.1 A     1  2py   52575799.000000     0.000013
                       15301659.000000     0.000017
                        4822461.600000     0.000052
                        1632045.600000     0.000107
                         584338.640000     0.000256
                         219508.320000     0.000572
                          86085.039000     0.001336
                          35172.956000     0.003129
                          14975.745000     0.007503
                           6652.821900     0.017986
                           3084.270200     0.042103
                           1489.211300     0.090969
                            745.288670     0.167976
                            384.521300     0.234709
                            203.927220     0.220200
                            110.523340     0.174708
                             61.345569     0.190642
                             34.404375     0.137246
                             19.094147     0.033402
                             10.684628    -0.000867
                              5.931463    -0.000935
                              3.230992    -0.000009
                              1.730655     0.000164
                              0.869483     0.000022
                              0.440589     0.000009
                              0.215859    -0.000000
                              0.091015     0.000001
                              0.040174    -0.000000
                              0.017215     0.000000
   14.1 A     1  2pz   52575799.000000     0.000013
                       15301659.000000     0.000017
                        4822461.600000     0.000052
                        1632045.600000     0.000107
                         584338.640000     0.000256
                         219508.320000     0.000572
                          86085.039000     0.001336
                          35172.956000     0.003129
                          14975.745000     0.007503
                           6652.821900     0.017986
                           3084.270200     0.042103
                           1489.211300     0.090969
                            745.288670     0.167976
                            384.521300     0.234709
                            203.927220     0.220200
                            110.523340     0.174708
                             61.345569     0.190642
                             34.404375     0.137246
                             19.094147     0.033402
                             10.684628    -0.000867
                              5.931463    -0.000935
                              3.230992    -0.000009
                              1.730655     0.000164
                              0.869483     0.000022
                              0.440589     0.000009
                              0.215859    -0.000000
                              0.091015     0.000001
                              0.040174    -0.000000
                              0.017215     0.000000
   15.1 A     1  2px   52575799.000000    -0.000015
                       15301659.000000    -0.000020
                        4822461.600000    -0.000063
                        1632045.600000    -0.000128
                         584338.640000    -0.000307
                         219508.320000    -0.000688
                          86085.039000    -0.001611
                          35172.956000    -0.003789
                          14975.745000    -0.009145
                           6652.821900    -0.022135
                           3084.270200    -0.052666
                           1489.211300    -0.116756
                            745.288670    -0.223673
                            384.521300    -0.322150
                            203.927220    -0.236330
                            110.523340     0.145050
                             61.345569     0.527334
                             34.404375     0.400957
                             19.094147     0.019469
                             10.684628    -0.122609
                              5.931463    -0.050931
                              3.230992    -0.002720
                              1.730655     0.002231
                              0.869483     0.000423
                              0.440589     0.000084
                              0.215859     0.000018
                              0.091015     0.000006
                              0.040174    -0.000002
                              0.017215     0.000001
   16.1 A     1  2py   52575799.000000    -0.000015
                       15301659.000000    -0.000020
                        4822461.600000    -0.000063
                        1632045.600000    -0.000128
                         584338.640000    -0.000307
                         219508.320000    -0.000688
                          86085.039000    -0.001611
                          35172.956000    -0.003789
                          14975.745000    -0.009145
                           6652.821900    -0.022135
                           3084.270200    -0.052666
                           1489.211300    -0.116756
                            745.288670    -0.223673
                            384.521300    -0.322150
                            203.927220    -0.236330
                            110.523340     0.145050
                             61.345569     0.527334
                             34.404375     0.400957
                             19.094147     0.019469
                             10.684628    -0.122609
                              5.931463    -0.050931
                              3.230992    -0.002720
                              1.730655     0.002231
                              0.869483     0.000423
                              0.440589     0.000084
                              0.215859     0.000018
                              0.091015     0.000006
                              0.040174    -0.000002
                              0.017215     0.000001
   17.1 A     1  2pz   52575799.000000    -0.000015
                       15301659.000000    -0.000020
                        4822461.600000    -0.000063
                        1632045.600000    -0.000128
                         584338.640000    -0.000307
                         219508.320000    -0.000688
                          86085.039000    -0.001611
                          35172.956000    -0.003789
                          14975.745000    -0.009145
                           6652.821900    -0.022135
                           3084.270200    -0.052666
                           1489.211300    -0.116756
                            745.288670    -0.223673
                            384.521300    -0.322150
                            203.927220    -0.236330
                            110.523340     0.145050
                             61.345569     0.527334
                             34.404375     0.400957
                             19.094147     0.019469
                             10.684628    -0.122609
                              5.931463    -0.050931
                              3.230992    -0.002720
                              1.730655     0.002231
                              0.869483     0.000423
                              0.440589     0.000084
                              0.215859     0.000018
                              0.091015     0.000006
                              0.040174    -0.000002
                              0.017215     0.000001
   18.1 A     1  2px   52575799.000000     0.000002
                       15301659.000000     0.000002
                        4822461.600000     0.000007
                        1632045.600000     0.000015
                         584338.640000     0.000036
                         219508.320000     0.000081
                          86085.039000     0.000191
                          35172.956000     0.000452
                          14975.745000     0.001103
                           6652.821900     0.002719
                           3084.270200     0.006655
                           1489.211300     0.015415
                            745.288670     0.031304
                            384.521300     0.047289
                            203.927220     0.017930
                            110.523340    -0.123036
                             61.345569    -0.327485
                             34.404375    -0.190153
                             19.094147     0.365341
                             10.684628     0.614487
                              5.931463     0.253665
                              3.230992     0.025247
                              1.730655     0.001457
                              0.869483    -0.000189
                              0.440589     0.000178
                              0.215859    -0.000001
                              0.091015     0.000034
                              0.040174    -0.000010
                              0.017215     0.000003
   19.1 A     1  2py   52575799.000000     0.000002
                       15301659.000000     0.000002
                        4822461.600000     0.000007
                        1632045.600000     0.000015
                         584338.640000     0.000036
                         219508.320000     0.000081
                          86085.039000     0.000191
                          35172.956000     0.000452
                          14975.745000     0.001103
                           6652.821900     0.002719
                           3084.270200     0.006655
                           1489.211300     0.015415
                            745.288670     0.031304
                            384.521300     0.047289
                            203.927220     0.017930
                            110.523340    -0.123036
                             61.345569    -0.327485
                             34.404375    -0.190153
                             19.094147     0.365341
                             10.684628     0.614487
                              5.931463     0.253665
                              3.230992     0.025247
                              1.730655     0.001457
                              0.869483    -0.000189
                              0.440589     0.000178
                              0.215859    -0.000001
                              0.091015     0.000034
                              0.040174    -0.000010
                              0.017215     0.000003
   20.1 A     1  2pz   52575799.000000     0.000002
                       15301659.000000     0.000002
                        4822461.600000     0.000007
                        1632045.600000     0.000015
                         584338.640000     0.000036
                         219508.320000     0.000081
                          86085.039000     0.000191
                          35172.956000     0.000452
                          14975.745000     0.001103
                           6652.821900     0.002719
                           3084.270200     0.006655
                           1489.211300     0.015415
                            745.288670     0.031304
                            384.521300     0.047289
                            203.927220     0.017930
                            110.523340    -0.123036
                             61.345569    -0.327485
                             34.404375    -0.190153
                             19.094147     0.365341
                             10.684628     0.614487
                              5.931463     0.253665
                              3.230992     0.025247
                              1.730655     0.001457
                              0.869483    -0.000189
                              0.440589     0.000178
                              0.215859    -0.000001
                              0.091015     0.000034
                              0.040174    -0.000010
                              0.017215     0.000003
   21.1 A     1  2px   52575799.000000    -0.000002
                       15301659.000000    -0.000003
                        4822461.600000    -0.000009
                        1632045.600000    -0.000018
                         584338.640000    -0.000043
                         219508.320000    -0.000097
                          86085.039000    -0.000228
                          35172.956000    -0.000537
                          14975.745000    -0.001302
                           6652.821900    -0.003177
                           3084.270200    -0.007652
                           1489.211300    -0.017311
                            745.288670    -0.034068
                            384.521300    -0.050256
                            203.927220    -0.027762
                            110.523340     0.078094
                             61.345569     0.225253
                             34.404375     0.124053
                             19.094147    -0.273486
                             10.684628    -0.553839
                              5.931463    -0.065277
                              3.230992     0.618524
                              1.730655     0.501044
                              0.869483     0.107343
                              0.440589     0.023201
                              0.215859     0.014691
                              0.091015     0.001511
                              0.040174     0.000132
                              0.017215    -0.000015
   22.1 A     1  2py   52575799.000000    -0.000002
                       15301659.000000    -0.000003
                        4822461.600000    -0.000009
                        1632045.600000    -0.000018
                         584338.640000    -0.000043
                         219508.320000    -0.000097
                          86085.039000    -0.000228
                          35172.956000    -0.000537
                          14975.745000    -0.001302
                           6652.821900    -0.003177
                           3084.270200    -0.007652
                           1489.211300    -0.017311
                            745.288670    -0.034068
                            384.521300    -0.050256
                            203.927220    -0.027762
                            110.523340     0.078094
                             61.345569     0.225253
                             34.404375     0.124053
                             19.094147    -0.273486
                             10.684628    -0.553839
                              5.931463    -0.065277
                              3.230992     0.618524
                              1.730655     0.501044
                              0.869483     0.107343
                              0.440589     0.023201
                              0.215859     0.014691
                              0.091015     0.001511
                              0.040174     0.000132
                              0.017215    -0.000015
   23.1 A     1  2pz   52575799.000000    -0.000002
                       15301659.000000    -0.000003
                        4822461.600000    -0.000009
                        1632045.600000    -0.000018
                         584338.640000    -0.000043
                         219508.320000    -0.000097
                          86085.039000    -0.000228
                          35172.956000    -0.000537
                          14975.745000    -0.001302
                           6652.821900    -0.003177
                           3084.270200    -0.007652
                           1489.211300    -0.017311
                            745.288670    -0.034068
                            384.521300    -0.050256
                            203.927220    -0.027762
                            110.523340     0.078094
                             61.345569     0.225253
                             34.404375     0.124053
                             19.094147    -0.273486
                             10.684628    -0.553839
                              5.931463    -0.065277
                              3.230992     0.618524
                              1.730655     0.501044
                              0.869483     0.107343
                              0.440589     0.023201
                              0.215859     0.014691
                              0.091015     0.001511
                              0.040174     0.000132
                              0.017215    -0.000015
   24.1 A     1  2px   52575799.000000     0.000001
                       15301659.000000     0.000001
                        4822461.600000     0.000004
                        1632045.600000     0.000008
                         584338.640000     0.000019
                         219508.320000     0.000043
                          86085.039000     0.000102
                          35172.956000     0.000240
                          14975.745000     0.000583
                           6652.821900     0.001422
                           3084.270200     0.003426
                           1489.211300     0.007745
                            745.288670     0.015249
                            384.521300     0.022470
                            203.927220     0.012451
                            110.523340    -0.035134
                             61.345569    -0.101385
                             34.404375    -0.055104
                             19.094147     0.131617
                             10.684628     0.274237
                              5.931463     0.008683
                              3.230992    -0.421618
                              1.730655    -0.381893
                              0.869483     0.226214
                              0.440589     0.602150
                              0.215859     0.367232
                              0.091015     0.055939
                              0.040174    -0.001129
                              0.017215     0.001121
   25.1 A     1  2py   52575799.000000     0.000001
                       15301659.000000     0.000001
                        4822461.600000     0.000004
                        1632045.600000     0.000008
                         584338.640000     0.000019
                         219508.320000     0.000043
                          86085.039000     0.000102
                          35172.956000     0.000240
                          14975.745000     0.000583
                           6652.821900     0.001422
                           3084.270200     0.003426
                           1489.211300     0.007745
                            745.288670     0.015249
                            384.521300     0.022470
                            203.927220     0.012451
                            110.523340    -0.035134
                             61.345569    -0.101385
                             34.404375    -0.055104
                             19.094147     0.131617
                             10.684628     0.274237
                              5.931463     0.008683
                              3.230992    -0.421618
                              1.730655    -0.381893
                              0.869483     0.226214
                              0.440589     0.602150
                              0.215859     0.367232
                              0.091015     0.055939
                              0.040174    -0.001129
                              0.017215     0.001121
   26.1 A     1  2pz   52575799.000000     0.000001
                       15301659.000000     0.000001
                        4822461.600000     0.000004
                        1632045.600000     0.000008
                         584338.640000     0.000019
                         219508.320000     0.000043
                          86085.039000     0.000102
                          35172.956000     0.000240
                          14975.745000     0.000583
                           6652.821900     0.001422
                           3084.270200     0.003426
                           1489.211300     0.007745
                            745.288670     0.015249
                            384.521300     0.022470
                            203.927220     0.012451
                            110.523340    -0.035134
                             61.345569    -0.101385
                             34.404375    -0.055104
                             19.094147     0.131617
                             10.684628     0.274237
                              5.931463     0.008683
                              3.230992    -0.421618
                              1.730655    -0.381893
                              0.869483     0.226214
                              0.440589     0.602150
                              0.215859     0.367232
                              0.091015     0.055939
                              0.040174    -0.001129
                              0.017215     0.001121
   27.1 A     1  2px   52575799.000000    -0.000000
                       15301659.000000    -0.000000
                        4822461.600000    -0.000001
                        1632045.600000    -0.000002
                         584338.640000    -0.000005
                         219508.320000    -0.000010
                          86085.039000    -0.000024
                          35172.956000    -0.000058
                          14975.745000    -0.000140
                           6652.821900    -0.000342
                           3084.270200    -0.000823
                           1489.211300    -0.001861
                            745.288670    -0.003664
                            384.521300    -0.005398
                            203.927220    -0.002991
                            110.523340     0.008482
                             61.345569     0.024454
                             34.404375     0.013272
                             19.094147    -0.032305
                             10.684628    -0.067432
                              5.931463    -0.001366
                              3.230992     0.110673
                              1.730655     0.103187
                              0.869483    -0.077840
                              0.440589    -0.217735
                              0.215859    -0.188345
                              0.091015     0.201020
                              0.040174     0.637069
                              0.017215     0.326669
   28.1 A     1  2py   52575799.000000    -0.000000
                       15301659.000000    -0.000000
                        4822461.600000    -0.000001
                        1632045.600000    -0.000002
                         584338.640000    -0.000005
                         219508.320000    -0.000010
                          86085.039000    -0.000024
                          35172.956000    -0.000058
                          14975.745000    -0.000140
                           6652.821900    -0.000342
                           3084.270200    -0.000823
                           1489.211300    -0.001861
                            745.288670    -0.003664
                            384.521300    -0.005398
                            203.927220    -0.002991
                            110.523340     0.008482
                             61.345569     0.024454
                             34.404375     0.013272
                             19.094147    -0.032305
                             10.684628    -0.067432
                              5.931463    -0.001366
                              3.230992     0.110673
                              1.730655     0.103187
                              0.869483    -0.077840
                              0.440589    -0.217735
                              0.215859    -0.188345
                              0.091015     0.201020
                              0.040174     0.637069
                              0.017215     0.326669
   29.1 A     1  2pz   52575799.000000    -0.000000
                       15301659.000000    -0.000000
                        4822461.600000    -0.000001
                        1632045.600000    -0.000002
                         584338.640000    -0.000005
                         219508.320000    -0.000010
                          86085.039000    -0.000024
                          35172.956000    -0.000058
                          14975.745000    -0.000140
                           6652.821900    -0.000342
                           3084.270200    -0.000823
                           1489.211300    -0.001861
                            745.288670    -0.003664
                            384.521300    -0.005398
                            203.927220    -0.002991
                            110.523340     0.008482
                             61.345569     0.024454
                             34.404375     0.013272
                             19.094147    -0.032305
                             10.684628    -0.067432
                              5.931463    -0.001366
                              3.230992     0.110673
                              1.730655     0.103187
                              0.869483    -0.077840
                              0.440589    -0.217735
                              0.215859    -0.188345
                              0.091015     0.201020
                              0.040174     0.637069
                              0.017215     0.326669
   30.1 A     1  2px   52575799.000000    -0.000001
                       15301659.000000    -0.000001
                        4822461.600000    -0.000003
                        1632045.600000    -0.000005
                         584338.640000    -0.000013
                         219508.320000    -0.000028
                          86085.039000    -0.000066
                          35172.956000    -0.000156
                          14975.745000    -0.000379
                           6652.821900    -0.000925
                           3084.270200    -0.002224
                           1489.211300    -0.005040
                            745.288670    -0.009895
                            384.521300    -0.014653
                            203.927220    -0.007970
                            110.523340     0.022757
                             61.345569     0.067049
                             34.404375     0.034635
                             19.094147    -0.086605
                             10.684628    -0.190567
                              5.931463     0.011210
                              3.230992     0.295370
                              1.730655     0.357708
                              0.869483    -0.483437
                              0.440589    -0.603385
                              0.215859     0.215887
                              0.091015     0.715465
                              0.040174     0.271767
                              0.017215     0.004114
   31.1 A     1  2py   52575799.000000    -0.000001
                       15301659.000000    -0.000001
                        4822461.600000    -0.000003
                        1632045.600000    -0.000005
                         584338.640000    -0.000013
                         219508.320000    -0.000028
                          86085.039000    -0.000066
                          35172.956000    -0.000156
                          14975.745000    -0.000379
                           6652.821900    -0.000925
                           3084.270200    -0.002224
                           1489.211300    -0.005040
                            745.288670    -0.009895
                            384.521300    -0.014653
                            203.927220    -0.007970
                            110.523340     0.022757
                             61.345569     0.067049
                             34.404375     0.034635
                             19.094147    -0.086605
                             10.684628    -0.190567
                              5.931463     0.011210
                              3.230992     0.295370
                              1.730655     0.357708
                              0.869483    -0.483437
                              0.440589    -0.603385
                              0.215859     0.215887
                              0.091015     0.715465
                              0.040174     0.271767
                              0.017215     0.004114
   32.1 A     1  2pz   52575799.000000    -0.000001
                       15301659.000000    -0.000001
                        4822461.600000    -0.000003
                        1632045.600000    -0.000005
                         584338.640000    -0.000013
                         219508.320000    -0.000028
                          86085.039000    -0.000066
                          35172.956000    -0.000156
                          14975.745000    -0.000379
                           6652.821900    -0.000925
                           3084.270200    -0.002224
                           1489.211300    -0.005040
                            745.288670    -0.009895
                            384.521300    -0.014653
                            203.927220    -0.007970
                            110.523340     0.022757
                             61.345569     0.067049
                             34.404375     0.034635
                             19.094147    -0.086605
                             10.684628    -0.190567
                              5.931463     0.011210
                              3.230992     0.295370
                              1.730655     0.357708
                              0.869483    -0.483437
                              0.440589    -0.603385
                              0.215859     0.215887
                              0.091015     0.715465
                              0.040174     0.271767
                              0.017215     0.004114
   33.1 A     1  2px   52575799.000000    -0.000001
                       15301659.000000    -0.000001
                        4822461.600000    -0.000004
                        1632045.600000    -0.000009
                         584338.640000    -0.000021
                         219508.320000    -0.000047
                          86085.039000    -0.000111
                          35172.956000    -0.000263
                          14975.745000    -0.000636
                           6652.821900    -0.001554
                           3084.270200    -0.003739
                           1489.211300    -0.008475
                            745.288670    -0.016642
                            384.521300    -0.024644
                            203.927220    -0.013367
                            110.523340     0.038637
                             61.345569     0.114090
                             34.404375     0.057493
                             19.094147    -0.152735
                             10.684628    -0.335275
                              5.931463     0.054116
                              3.230992     0.556566
                              1.730655     0.705542
                              0.869483    -1.835570
                              0.440589    -0.012121
                              0.215859     1.665730
                              0.091015    -0.585220
                              0.040174    -0.541179
                              0.017215     0.007323
   34.1 A     1  2py   52575799.000000    -0.000001
                       15301659.000000    -0.000001
                        4822461.600000    -0.000004
                        1632045.600000    -0.000009
                         584338.640000    -0.000021
                         219508.320000    -0.000047
                          86085.039000    -0.000111
                          35172.956000    -0.000263
                          14975.745000    -0.000636
                           6652.821900    -0.001554
                           3084.270200    -0.003739
                           1489.211300    -0.008475
                            745.288670    -0.016642
                            384.521300    -0.024644
                            203.927220    -0.013367
                            110.523340     0.038637
                             61.345569     0.114090
                             34.404375     0.057493
                             19.094147    -0.152735
                             10.684628    -0.335275
                              5.931463     0.054116
                              3.230992     0.556566
                              1.730655     0.705542
                              0.869483    -1.835570
                              0.440589    -0.012121
                              0.215859     1.665730
                              0.091015    -0.585220
                              0.040174    -0.541179
                              0.017215     0.007323
   35.1 A     1  2pz   52575799.000000    -0.000001
                       15301659.000000    -0.000001
                        4822461.600000    -0.000004
                        1632045.600000    -0.000009
                         584338.640000    -0.000021
                         219508.320000    -0.000047
                          86085.039000    -0.000111
                          35172.956000    -0.000263
                          14975.745000    -0.000636
                           6652.821900    -0.001554
                           3084.270200    -0.003739
                           1489.211300    -0.008475
                            745.288670    -0.016642
                            384.521300    -0.024644
                            203.927220    -0.013367
                            110.523340     0.038637
                             61.345569     0.114090
                             34.404375     0.057493
                             19.094147    -0.152735
                             10.684628    -0.335275
                              5.931463     0.054116
                              3.230992     0.556566
                              1.730655     0.705542
                              0.869483    -1.835570
                              0.440589    -0.012121
                              0.215859     1.665730
                              0.091015    -0.585220
                              0.040174    -0.541179
                              0.017215     0.007323
   36.1 A     1  2px   52575799.000000    -0.000001
                       15301659.000000    -0.000002
                        4822461.600000    -0.000006
                        1632045.600000    -0.000012
                         584338.640000    -0.000030
                         219508.320000    -0.000066
                          86085.039000    -0.000157
                          35172.956000    -0.000360
                          14975.745000    -0.000908
                           6652.821900    -0.002110
                           3084.270200    -0.005394
                           1489.211300    -0.011352
                            745.288670    -0.024563
                            384.521300    -0.031084
                            203.927220    -0.026677
                            110.523340     0.074398
                             61.345569     0.122621
                             34.404375     0.158055
                             19.094147    -0.396610
                             10.684628    -0.217370
                              5.931463    -0.310283
                              3.230992     1.975310
                              1.730655    -0.901781
                              0.869483    -2.796670
                              0.440589     4.376690
                              0.215859    -2.312120
                              0.091015    -0.328877
                              0.040174     0.867979
                              0.017215    -0.037454
   37.1 A     1  2py   52575799.000000    -0.000001
                       15301659.000000    -0.000002
                        4822461.600000    -0.000006
                        1632045.600000    -0.000012
                         584338.640000    -0.000030
                         219508.320000    -0.000066
                          86085.039000    -0.000157
                          35172.956000    -0.000360
                          14975.745000    -0.000908
                           6652.821900    -0.002110
                           3084.270200    -0.005394
                           1489.211300    -0.011352
                            745.288670    -0.024563
                            384.521300    -0.031084
                            203.927220    -0.026677
                            110.523340     0.074398
                             61.345569     0.122621
                             34.404375     0.158055
                             19.094147    -0.396610
                             10.684628    -0.217370
                              5.931463    -0.310283
                              3.230992     1.975310
                              1.730655    -0.901781
                              0.869483    -2.796670
                              0.440589     4.376690
                              0.215859    -2.312120
                              0.091015    -0.328877
                              0.040174     0.867979
                              0.017215    -0.037454
   38.1 A     1  2pz   52575799.000000    -0.000001
                       15301659.000000    -0.000002
                        4822461.600000    -0.000006
                        1632045.600000    -0.000012
                         584338.640000    -0.000030
                         219508.320000    -0.000066
                          86085.039000    -0.000157
                          35172.956000    -0.000360
                          14975.745000    -0.000908
                           6652.821900    -0.002110
                           3084.270200    -0.005394
                           1489.211300    -0.011352
                            745.288670    -0.024563
                            384.521300    -0.031084
                            203.927220    -0.026677
                            110.523340     0.074398
                             61.345569     0.122621
                             34.404375     0.158055
                             19.094147    -0.396610
                             10.684628    -0.217370
                              5.931463    -0.310283
                              3.230992     1.975310
                              1.730655    -0.901781
                              0.869483    -2.796670
                              0.440589     4.376690
                              0.215859    -2.312120
                              0.091015    -0.328877
                              0.040174     0.867979
                              0.017215    -0.037454
   39.1 A     1  2px   52575799.000000     0.000000
                       15301659.000000     0.000000
                        4822461.600000     0.000000
                        1632045.600000     0.000000
                         584338.640000     0.000000
                         219508.320000     0.000000
                          86085.039000     0.000000
                          35172.956000     0.000000
                          14975.745000     0.000000
                           6652.821900     0.000000
                           3084.270200     0.000000
                           1489.211300     0.000000
                            745.288670     0.000000
                            384.521300     0.000000
                            203.927220     0.000000
                            110.523340     0.000000
                             61.345569     0.000000
                             34.404375     0.000000
                             19.094147     0.000000
                             10.684628     0.000000
                              5.931463     0.000000
                              3.230992     0.000000
                              1.730655     0.000000
                              0.869483     0.000000
                              0.440589     0.000000
                              0.215859     0.000000
                              0.091015     0.000000
                              0.040174     0.000000
                              0.017215     1.000000
   40.1 A     1  2py   52575799.000000     0.000000
                       15301659.000000     0.000000
                        4822461.600000     0.000000
                        1632045.600000     0.000000
                         584338.640000     0.000000
                         219508.320000     0.000000
                          86085.039000     0.000000
                          35172.956000     0.000000
                          14975.745000     0.000000
                           6652.821900     0.000000
                           3084.270200     0.000000
                           1489.211300     0.000000
                            745.288670     0.000000
                            384.521300     0.000000
                            203.927220     0.000000
                            110.523340     0.000000
                             61.345569     0.000000
                             34.404375     0.000000
                             19.094147     0.000000
                             10.684628     0.000000
                              5.931463     0.000000
                              3.230992     0.000000
                              1.730655     0.000000
                              0.869483     0.000000
                              0.440589     0.000000
                              0.215859     0.000000
                              0.091015     0.000000
                              0.040174     0.000000
                              0.017215     1.000000
   41.1 A     1  2pz   52575799.000000     0.000000
                       15301659.000000     0.000000
                        4822461.600000     0.000000
                        1632045.600000     0.000000
                         584338.640000     0.000000
                         219508.320000     0.000000
                          86085.039000     0.000000
                          35172.956000     0.000000
                          14975.745000     0.000000
                           6652.821900     0.000000
                           3084.270200     0.000000
                           1489.211300     0.000000
                            745.288670     0.000000
                            384.521300     0.000000
                            203.927220     0.000000
                            110.523340     0.000000
                             61.345569     0.000000
                             34.404375     0.000000
                             19.094147     0.000000
                             10.684628     0.000000
                              5.931463     0.000000
                              3.230992     0.000000
                              1.730655     0.000000
                              0.869483     0.000000
                              0.440589     0.000000
                              0.215859     0.000000
                              0.091015     0.000000
                              0.040174     0.000000
                              0.017215     1.000000
   42.1 A     1  3d0     105911.200000     0.000020
                          24974.572000     0.000129
                           8108.852700     0.000677
                           3150.520500     0.003052
                           1380.647900     0.011950
                            658.188950     0.039706
                            332.909040     0.108875
                            176.023220     0.231727
                             95.780704     0.354949
                             53.337287     0.336096
                             29.864821     0.140603
                             16.526778    -0.033742
                              9.155323    -0.064042
                              4.984876    -0.024095
                              2.636633    -0.002233
                              1.354062     0.000305
                              0.656031     0.000103
                              0.269853     0.000008
                              0.103443     0.000000
                              0.036685     0.000000
   43.1 A     1  3d2-    105911.200000     0.000020
                          24974.572000     0.000129
                           8108.852700     0.000677
                           3150.520500     0.003052
                           1380.647900     0.011950
                            658.188950     0.039706
                            332.909040     0.108875
                            176.023220     0.231727
                             95.780704     0.354949
                             53.337287     0.336096
                             29.864821     0.140603
                             16.526778    -0.033742
                              9.155323    -0.064042
                              4.984876    -0.024095
                              2.636633    -0.002233
                              1.354062     0.000305
                              0.656031     0.000103
                              0.269853     0.000008
                              0.103443     0.000000
                              0.036685     0.000000
   44.1 A     1  3d1+    105911.200000     0.000020
                          24974.572000     0.000129
                           8108.852700     0.000677
                           3150.520500     0.003052
                           1380.647900     0.011950
                            658.188950     0.039706
                            332.909040     0.108875
                            176.023220     0.231727
                             95.780704     0.354949
                             53.337287     0.336096
                             29.864821     0.140603
                             16.526778    -0.033742
                              9.155323    -0.064042
                              4.984876    -0.024095
                              2.636633    -0.002233
                              1.354062     0.000305
                              0.656031     0.000103
                              0.269853     0.000008
                              0.103443     0.000000
                              0.036685     0.000000
   45.1 A     1  3d2+    105911.200000     0.000020
                          24974.572000     0.000129
                           8108.852700     0.000677
                           3150.520500     0.003052
                           1380.647900     0.011950
                            658.188950     0.039706
                            332.909040     0.108875
                            176.023220     0.231727
                             95.780704     0.354949
                             53.337287     0.336096
                             29.864821     0.140603
                             16.526778    -0.033742
                              9.155323    -0.064042
                              4.984876    -0.024095
                              2.636633    -0.002233
                              1.354062     0.000305
                              0.656031     0.000103
                              0.269853     0.000008
                              0.103443     0.000000
                              0.036685     0.000000
   46.1 A     1  3d1-    105911.200000     0.000020
                          24974.572000     0.000129
                           8108.852700     0.000677
                           3150.520500     0.003052
                           1380.647900     0.011950
                            658.188950     0.039706
                            332.909040     0.108875
                            176.023220     0.231727
                             95.780704     0.354949
                             53.337287     0.336096
                             29.864821     0.140603
                             16.526778    -0.033742
                              9.155323    -0.064042
                              4.984876    -0.024095
                              2.636633    -0.002233
                              1.354062     0.000305
                              0.656031     0.000103
                              0.269853     0.000008
                              0.103443     0.000000
                              0.036685     0.000000
   47.1 A     1  3d0     105911.200000    -0.000007
                          24974.572000    -0.000047
                           8108.852700    -0.000246
                           3150.520500    -0.001113
                           1380.647900    -0.004403
                            658.188950    -0.014782
                            332.909040    -0.041545
                            176.023220    -0.089264
                             95.780704    -0.132364
                             53.337287    -0.078125
                             29.864821     0.163137
                             16.526778     0.427766
                              9.155323     0.404323
                              4.984876     0.149842
                              2.636633     0.013528
                              1.354062    -0.001244
                              0.656031    -0.000625
                              0.269853    -0.000007
                              0.103443    -0.000015
                              0.036685     0.000003
   48.1 A     1  3d2-    105911.200000    -0.000007
                          24974.572000    -0.000047
                           8108.852700    -0.000246
                           3150.520500    -0.001113
                           1380.647900    -0.004403
                            658.188950    -0.014782
                            332.909040    -0.041545
                            176.023220    -0.089264
                             95.780704    -0.132364
                             53.337287    -0.078125
                             29.864821     0.163137
                             16.526778     0.427766
                              9.155323     0.404323
                              4.984876     0.149842
                              2.636633     0.013528
                              1.354062    -0.001244
                              0.656031    -0.000625
                              0.269853    -0.000007
                              0.103443    -0.000015
                              0.036685     0.000003
   49.1 A     1  3d1+    105911.200000    -0.000007
                          24974.572000    -0.000047
                           8108.852700    -0.000246
                           3150.520500    -0.001113
                           1380.647900    -0.004403
                            658.188950    -0.014782
                            332.909040    -0.041545
                            176.023220    -0.089264
                             95.780704    -0.132364
                             53.337287    -0.078125
                             29.864821     0.163137
                             16.526778     0.427766
                              9.155323     0.404323
                              4.984876     0.149842
                              2.636633     0.013528
                              1.354062    -0.001244
                              0.656031    -0.000625
                              0.269853    -0.000007
                              0.103443    -0.000015
                              0.036685     0.000003
   50.1 A     1  3d2+    105911.200000    -0.000007
                          24974.572000    -0.000047
                           8108.852700    -0.000246
                           3150.520500    -0.001113
                           1380.647900    -0.004403
                            658.188950    -0.014782
                            332.909040    -0.041545
                            176.023220    -0.089264
                             95.780704    -0.132364
                             53.337287    -0.078125
                             29.864821     0.163137
                             16.526778     0.427766
                              9.155323     0.404323
                              4.984876     0.149842
                              2.636633     0.013528
                              1.354062    -0.001244
                              0.656031    -0.000625
                              0.269853    -0.000007
                              0.103443    -0.000015
                              0.036685     0.000003
   51.1 A     1  3d1-    105911.200000    -0.000007
                          24974.572000    -0.000047
                           8108.852700    -0.000246
                           3150.520500    -0.001113
                           1380.647900    -0.004403
                            658.188950    -0.014782
                            332.909040    -0.041545
                            176.023220    -0.089264
                             95.780704    -0.132364
                             53.337287    -0.078125
                             29.864821     0.163137
                             16.526778     0.427766
                              9.155323     0.404323
                              4.984876     0.149842
                              2.636633     0.013528
                              1.354062    -0.001244
                              0.656031    -0.000625
                              0.269853    -0.000007
                              0.103443    -0.000015
                              0.036685     0.000003
   52.1 A     1  3d0     105911.200000     0.000004
                          24974.572000     0.000029
                           8108.852700     0.000151
                           3150.520500     0.000680
                           1380.647900     0.002694
                            658.188950     0.009015
                            332.909040     0.025311
                            176.023220     0.054175
                             95.780704     0.081018
                             53.337287     0.048855
                             29.864821    -0.090265
                             16.526778    -0.246113
                              9.155323    -0.206236
                              4.984876     0.172306
                              2.636633     0.505507
                              1.354062     0.395599
                              0.656031     0.111489
                              0.269853     0.006247
                              0.103443    -0.000029
                              0.036685    -0.000036
   53.1 A     1  3d2-    105911.200000     0.000004
                          24974.572000     0.000029
                           8108.852700     0.000151
                           3150.520500     0.000680
                           1380.647900     0.002694
                            658.188950     0.009015
                            332.909040     0.025311
                            176.023220     0.054175
                             95.780704     0.081018
                             53.337287     0.048855
                             29.864821    -0.090265
                             16.526778    -0.246113
                              9.155323    -0.206236
                              4.984876     0.172306
                              2.636633     0.505507
                              1.354062     0.395599
                              0.656031     0.111489
                              0.269853     0.006247
                              0.103443    -0.000029
                              0.036685    -0.000036
   54.1 A     1  3d1+    105911.200000     0.000004
                          24974.572000     0.000029
                           8108.852700     0.000151
                           3150.520500     0.000680
                           1380.647900     0.002694
                            658.188950     0.009015
                            332.909040     0.025311
                            176.023220     0.054175
                             95.780704     0.081018
                             53.337287     0.048855
                             29.864821    -0.090265
                             16.526778    -0.246113
                              9.155323    -0.206236
                              4.984876     0.172306
                              2.636633     0.505507
                              1.354062     0.395599
                              0.656031     0.111489
                              0.269853     0.006247
                              0.103443    -0.000029
                              0.036685    -0.000036
   55.1 A     1  3d2+    105911.200000     0.000004
                          24974.572000     0.000029
                           8108.852700     0.000151
                           3150.520500     0.000680
                           1380.647900     0.002694
                            658.188950     0.009015
                            332.909040     0.025311
                            176.023220     0.054175
                             95.780704     0.081018
                             53.337287     0.048855
                             29.864821    -0.090265
                             16.526778    -0.246113
                              9.155323    -0.206236
                              4.984876     0.172306
                              2.636633     0.505507
                              1.354062     0.395599
                              0.656031     0.111489
                              0.269853     0.006247
                              0.103443    -0.000029
                              0.036685    -0.000036
   56.1 A     1  3d1-    105911.200000     0.000004
                          24974.572000     0.000029
                           8108.852700     0.000151
                           3150.520500     0.000680
                           1380.647900     0.002694
                            658.188950     0.009015
                            332.909040     0.025311
                            176.023220     0.054175
                             95.780704     0.081018
                             53.337287     0.048855
                             29.864821    -0.090265
                             16.526778    -0.246113
                              9.155323    -0.206236
                              4.984876     0.172306
                              2.636633     0.505507
                              1.354062     0.395599
                              0.656031     0.111489
                              0.269853     0.006247
                              0.103443    -0.000029
                              0.036685    -0.000036
   57.1 A     1  3d0     105911.200000    -0.000001
                          24974.572000    -0.000008
                           8108.852700    -0.000042
                           3150.520500    -0.000189
                           1380.647900    -0.000746
                            658.188950    -0.002504
                            332.909040    -0.007016
                            176.023220    -0.015063
                             95.780704    -0.022420
                             53.337287    -0.013378
                             29.864821     0.026555
                             16.526778     0.070496
                              9.155323     0.058301
                              4.984876    -0.065834
                              2.636633    -0.177473
                              1.354062    -0.127085
                              0.656031     0.181760
                              0.269853     0.495490
                              0.103443     0.447072
                              0.036685     0.116353
   58.1 A     1  3d2-    105911.200000    -0.000001
                          24974.572000    -0.000008
                           8108.852700    -0.000042
                           3150.520500    -0.000189
                           1380.647900    -0.000746
                            658.188950    -0.002504
                            332.909040    -0.007016
                            176.023220    -0.015063
                             95.780704    -0.022420
                             53.337287    -0.013378
                             29.864821     0.026555
                             16.526778     0.070496
                              9.155323     0.058301
                              4.984876    -0.065834
                              2.636633    -0.177473
                              1.354062    -0.127085
                              0.656031     0.181760
                              0.269853     0.495490
                              0.103443     0.447072
                              0.036685     0.116353
   59.1 A     1  3d1+    105911.200000    -0.000001
                          24974.572000    -0.000008
                           8108.852700    -0.000042
                           3150.520500    -0.000189
                           1380.647900    -0.000746
                            658.188950    -0.002504
                            332.909040    -0.007016
                            176.023220    -0.015063
                             95.780704    -0.022420
                             53.337287    -0.013378
                             29.864821     0.026555
[...]
                                    8  4  pz  -0.32262    9  3  s    0.37909    9  4  s    1.16731   10  5  s   -0.65087
                                   10  4  px  -0.26887   10  4  py   0.66590   10  4  pz   0.31633   11  5  s    0.76228
                                   11  4  py  -0.71368   11  4  pz  -0.35498   12  6  s   -0.40893
   82.1     0.00000     0.03735     1  5  px  -0.30653    1  5  pz   1.11327    1  6  px  -0.95429    1  6  py  -0.33520
                                    1  6  pz   2.71446    1 10  px   2.25831    1 10  py  -0.28896    1 10  pz  -1.46190
                                    1  8  d0  -0.29847    1  8  d2- -0.36620    2  5  s    1.43435    2  4  px  -0.39380
                                    2  4  py  -0.30292    3  4  s    0.26728    4  5  s   -1.22242    4  4  py   0.27048
                                    4  4  pz   0.40229    5  3  s    0.34505    5  4  s    0.77326    6  5  s    0.87467
                                    7  4  s    0.35501    8  5  s   -0.47608   10  4  s    0.86638   10  5  s    3.02303
                                   10  3  px   0.29822   10  4  px   0.95772   10  4  py  -0.30311   11  4  s   -0.28094
                                   11  5  s   -3.91876   11  3  px   0.94797   11  3  py  -0.60655   11  3  pz   0.31363
                                   11  4  px   0.72786   11  4  py  -0.68973   11  4  pz   0.65617   12  6  s   -0.66175
                                   12  4  px   0.39314
   83.1     0.00000     0.04892     1 11  s    2.69895    1  5  px   0.90257    1  5  py  -0.41209    1  6  px   1.45324
                                    1  6  py  -1.99088    1  7  px   0.47926    1  7  py   0.51691    1 10  px   0.69579
                                    1 10  py   0.58646    1 10  pz   2.23405    1  4  d1- -0.50905    1  5  d1-  0.29379
                                    1  8  d0  -0.45581    1  8  d1+ -0.33121    1  8  d1- -1.14107    2  5  s   -1.15189
                                    2  4  py   0.34206    2  4  pz  -0.33482    3  4  s   -1.27571    4  5  s    1.64430
                                    4  4  px   0.25733    4  4  pz  -0.36783    5  3  s   -0.42566    5  4  s   -2.75007
                                    6  5  s    0.79314    6  4  py   0.41142    6  4  pz   0.43512    7  3  s    0.35601
                                    7  4  s    2.54065    8  5  s   -0.52881    8  4  py  -0.69408    9  3  s    0.28824
                                   10  4  s    0.39830   10  5  s    1.34749   10  4  px   1.78881   10  4  py  -0.31226
                                   10  4  pz   0.49393   11  5  s   -4.22194   11  3  px   0.43070   11  3  py  -0.42751
                                   11  4  px   0.32032   11  4  py  -1.24203   12  5  py   0.35373
   84.1     0.00000     0.05421     1  7  s   -0.29775    1 11  s   -4.62694    1  5  px  -0.53146    1  5  py   0.54162
                                    1  5  pz   0.30233    1  6  px  -1.51684    1  6  py   1.75665    1  6  pz   0.99261
                                    1 10  px   1.25443    1 10  py   0.27073    1 10  pz  -2.29954    1  8  d0  -0.39637
                                    1  8  d1-  0.47064    2  5  s    0.36254    2  4  pz  -0.44086    4  5  s   -0.96524
                                    5  3  s   -0.67562    5  4  s   -2.27792    6  5  s   -0.88559    7  3  s    0.55722
                                    7  4  s    0.92555    8  5  s   -0.32382    8  3  pz  -0.29881    8  4  px   0.39167
                                    8  4  py  -0.48750    8  4  pz  -1.01167    9  3  s    1.26401    9  4  s    5.64001
                                    9  3  pz  -0.25874   10  4  s   -0.26379   10  5  s   -2.51878   10  4  px  -2.25898
                                   10  4  py   1.45904   10  4  pz  -0.91630   11  4  s   -0.53658   11  5  s    3.58444
                                   11  3  px  -0.85479   11  3  py   0.52201   11  4  px  -1.45646   11  4  py   0.46595
                                   11  4  pz   0.27415   12  5  s    0.79617   12  6  s    1.88930   12  4  px  -0.63606
                                   12  4  py   0.36601   12  5  px  -0.28030   12  5  py   0.28176
   85.1     0.00000     0.06053     1  5  s   -0.48053    1  6  s   -1.53553    1  7  s   -1.66847    1  8  s   -0.27937
                                    1 11  s   -6.44094    1  5  py   0.70644    1  5  pz  -0.51196    1  6  px  -0.84097
                                    1  6  py   2.67102    1  6  pz  -2.88396    1  7  py  -0.48291    1  7  pz   0.89141
                                    1  8  pz  -0.25364    1 10  px  -0.64329    1 10  pz   4.01952    2  5  s   -1.78812
                                    2  4  py  -0.46534    3  3  s    1.13222    3  4  s    2.92403    5  3  s    0.70020
                                    5  4  s    2.58789    6  5  s   -1.11362    6  3  pz   0.27297    6  4  pz   1.07991
                                    7  3  s    1.15469    7  4  s    3.94324    8  4  px  -0.51062    8  4  py   0.42452
                                    9  3  s   -0.49288    9  4  s   -2.46585   10  4  s   -0.38721   10  5  s   -2.41932
                                   10  4  px  -3.21429   10  4  py   1.26411   10  4  pz   0.27759   11  4  s   -1.07919
                                   11  5  s    3.22874   11  3  px  -1.22619   11  3  py   0.83916   11  3  pz  -0.45949
                                   11  4  px  -1.48494   11  4  py   1.48634   11  4  pz  -1.55138   12  5  s    1.20362
                                   12  6  s    3.44065   12  4  px  -0.97274   12  4  py   0.60746   12  5  px  -0.72370
                                   12  5  py   0.28151   12  5  pz   0.25835
   86.1     0.00000     0.06263     1  6  s   -0.44722    1  7  s   -0.58084    1 11  s    2.80505    1  5  px   0.44932
                                    1  5  pz   0.27300    1  6  px   2.43504    1  6  py   1.46224    1  6  pz  -0.67121
                                    1  7  px  -0.66680    1  7  py  -0.80718    1  7  pz   0.74912    1 10  px  -2.17391
                                    1 10  py  -5.04193    1 10  pz   2.17608    1  8  d0  -0.31014    2  4  s   -0.26757
                                    2  5  s   -1.46901    2  3  py  -0.28139    2  4  px  -0.54880    2  4  py  -1.31463
                                    2  4  pz   0.55988    3  3  s    1.41935    3  4  s    4.38311    5  3  s   -0.96767
                                    5  4  s   -3.74650    6  5  s    1.19513    6  4  py   0.32140    7  3  s   -0.61201
                                    7  4  s   -1.51430    8  4  s    0.42326    8  5  s    2.09335    8  4  px   0.33349
                                    8  4  py  -0.35792    9  3  s   -0.30642    9  4  s   -0.50393   10  5  s    2.48473
                                   10  4  px   1.92093   10  4  py  -1.80424   10  4  pz   0.95377   11  4  s   -0.62268
                                   11  5  s   -5.81390   11  4  px   0.70602   12  6  s    0.87081   12  5  px  -0.28312
   87.1     0.00000     0.07328     1  5  s   -0.42768    1  6  s   -1.62449    1  7  s   -2.39722    1 11  s   -1.36203
                                    1  5  px   0.42219    1  6  px   1.16646    1  6  py   0.92842    1  7  py  -0.31725
                                    1 10  px  -1.27342    1 10  pz   0.37866    1  8  d0   0.28251    2  5  s    0.57124
                                    2  4  py  -0.36246    3  4  s    1.22207    4  5  s    0.66274    6  5  s    0.74763
                                    6  4  pz   0.60807    7  4  s    1.01612    8  5  s    0.68520    8  4  pz  -0.30485
                                    9  4  s    0.50263   10  4  s    0.47662   10  5  s   -1.80389   10  4  px  -0.45405
                                   10  3  d2-  0.25098   11  4  s    3.99469   11  5  s   10.56151   11  3  px   2.38561
                                   11  3  py  -1.35466   11  3  pz   0.47026   11  4  px   2.32797   11  4  py  -0.91039
                                   12  5  s   -2.42628   12  6  s   -9.62476   12  2  px   0.25092   12  4  px   2.25155
                                   12  4  py  -1.38383   12  4  pz   0.56063   12  5  px   2.18373   12  5  py  -1.56875
                                   12  5  pz   0.72833   12  3  d0   0.31751   12  3  d2-  0.54735   12  3  d2+ -0.26055
   88.1     0.00000     0.08414     1  5  s    0.41069    1  6  s    1.60913    1  7  s    2.40549    1 11  s   -6.36421
                                    1  4  py   0.26649    1  5  px  -0.77877    1  5  py   1.57472    1  5  pz  -0.31125
                                    1  6  px  -3.42099    1  6  py   7.49850    1  6  pz  -0.57383    1  7  px   0.69702
                                    1  7  py  -1.74063    1  8  py   0.50872    1 10  px   0.73745    1 10  py  -2.61420
                                    1 10  pz   0.41829    1  4  d2+  0.33010    1  8  d0   0.25360    1  8  d2-  0.99298
                                    1  8  d1+  0.85439    1  8  d2+  0.91548    1  6  f2- -0.32054    1  6  f3- -0.27928
                                    2  5  s   -3.05593    2  4  pz  -0.55557    3  3  s    1.00055    3  4  s    1.22942
                                    4  5  s   -1.61660    4  4  px  -0.40085    4  4  py   0.46467    4  4  pz   0.47823
                                    5  4  s    0.60665    6  5  s   -1.74300    6  4  py  -1.04600    6  4  pz  -0.45512
                                    7  3  s    0.27864    7  4  s    0.77653    8  5  s    0.78520    9  3  s   -0.47845
                                   10  5  s   -6.99126   10  3  py  -0.42616   10  3  pz  -0.29962   10  4  px  -6.84972
                                   10  4  py   1.32973   10  4  pz  -3.10130   11  4  s    1.52038   11  5  s   14.31515
                                   11  3  px   0.37997   11  3  py   0.25179   11  3  pz   0.42543   11  4  px  -1.19954
                                   11  4  py   1.80039   11  4  pz   0.61730   11  3  d1+ -0.47707   11  3  d2+ -0.57482
                                   12  6  s   -2.24187   12  4  px   0.41481   12  5  px   0.97578   12  5  py  -0.39550


 HOMO     78.1    -0.343240 =      -9.3400eV
 LUMO     79.1     0.015570 =       0.4237eV
 LUMO-HOMO         0.358810 =       9.7637eV

 Orbitals saved in record  2100.2


 **********************************************************************************************************************************
 DATASETS  * FILE   NREC   LENGTH (MB)   RECORD NAMES
              1      22       56.09       500      610      700      900      950      970     1000      129      960     1700   
                                          VAR    BASINP    GEOM    SYMINP    ZMAT    AOBASIS   BASIS     P2S    ABASIS    OPER   
                                         1101     1401     1411     1412     1650     1100     1400     1410     1200     1210   
                                          SR      EKINR    POTR     PVPR    MOLCAS      S      EKIN      POT      H0       H01  
                                         1080     1600   
                                         AOSYM     SMH  

              2       6       17.30       500      610      700     1000      520     2100   
                                          VAR    BASINP    GEOM     BASIS   MCVARS     RHF  

 PROGRAMS   *        TOTAL    HF-SCF       INT      FILE
 CPU TIMES  *      2566.92   1122.16   1444.52      0.01
 REAL TIME  *      2835.22 SEC
 DISK USED  *        96.64 MB (local),      166.22 GB (total)
 GA USED    *         0.01 MB       (max)       0.00 MB       (current)
 **********************************************************************************************************************************

 STRING TOO SHORT IN GETSTR FOR VARIABLE BASIS
 ONLY   1 OF  1 SUBSTRINGS WILL BE RETURNED. LAST ONE IS TRUNCATED


 PROGRAM * CCSD (Closed-shell coupled cluster)     Authors: C. Hampel, H.-J. Werner, 1991, M. Deegan, P.J. Knowles, 1992


 Convergence thresholds:  THRVAR = 1.00D-08  THRDEN = 1.00D-06

 CCSD(T)     terms to be evaluated (factor= 1.000)


 Number of core orbitals:          50 (  50 )
 Number of closed-shell orbitals:  28 (  28 )
 Number of external orbitals:     501 ( 501 )

 Molecular orbitals read from record     2100.2  Type=RHF/CANONICAL  

 Number of N-1 electron functions:              28
 Number of N-2 electron functions:             406
 Number of singly external CSFs:             14028
 Number of doubly external CSFs:          98399406
 Total number of CSFs:                    98413435

 Length of J-op  integral file:               0.00 MB
 Length of K-op  integral file:              23.02 MB
 Length of 3-ext integral record:             0.00 MB

 For full I/O caching in triples, increase memory by 1562.01 Mwords to 4062.06 Mwords.

 Multipassing necessary in transformation. To avoid, increase memory by 541.61 Mwords.

 Integral transformation finished. Total CPU:4669.94 sec, npass=  2  Memory used:2491.60 MW

 Reference energy:                 -28014.47194722

 MP2 singlet pair energy:              -1.17861282
 MP2 triplet pair energy:              -0.80011904
 MP2 correlation energy:               -1.97873186
 MP2 total energy:                 -28016.45067908

 SCS-MP2 correlation energy:           -1.91218723   (PS=  1.200000  PT=  0.333333)
 SCS-MP2 total energy:             -28016.38413446

 ITER.      SQ.NORM     CORR.ENERGY   TOTAL ENERGY   ENERGY CHANGE        DEN1      VAR(S)    VAR(P)  DIIS     TIME  TIME/IT
   1      1.55805548    -1.97619952-28016.44814674     0.00253234     0.08708170  0.35D-01  0.19D-01  1  1  8675.69  1448.22
   2      1.59860538    -1.96246197-28016.43440919     0.01373756    -0.05660481  0.70D-03  0.26D-02  2  2 10405.25  1606.49
   3      1.62403732    -1.96512517-28016.43707239    -0.00266321    -0.00727665  0.14D-02  0.24D-03  3  3 12711.54  1854.24
   4      1.63779006    -1.96345776-28016.43540499     0.00166741    -0.00444248  0.23D-03  0.47D-04  4  4 14561.45  1863.84
   5      1.64824941    -1.96284035-28016.43478757     0.00061742    -0.00207279  0.58D-04  0.69D-05  5  5 16278.57  1840.89
   6      1.65187964    -1.96263625-28016.43458347     0.00020410    -0.00029225  0.11D-04  0.27D-05  6  6 17879.17  1806.25
   7      1.65365653    -1.96247607-28016.43442329     0.00016018    -0.00004989  0.35D-05  0.54D-06  6  1 19605.47  1799.65
   8      1.65434842    -1.96244470-28016.43439192     0.00003137    -0.00008251  0.77D-06  0.17D-06  6  2 21538.89  1820.93
   9      1.65449083    -1.96244631-28016.43439353    -0.00000160     0.00002279  0.21D-06  0.51D-07  6  4 23444.27  1834.56
  10      1.65453993    -1.96244891-28016.43439613    -0.00000260     0.00000404  0.62D-07  0.14D-07  6  3 25225.86  1832.36
  11      1.65457299    -1.96244542-28016.43439265     0.00000348    -0.00001277  0.19D-07  0.56D-08  6  5 27089.39  1838.21
  12      1.65457621    -1.96244913-28016.43439635    -0.00000370     0.00000863  0.64D-08  0.13D-08  6  6 28697.29  1821.50
  13      1.65457933    -1.96244784-28016.43439507     0.00000128    -0.00000191  0.14D-08  0.50D-09  6  4 30392.99  1814.28
  14      1.65457902    -1.96244859-28016.43439581    -0.00000074     0.00000193  0.28D-09  0.99D-10  6  1 32505.49  1838.25
  15      1.65457901    -1.96244839-28016.43439561     0.00000020    -0.00000013  0.99D-10  0.24D-10  6  2 34512.80  1851.84

 Norm of t1 vector:      0.25435545      S-energy:     0.00000087      T1 diagnostic:  0.02403433
                                                                       D1 diagnostic:  0.08877966
                                                                       D2 diagnostic:  0.17163161 (internal)

   CPU time for triples:   2718.61 sec for i =  1 -  4 / 28 (~   0.4 % done)
   CPU time for triples:   3348.66 sec for i =  5 -  6 / 28 (~   1.2 % done)
   CPU time for triples:   7509.28 sec for i =  7 - 18 / 28 (~  27.8 % done)
   CPU time for triples:   3572.18 sec for i = 19 - 20 / 28 (~  37.7 % done)
   CPU time for triples:   3374.06 sec for i = 21 - 22 / 28 (~  49.7 % done)
   CPU time for triples:   1947.63 sec for i = 23 - 23 / 28 (~  56.5 % done)
   CPU time for triples:   1948.79 sec for i = 24 - 24 / 28 (~  63.9 % done)
   CPU time for triples:   3896.86 sec for i = 25 - 25 / 28 (~  71.9 % done)
   CPU time for triples:   2921.49 sec for i = 26 - 26 / 28 (~  80.6 % done)
   CPU time for triples:   2920.28 sec for i = 27 - 27 / 28 (~  90.0 % done)
   CPU time for triples:   3527.80 sec for i = 28 - 28 / 28 (  100.0 % done)

 Total CPU time for triples:  37755.48 sec


 RESULTS
 =======

  Reference energy                   -28014.4719472225    
  CCSD singlet pair energy             -1.264344227640
  CCSD triplet pair energy             -0.698105029550
  CCSD correlation energy              -1.962448391439

  Triples (T) contribution             -0.105940489348
  Total correlation energy             -2.068388880788

  CCSD total energy                  -28016.4343956140    
  CCSD[T] energy                     -28016.5536607802    
  CCSD-T energy                      -28016.5363626550    
 !CCSD(T) total energy               -28016.5403361033    

 Timing summary (sec):

 STEP                 CPU(USER)    SYS     CPU(TOT)    WALL
 Transformation       4676.15    123.65   4799.80   4810.63
 CCSD iterations     29891.33    451.53  30342.86  27830.14
 Triples             37755.48    287.47  38042.95  38045.14

 Program statistics:

 Available memory in ccsd:              2499996786
 Min. memory needed in ccsd:             222853045
 Max. memory used in ccsd:               315386731
 Max. memory used in cckext:             275975727 (15 integral passes)



 **********************************************************************************************************************************
 DATASETS  * FILE   NREC   LENGTH (MB)   RECORD NAMES
              1      23    15078.27       500      610      700      900      950      970     1000      129      960     1700   
                                          VAR    BASINP    GEOM    SYMINP    ZMAT    AOBASIS   BASIS     P2S    ABASIS    OPER   
                                         1101     1401     1411     1412     1650     1100     1400     1410     1200     1210   
                                          SR      EKINR    POTR     PVPR    MOLCAS      S      EKIN      POT      H0       H01  
                                         1080     1600     1380   
                                         AOSYM     SMH     JKOP   

              2       6       17.30       500      610      700     1000      520     2100   
                                          VAR    BASINP    GEOM     BASIS   MCVARS     RHF  

 PROGRAMS   *        TOTAL   CCSD(T)    HF-SCF       INT      FILE
 CPU TIMES  *     72323.08  69755.44   1122.16   1444.52      0.01
 REAL TIME  *     73531.12 SEC
 DISK USED  *        23.85 GB (local),      292.51 GB (total)
 SF USED    *        25.02 GB
 GA USED    *         0.01 MB       (max)       0.00 MB       (current)
 **********************************************************************************************************************************

 STRING TOO SHORT IN GETSTR FOR VARIABLE BASIS
 ONLY   1 OF  1 SUBSTRINGS WILL BE RETURNED. LAST ONE IS TRUNCATED
 SETTING ENERGY_HF(1)   =    -28014.47194722  AU                              
 SETTING CORR_MP2(1)    =        -1.97873186  AU                              
 SETTING CORR_CCSDT(1)  =        -2.06838888  AU                              

 CCSD(T)/PA=CC-PVTZ-X2C,O=AUG-CC-PVTZ-X2C,H=AUG-CC-PVTZ-X2C,N=AUG-CC-PVTZ-X2C,C=AUG-CC-PV energy= -28016.540336103317

         CCSD(T)          HF-SCF
 -28016.54033610 -28014.47194722
 **********************************************************************************************************************************
 Molpro calculation terminated
