

 Parallel Execution: Process Information
 ==============================================================================
 Rank   Node Name                              NodeID   MyNodeRank  NodeMaster
    0   u-0-6.local                               0          0          0
    1   u-0-6.local                               0          1         -1
    2   u-0-6.local                               1          0          1
    3   u-0-6.local                               1          1         -1
    4   u-0-6.local                               2          0          2
    5   u-0-6.local                               2          1         -1
    6   u-0-6.local                               3          0          3
    7   u-0-6.local                               3          1         -1
 ==============================================================================


May use up to 31228MB of RAM as shared memory on node 0
May use up to 31250MB of RAM as shared memory on node 1
May use up to 31250MB of RAM as shared memory on node 2
May use up to 31250MB of RAM as shared memory on node 3

 *******************************************************************************
 *                                                                             *
 *  --------------------------------                                           *
 *   Amsterdam Modeling Suite (AMS)              2022.103                      *
 *  --------------------------------                                           *
 *                                               r104886 2022-06-17            *
 *                                                                             *
 *                                                                             *
 *                              =================                              *
 *                              |               |                              *
 *                              |     A M S     |                              *
 *                              |               |                              *
 *                              =================                              *
 *                                                                             *
 *                                                                             *
 *   Online information and documentation:  https://www.scm.com/support/       *
 *   E-mail:  support@scm.com   info@scm.com                                   *
 *                                                                             *
 *   Scientific publications using AMS results must be properly referenced     *
 *   See the User Manuals (or the web site) for recommended citations          *
 *   The terms and conditions of the End User License Agreement apply to       *
 *   the use of AMS, https://www.scm.com/license-terms/                        *
 *                                                                             *
 **********************  x86_64_linux_intel / intelmpi  ************************
 
 Licensed to: Dr. Val?rie Vallet / Laboratoire PhLAM UMR 8523 / Villeneuve d'Ascq Cedex / FRANCE 2023-02-21 11:49:39
 SCM User ID: u10325
  
 AMS 2022.103  RunTime: Feb22-2023 12:12:55  ShM Nodes: 4  Procs: 8

 AMS jobname: ams
 AMS jobid  : 551316818

 Start   directory: /home/shaaban/ams/PhD/nitrate/pa_oh4_no3/gp/B22/
 Results directory: /home/shaaban/ams/PhD/nitrate/pa_oh4_no3/gp/B22/pa_oh4_no3.SR.b3lyp.tz2p.opt-freq-B22.results/
 Scratch directory: /state/partition2/shaaban/928867.phlam-s-sakura/amstmp_ams_kid0.551316818/


 Communication costs MPI_COMM_WORLD:      5.096 usec per message,   0.0183 usec per 8-byte item
 Communication costs for intra-node:      0.633 usec per message,   0.0024 usec per 8-byte item

 RNG seed: -1009035626 889317569 -38936246 -1849524391 -352918001 -507611051 1155044930 -526044238



                      ************************************************************************
                      *  ADF 2022.103  RunTime: Feb22-2023 12:12:56  ShM Nodes: 4  Procs: 8  *
                      ************************************************************************
  
       ***************************
       *  GEOMETRY OPTIMIZATION  *
       ***************************

Optimization Method                    Quasi Newton
Optimization Coordinates               Delocalized Coordinates
Optimize lattice                       F
 
 ------------------------------------------------------
 Convergence criteria (Hartree,Angstrom)
 ------------------------------------------------------
 Maximum gradient               0.000100000000
 Maximum rms gradient           0.000066666667
 Maximum step allowed           0.001000000000
 Maximum rms step allowed       0.000666666667
 Maximum energy change allowe   0.000013000000
 Maximum stress energy allowe   0.000500000000
 
Initial model Hessian                  Automatic Hessian
 
------------------------------------
Quasi-Newton Optimizer Parameters
------------------------------------
Hessian Update Method                  BFGS
Maximum number of steps                  250
First GDIIS cycle                          0
Maximum GDIIS vectors                      0
Trust radius (bohr)                        0.200000
Trust radius varies                        T
Constraints converged at all steps         T
Use projector                              T
 
 Rigid motions settings for: old optimizer
 Atomic rotations (x,y,z):     T T T
 Atomic translations (x,y,z):  T T T
 Tolerance:                   1.000000000000000E-006
 
--------
Geometry
--------
Formula: H4NO7Pa
Atoms
  Index Symbol   x (angstrom)   y (angstrom)   z (angstrom)
      1     Pa     0.34601472    -0.07416228     0.03577287
      2      O     2.10237134     0.07657093     1.19788308
      3      H    -1.96464694     1.85289063     0.46970094
      4      O    -1.31883582     1.14631278     0.42477540
      5      H     2.58473464    -0.23251484     1.96808979
      6      O     0.18639990    -1.35865954    -1.61665480
      7      H     0.15735988    -1.87462938    -2.42324305
      8      O    -0.37137603    -1.54781318     1.33768875
      9      H    -0.97669755    -2.15542285     1.76754294
     10      O     0.44925286     2.39331196    -0.00680341
     11      O     2.16408175     1.59747728     0.00181072
     12      N     1.46725537     3.29511339    -0.00179780
     13      O     2.18886590     4.24135601    -0.00001604
 
Total System Charge             0.00000
Bonding info available!
 
 
----------------
ADF Engine Input
----------------
 
 Basis
 Type TZ2P
 Core None
 End
 XC
 Hybrid B3LYP
 End
 NumericalQuality Good
 

 Title: *** (NO TITLE) ***

Bad geometry: could not add a dihedral for atom    7
 Using automatic Hessian for delocalized coordinates.
 *** GO1_GOStep1 ***



 ======================
 RI Hartree-Fock Scheme
 ======================
  
 Fit Set Quality     : GOOD
 Threshold Quality   : GOOD
 Integration Quality : GOOD
 Response Quality    : DEFAULT
 Is Range Separated  :  F
 
 RIHartreeFock Dependency: number of modified vectors:           4
  
 Hartree-Fock exchange energy:   -531.396839054099     

 Energy gradients wrt nuclear displacements
 ==========================================

     Atom      Cartesian (a.u./angstrom)
                 X         Y         Z
 ----------------------------------------
     1 Pa   -0.058599 -0.064638 -0.046458
     2 O     0.011899  0.109289 -0.052629
     3 H    -0.005269 -0.003669 -0.001171
     4 O     0.037073  0.050282  0.002942
     5 H    -0.005791  0.007222 -0.003957
     6 O    -0.002776 -0.007814  0.013110
     7 H    -0.000263  0.002619  0.000369
     8 O    -0.001949 -0.005034  0.006514
     9 H    -0.001658 -0.002036 -0.000025
    10 O     0.225323 -0.351129 -0.011944
    11 O    -0.178846 -0.081708  0.044968
    12 N    -0.124089  0.352284  0.064600
    13 O     0.104944 -0.005668 -0.016318
 ----------------------------------------
 Mulliken charges used for AMS results%charges...
 
----------------------------------------------------------------------
Geometry Convergence after Step   1       (Hartree/Angstrom,Angstrom)
----------------------------------------------------------------------
current energy                               -3.39329772 Hartree
energy change                      -3.39329772     0.00001300    F
constrained gradient max            0.35228974     0.00010000    F
constrained gradient rms            0.10113236     0.00006667    F
gradient max                        0.35228834
gradient rms                        0.10113236
cart. step max                      0.03774463     0.00100000    F
cart. step rms                      0.01687161     0.00066667    F
 
 
--------
Geometry
--------
Formula: H4NO7Pa
Atoms
  Index Symbol   x (angstrom)   y (angstrom)   z (angstrom)
      1     Pa     0.35090300    -0.05714656     0.03997598
      2      O     2.11021259     0.05828208     1.20704209
      3      H    -1.98979630     1.83288971     0.46629872
      4      O    -1.33498025     1.13468122     0.42462771
      5      H     2.58906487    -0.26418797     1.97623913
      6      O     0.19514775    -1.33430184    -1.62046235
      7      H     0.16855612    -1.84796904    -2.42904510
      8      O    -0.36421361    -1.52452653     1.34667213
      9      H    -0.96835940    -2.13034057     1.77958005
     10      O     0.43456853     2.42833833    -0.01187192
     11      O     2.17691926     1.59295432    -0.00291462
     12      N     1.47974635     3.25736877    -0.01009454
     13      O     2.16701112     4.21378899    -0.01129787
 
Total System Charge             0.00000
Bonding info available!
 
 *** GO1_GOStep2 ***



 ======================
 RI Hartree-Fock Scheme
 ======================
  
 Fit Set Quality     : GOOD
 Threshold Quality   : GOOD
 Integration Quality : GOOD
 Response Quality    : DEFAULT
 Is Range Separated  :  F
 
 RIHartreeFock Dependency: number of modified vectors:           4
  
 Hartree-Fock exchange energy:   -531.428862684257     

 Energy gradients wrt nuclear displacements
 ==========================================

     Atom      Cartesian (a.u./angstrom)
                 X         Y         Z
 ----------------------------------------
     1 Pa   -0.060288 -0.064891 -0.050122
     2 O     0.014103  0.108154 -0.052878
     3 H    -0.004945 -0.003874 -0.001226
     4 O     0.033827  0.049336  0.003687
     5 H    -0.002156  0.007209 -0.001132
     6 O    -0.002711 -0.008357  0.011477
     7 H    -0.000370  0.002098 -0.000241
     8 O    -0.002349 -0.004272  0.007567
     9 H    -0.000840 -0.001517 -0.000468
    10 O     0.190187 -0.341123 -0.010729
    11 O    -0.148582 -0.100612  0.047678
    12 N    -0.113066  0.387465  0.062627
    13 O     0.097191 -0.029616 -0.016240
 ----------------------------------------
 Mulliken charges used for AMS results%charges...

 dE(predicted):    -0.35181E-01, dE(actual):    -0.40360E-01, Trust radius:    0.400000, all in a.u.
 
----------------------------------------------------------------------
Geometry Convergence after Step   2       (Hartree/Angstrom,Angstrom)
----------------------------------------------------------------------
current energy                               -3.43365766 Hartree
energy change                      -0.04035994     0.00001300    F
constrained gradient max            0.38747449     0.00010000    F
constrained gradient rms            0.10045839     0.00006667    F
gradient max                        0.38747301
gradient rms                        0.10045839
cart. step max                      0.08376355     0.00100000    F
cart. step rms                      0.03163027     0.00066667    F
 
 
--------
Geometry
--------
Formula: H4NO7Pa
Atoms
  Index Symbol   x (angstrom)   y (angstrom)   z (angstrom)
      1     Pa     0.36198509    -0.02734690     0.04825657
      2      O     2.12378587     0.02175462     1.22483362
      3      H    -2.02157540     1.80676043     0.45784478
      4      O    -1.35453109     1.12013910     0.42328530
      5      H     2.59220615    -0.32642234     1.99155259
      6      O     0.21076155    -1.29031612    -1.62620510
      7      H     0.18755600    -1.79958518    -2.43812216
      8      O    -0.34934706    -1.48258890     1.36294745
      9      H    -0.95220314    -2.08481519     1.80143112
     10      O     0.41708767     2.49565359    -0.02191482
     11      O     2.19674552     1.58548158    -0.01477208
     12      N     1.49848306     3.17360522    -0.02553680
     13      O     2.10382578     4.16751101    -0.02885104
 
Total System Charge             0.00000
Bonding info available!
 
 *** GO1_GOStep3 ***



 ======================
 RI Hartree-Fock Scheme
 ======================
  
 Fit Set Quality     : GOOD
 Threshold Quality   : GOOD
 Integration Quality : GOOD
 Response Quality    : DEFAULT
 Is Range Separated  :  F
 
 RIHartreeFock Dependency: number of modified vectors:           4
  
 Hartree-Fock exchange energy:   -531.507558160271     

 Energy gradients wrt nuclear displacements
 ==========================================

     Atom      Cartesian (a.u./angstrom)
                 X         Y         Z
 ----------------------------------------
     1 Pa   -0.057369 -0.062616 -0.054130
     2 O     0.015462  0.100306 -0.049306
     3 H    -0.004156 -0.004191 -0.001367
     4 O     0.029201  0.046460  0.004629
     5 H     0.002491  0.007244  0.002112
     6 O    -0.002802 -0.009265  0.008779
     7 H    -0.000432  0.001496 -0.000866
     8 O    -0.002029 -0.002056  0.008362
     9 H     0.000202 -0.000947 -0.001024
    10 O     0.142870 -0.276844 -0.006482
    11 O    -0.098428 -0.128019  0.048578
    12 N    -0.091686  0.378015  0.054464
    13 O     0.066678 -0.049583 -0.013747
 ----------------------------------------
 Mulliken charges used for AMS results%charges...

 dE(predicted):    -0.77887E-01, dE(actual):    -0.74418E-01, Trust radius:    0.800000, all in a.u.
 
----------------------------------------------------------------------
Geometry Convergence after Step   3       (Hartree/Angstrom,Angstrom)
----------------------------------------------------------------------
current energy                               -3.50807571 Hartree
energy change                      -0.07441805     0.00001300    F
constrained gradient max            0.37802377     0.00010000    F
constrained gradient rms            0.08960808     0.00006667    F
gradient max                        0.37802228
gradient rms                        0.08960808
cart. step max                      0.17105531     0.00100000    F
cart. step rms                      0.06278300     0.00066667    F
 
 
--------
Geometry
--------
Formula: H4NO7Pa
Atoms
  Index Symbol   x (angstrom)   y (angstrom)   z (angstrom)
      1     Pa     0.38434089     0.03658739     0.07135134
      2      O     2.14301953    -0.04255679     1.26006764
      3      H    -2.09121785     1.74007089     0.44779975
      4      O    -1.39686621     1.08034137     0.42742758
      5      H     2.58201896    -0.44486667     2.01861642
      6      O     0.24405540    -1.19446699    -1.63054930
      7      H     0.22891573    -1.69431695    -2.44880538
      8      O    -0.31764472    -1.40343040     1.39382858
      9      H    -0.91810565    -2.00236058     1.83946629
     10      O     0.39640996     2.63152705    -0.04923332
     11      O     2.22019406     1.58918689    -0.04579544
     12      N     1.52993557     3.00254991    -0.06767070
     13      O     2.00972435     4.06156581    -0.06175405
 
Total System Charge             0.00000
Bonding info available!
 
 *** GO1_GOStep4 ***



 ======================
 RI Hartree-Fock Scheme
 ======================
  
 Fit Set Quality     : GOOD
 Threshold Quality   : GOOD
 Integration Quality : GOOD
 Response Quality    : DEFAULT
 Is Range Separated  :  F
 
 RIHartreeFock Dependency: number of modified vectors:           4
  
 Hartree-Fock exchange energy:   -531.659889862907     

 Energy gradients wrt nuclear displacements
 ==========================================

     Atom      Cartesian (a.u./angstrom)
                 X         Y         Z
 ----------------------------------------
     1 Pa   -0.037062 -0.041372 -0.055809
     2 O     0.013974  0.073807 -0.035863
     3 H    -0.002908 -0.004444 -0.001480
     4 O     0.016786  0.034609  0.007180
     5 H     0.007383  0.006661  0.004412
     6 O    -0.003523 -0.011085  0.003962
     7 H    -0.000343  0.001054 -0.001331
     8 O    -0.000748  0.003326  0.008135
     9 H     0.001348 -0.000697 -0.001340
    10 O     0.172388 -0.066255 -0.000570
    11 O    -0.024100 -0.159960  0.047835
    12 N    -0.113521  0.214507  0.030695
    13 O    -0.029675 -0.050151 -0.005827
 ----------------------------------------
 Mulliken charges used for AMS results%charges...
 Rebuilding optimization coordinates
Bad geometry: could not add a dihedral for atom    7

 dE(predicted):    -0.11428E+00, dE(actual):    -0.10079E+00, Trust radius:    1.000000, all in a.u.
 
----------------------------------------------------------------------
Geometry Convergence after Step   4       (Hartree/Angstrom,Angstrom)
----------------------------------------------------------------------
current energy                               -3.60886073 Hartree
energy change                      -0.10078502     0.00001300    F
constrained gradient max            0.21452734     0.00010000    F
constrained gradient rms            0.06010249     0.00006667    F
gradient max                        0.21452598
gradient rms                        0.06010249
cart. step max                      0.17870318     0.00100000    F
cart. step rms                      0.08884953     0.00066667    F
 
 
--------
Geometry
--------
Formula: H4NO7Pa
Atoms
  Index Symbol   x (angstrom)   y (angstrom)   z (angstrom)
      1     Pa     0.39182874     0.12391702     0.13323906
      2      O     2.14267607    -0.08742150     1.31787341
      3      H    -2.22558710     1.58582098     0.47796472
      4      O    -1.48489209     0.97705962     0.47173799
      5      H     2.54183603    -0.56443031     2.05160957
      6      O     0.30014933    -1.03835682    -1.61815654
      7      H     0.31382856    -1.51561378    -2.44952167
      8      O    -0.29006606    -1.34529469     1.42074452
      9      H    -0.88615769    -1.95875867     1.85354180
     10      O     0.33281018     2.80227365    -0.08362554
     11      O     2.18426438     1.65233947    -0.07518733
     12      N     1.57431936     2.83076211    -0.14644493
     13      O     2.11977031     3.89753384    -0.19902565
 
Total System Charge             0.00000
Bonding info available!
 
 *** GO1_GOStep5 ***



 ======================
 RI Hartree-Fock Scheme
 ======================
  
 Fit Set Quality     : GOOD
 Threshold Quality   : GOOD
 Integration Quality : GOOD
 Response Quality    : DEFAULT
 Is Range Separated  :  F
 
 RIHartreeFock Dependency: number of modified vectors:           4
  
 Hartree-Fock exchange energy:   -531.724375467131     

 Energy gradients wrt nuclear displacements
 ==========================================

     Atom      Cartesian (a.u./angstrom)
                 X         Y         Z
 ----------------------------------------
     1 Pa    0.008336  0.000266 -0.051239
     2 O     0.010042  0.035500 -0.015965
     3 H    -0.002484 -0.004551 -0.001020
     4 O     0.003460  0.016339  0.010190
     5 H     0.007635  0.005776  0.001804
     6 O    -0.004752 -0.013189 -0.001232
     7 H     0.000142  0.001254 -0.000998
     8 O    -0.001238  0.010706  0.005544
     9 H     0.001822 -0.001590 -0.000569
    10 O     0.051922  0.060751  0.001390
    11 O     0.004676 -0.090966  0.047641
    12 N    -0.022092 -0.026988 -0.000448
    13 O    -0.057469  0.006692  0.004903
 ----------------------------------------
 Mulliken charges used for AMS results%charges...

 dE(predicted):    -0.55423E-01, dE(actual):    -0.58053E-01, Trust radius:    1.000000, all in a.u.
 
----------------------------------------------------------------------
Geometry Convergence after Step   5       (Hartree/Angstrom,Angstrom)
----------------------------------------------------------------------
current energy                               -3.66691329 Hartree
energy change                      -0.05805256     0.00001300    F
constrained gradient max            0.09096297     0.00010000    F
constrained gradient rms            0.02617171     0.00006667    F
gradient max                        0.09096445
gradient rms                        0.02617171
cart. step max                      0.18393455     0.00100000    F
cart. step rms                      0.04838369     0.00066667    F
 
 
--------
Geometry
--------
Formula: H4NO7Pa
Atoms
  Index Symbol   x (angstrom)   y (angstrom)   z (angstrom)
      1     Pa     0.37427189     0.13471169     0.18063639
      2      O     2.12247987    -0.08070593     1.36039859
      3      H    -2.26574293     1.54722907     0.51561572
      4      O    -1.52083594     0.94294181     0.51115283
      5      H     2.51489892    -0.57911667     2.08198989
      6      O     0.32840101    -0.96719487    -1.60614415
      7      H     0.36374028    -1.42086342    -2.44975546
      8      O    -0.29864585    -1.38579951     1.41527061
      9      H    -0.89527745    -2.01599737     1.82312723
     10      O     0.32062947     2.81324768    -0.04640335
     11      O     2.16412081     1.67630467    -0.06607139
     12      N     1.57892971     2.84880248    -0.18210729
     13      O     2.22781023     3.84627128    -0.38296020
 
Total System Charge             0.00000
Bonding info available!
 
 *** GO1_GOStep6 ***



 ======================
 RI Hartree-Fock Scheme
 ======================
  
 Fit Set Quality     : GOOD
 Threshold Quality   : GOOD
 Integration Quality : GOOD
 Response Quality    : DEFAULT
 Is Range Separated  :  F
 
 RIHartreeFock Dependency: number of modified vectors:           4
  
 Hartree-Fock exchange energy:   -531.705397499152     

 Energy gradients wrt nuclear displacements
 ==========================================

     Atom      Cartesian (a.u./angstrom)
                 X         Y         Z
 ----------------------------------------
     1 Pa    0.000192 -0.001303 -0.046843
     2 O     0.010107  0.029794 -0.014164
     3 H    -0.002165 -0.003851 -0.001028
     4 O     0.004065  0.009460  0.009538
     5 H     0.005994  0.006170  0.000126
     6 O    -0.003775 -0.011791 -0.000631
     7 H     0.000124  0.001455 -0.000597
     8 O    -0.001681  0.010201  0.005156
     9 H     0.001517 -0.001624 -0.000317
    10 O    -0.000763  0.011300  0.001717
    11 O     0.006530 -0.057241  0.040626
    12 N    -0.034443  0.000116  0.011290
    13 O     0.014298  0.007313 -0.004872
 ----------------------------------------
 Mulliken charges used for AMS results%charges...

 dE(predicted):    -0.75551E-02, dE(actual):    -0.92899E-02, Trust radius:    1.000000, all in a.u.
 
----------------------------------------------------------------------
Geometry Convergence after Step   6       (Hartree/Angstrom,Angstrom)
----------------------------------------------------------------------
current energy                               -3.67620323 Hartree
energy change                      -0.00928995     0.00001300    F
constrained gradient max            0.05722369     0.00010000    F
constrained gradient rms            0.01653976     0.00006667    F
gradient max                        0.05722519
gradient rms                        0.01653976
cart. step max                      0.17075999     0.00100000    F
cart. step rms                      0.05695625     0.00066667    F
 
 
--------
Geometry
--------
Formula: H4NO7Pa
Atoms
  Index Symbol   x (angstrom)   y (angstrom)   z (angstrom)
      1     Pa     0.36294445     0.14710595     0.25892557
      2      O     2.10084620    -0.09003666     1.42284658
      3      H    -2.29097058     1.52572749     0.54556202
      4      O    -1.55144931     0.91375762     0.55636892
      5      H     2.46734086    -0.62884731     2.12972449
      6      O     0.37439990    -0.85088551    -1.58130046
      7      H     0.43540724    -1.26748717    -2.44258056
      8      O    -0.30127221    -1.43466266     1.42300751
      9      H    -0.90343563    -2.07913992     1.79904461
     10      O     0.33031656     2.83383757    -0.01289839
     11      O     2.15076768     1.69442399    -0.10014392
     12      N     1.58308298     2.82001006    -0.29008677
     13      O     2.25680187     3.77602746    -0.55372019
 
Total System Charge             0.00000
Bonding info available!
 
 *** GO1_GOStep7 ***



 ======================
 RI Hartree-Fock Scheme
 ======================
  
 Fit Set Quality     : GOOD
 Threshold Quality   : GOOD
 Integration Quality : GOOD
 Response Quality    : DEFAULT
 Is Range Separated  :  F
 
 RIHartreeFock Dependency: number of modified vectors:           4
  
 Hartree-Fock exchange energy:   -531.735968945517     

 Energy gradients wrt nuclear displacements
 ==========================================

     Atom      Cartesian (a.u./angstrom)
                 X         Y         Z
 ----------------------------------------
     1 Pa    0.002672 -0.005690 -0.033372
     2 O     0.003458  0.019686 -0.015329
     3 H    -0.002224 -0.002952 -0.000618
     4 O     0.005518  0.004027  0.006631
     5 H     0.004313  0.003680  0.000590
     6 O    -0.002560 -0.008686  0.000569
     7 H     0.000280  0.001271 -0.000798
     8 O    -0.001427  0.009983  0.004127
     9 H     0.001648 -0.001013 -0.000312
    10 O    -0.010199  0.011719  0.021363
    11 O    -0.008428  0.021051  0.039418
    12 N    -0.009587 -0.025837 -0.040550
    13 O     0.016535 -0.027239  0.018280
 ----------------------------------------
 Mulliken charges used for AMS results%charges...

 dE(predicted):    -0.50335E-02, dE(actual):    -0.56819E-02, Trust radius:    1.000000, all in a.u.
 
----------------------------------------------------------------------
Geometry Convergence after Step   7       (Hartree/Angstrom,Angstrom)
----------------------------------------------------------------------
current energy                               -3.68188514 Hartree
energy change                      -0.00568191     0.00001300    F
constrained gradient max            0.04056322     0.00010000    F
constrained gradient rms            0.01489368     0.00006667    F
gradient max                        0.04056247
gradient rms                        0.01489368
cart. step max                      0.22159493     0.00100000    F
cart. step rms                      0.05524799     0.00066667    F
 
 
--------
Geometry
--------
Formula: H4NO7Pa
Atoms
  Index Symbol   x (angstrom)   y (angstrom)   z (angstrom)
      1     Pa     0.35568656     0.15116119     0.32919126
      2      O     2.08767339    -0.10864429     1.48529399
      3      H    -2.29797502     1.52346994     0.56911729
      4      O    -1.56965776     0.89765266     0.59296997
      5      H     2.43330515    -0.68099663     2.17663348
      6      O     0.41741164    -0.74394974    -1.55613229
      7      H     0.49927071    -1.12355119    -2.43272069
      8      O    -0.30950345    -1.48339002     1.42284302
      9      H    -0.92053815    -2.13720490     1.76738887
     10      O     0.34777992     2.83807325     0.00776113
     11      O     2.14560523     1.69582537    -0.11085962
     12      N     1.59651159     2.81077262    -0.32142188
     13      O     2.22921021     3.72061265    -0.77531513
 
Total System Charge             0.00000
Bonding info available!
 
 *** GO1_GOStep8 ***



 ======================
 RI Hartree-Fock Scheme
 ======================
  
 Fit Set Quality     : GOOD
 Threshold Quality   : GOOD
 Integration Quality : GOOD
 Response Quality    : DEFAULT
 Is Range Separated  :  F
 
 RIHartreeFock Dependency: number of modified vectors:           4
  
 Hartree-Fock exchange energy:   -531.742942642546     

 Energy gradients wrt nuclear displacements
 ==========================================

     Atom      Cartesian (a.u./angstrom)
                 X         Y         Z
 ----------------------------------------
     1 Pa    0.000812 -0.011671 -0.023163
     2 O     0.000711  0.015264 -0.016216
     3 H    -0.002209 -0.002232 -0.000252
     4 O     0.006435  0.000838  0.004270
     5 H     0.003080  0.002427  0.000684
     6 O    -0.001161 -0.005859  0.000903
     7 H     0.000266  0.001086 -0.000684
     8 O    -0.001291  0.008815  0.003907
     9 H     0.001516 -0.000730 -0.000171
    10 O    -0.014976  0.003262  0.011248
    11 O    -0.029140  0.038531  0.017256
    12 N     0.023687 -0.020009 -0.001242
    13 O     0.012270 -0.029723  0.003460
 ----------------------------------------
 Mulliken charges used for AMS results%charges...

 dE(predicted):    -0.85256E-02, dE(actual):    -0.49582E-02, Trust radius:    1.000000, all in a.u.
 
----------------------------------------------------------------------
Geometry Convergence after Step   8       (Hartree/Angstrom,Angstrom)
----------------------------------------------------------------------
current energy                               -3.68684339 Hartree
energy change                      -0.00495825     0.00001300    F
constrained gradient max            0.03854961     0.00010000    F
constrained gradient rms            0.01280381     0.00006667    F
gradient max                        0.03854845
gradient rms                        0.01280381
cart. step max                      0.21471359     0.00100000    F
cart. step rms                      0.07368847     0.00066667    F
 
 
--------
Geometry
--------
Formula: H4NO7Pa
Atoms
  Index Symbol   x (angstrom)   y (angstrom)   z (angstrom)
      1     Pa     0.35147952     0.13913910     0.43174650
      2      O     2.05855998    -0.13680048     1.58279118
      3      H    -2.27688690     1.54409091     0.60454987
      4      O    -1.58063672     0.88263758     0.64702217
      5      H     2.35629061    -0.75426134     2.25880211
      6      O     0.47170468    -0.59433326    -1.50955342
      7      H     0.57302438    -0.91957037    -2.40584624
      8      O    -0.31414672    -1.56789039     1.42417940
      9      H    -0.94237719    -2.22599978     1.72791906
     10      O     0.39196571     2.79597789     0.00084576
     11      O     2.16237815     1.67096813    -0.17193428
     12      N     1.59871999     2.80946015    -0.44574399
     13      O     2.16470454     3.71641279    -0.99002872
 
Total System Charge             0.00000
Bonding info available!
 
 *** GO1_GOStep9 ***



 ======================
 RI Hartree-Fock Scheme
 ======================
  
 Fit Set Quality     : GOOD
 Threshold Quality   : GOOD
 Integration Quality : GOOD
 Response Quality    : DEFAULT
 Is Range Separated  :  F
 
 RIHartreeFock Dependency: number of modified vectors:           4
  
 Hartree-Fock exchange energy:   -531.712161370152     

 Energy gradients wrt nuclear displacements
 ==========================================

     Atom      Cartesian (a.u./angstrom)
                 X         Y         Z
 ----------------------------------------
     1 Pa   -0.003451 -0.028429  0.002857
     2 O    -0.009891  0.011687 -0.023071
     3 H    -0.001829 -0.000881  0.000486
     4 O     0.008173 -0.002786 -0.000420
     5 H     0.000104  0.000189  0.000710
     6 O     0.002449  0.000654  0.002649
     7 H    -0.000157  0.000656 -0.000610
     8 O    -0.000650  0.006294  0.003599
     9 H     0.001043 -0.000351  0.000343
    10 O     0.009077 -0.025715  0.020467
    11 O    -0.034333 -0.012432  0.036770
    12 N     0.013889  0.048434 -0.039266
    13 O     0.015576  0.002679 -0.004514
 ----------------------------------------
 Mulliken charges used for AMS results%charges...
 Rebuilding optimization coordinates
Bad geometry: could not add a dihedral for atom    7

 dE(predicted):    -0.73683E-02, dE(actual):    -0.44135E-02, Trust radius:    1.000000, all in a.u.
 
----------------------------------------------------------------------
Geometry Convergence after Step   9       (Hartree/Angstrom,Angstrom)
----------------------------------------------------------------------
current energy                               -3.69125691 Hartree
energy change                      -0.00441352     0.00001300    F
constrained gradient max            0.04845844     0.00010000    F
constrained gradient rms            0.01596615     0.00006667    F
gradient max                        0.04845783
gradient rms                        0.01596615
cart. step max                      0.08031533     0.00100000    F
cart. step rms                      0.03043740     0.00066667    F
 
 
--------
Geometry
--------
Formula: H4NO7Pa
Atoms
  Index Symbol   x (angstrom)   y (angstrom)   z (angstrom)
      1     Pa     0.35870502     0.14087294     0.46803441
      2      O     2.05493027    -0.14792700     1.62552305
      3      H    -2.24934383     1.57278789     0.59891505
      4      O    -1.57749972     0.88758622     0.65710744
      5      H     2.31938954    -0.78411552     2.29760907
      6      O     0.47992569    -0.52930519    -1.49240320
      7      H     0.57935347    -0.83925504    -2.39409623
      8      O    -0.29218814    -1.59354169     1.43023572
      9      H    -0.92686071    -2.25068156     1.72388228
     10      O     0.38591750     2.77306423    -0.06980163
     11      O     2.16976660     1.65005874    -0.23937217
     12      N     1.58863837     2.77124551    -0.45824908
     13      O     2.12404596     3.70904140    -0.99263531
 
Total System Charge             0.00000
Bonding info available!
 
 *** GO1_GOStep10 ***



 ======================
 RI Hartree-Fock Scheme
 ======================
  
 Fit Set Quality     : GOOD
 Threshold Quality   : GOOD
 Integration Quality : GOOD
 Response Quality    : DEFAULT
 Is Range Separated  :  F
 
 RIHartreeFock Dependency: number of modified vectors:           4
  
 Hartree-Fock exchange energy:   -531.741718298310     

 Energy gradients wrt nuclear displacements
 ==========================================

     Atom      Cartesian (a.u./angstrom)
                 X         Y         Z
 ----------------------------------------
     1 Pa    0.003660 -0.026372  0.012692
     2 O    -0.012604  0.007029 -0.022555
     3 H    -0.001379 -0.000653  0.001028
     4 O     0.005968 -0.001137 -0.003205
     5 H    -0.001248  0.000322 -0.000180
     6 O     0.003736  0.003395  0.001036
     7 H    -0.000399  0.000544 -0.000001
     8 O     0.000947  0.004568  0.003830
     9 H     0.000572 -0.000434  0.000914
    10 O     0.036157  0.000321 -0.010921
    11 O    -0.031306  0.004643  0.015162
    12 N    -0.000684  0.003415  0.007837
    13 O    -0.003421  0.004359 -0.005637
 ----------------------------------------
 Mulliken charges used for AMS results%charges...

 dE(predicted):    -0.33737E-02, dE(actual):    -0.40064E-02, Trust radius:    1.000000, all in a.u.
 
----------------------------------------------------------------------
Geometry Convergence after Step  10       (Hartree/Angstrom,Angstrom)
----------------------------------------------------------------------
current energy                               -3.69526336 Hartree
energy change                      -0.00400645     0.00001300    F
constrained gradient max            0.03611778     0.00010000    F
constrained gradient rms            0.01073957     0.00006667    F
gradient max                        0.03611847
gradient rms                        0.01073957
cart. step max                      0.04265087     0.00100000    F
cart. step rms                      0.01473775     0.00066667    F
 
 
--------
Geometry
--------
Formula: H4NO7Pa
Atoms
  Index Symbol   x (angstrom)   y (angstrom)   z (angstrom)
      1     Pa     0.36396958     0.14293942     0.45256244
      2      O     2.05537710    -0.13683879     1.63434310
      3      H    -2.23840606     1.58514392     0.59713741
      4      O    -1.57120363     0.89562078     0.65460361
      5      H     2.31651678    -0.76664699     2.31378562
      6      O     0.45943658    -0.55584342    -1.50032975
      7      H     0.55175929    -0.88002991    -2.39781621
      8      O    -0.28135490    -1.59324647     1.41712877
      9      H    -0.91648313    -2.25028761     1.70994662
     10      O     0.37711434     2.76749332    -0.06611850
     11      O     2.18103149     1.64800233    -0.25506811
     12      N     1.58926168     2.77259993    -0.45544115
     13      O     2.12776089     3.73092440    -0.94998443
 
Total System Charge             0.00000
Bonding info available!
 
 *** GO1_GOStep11 ***



 ======================
 RI Hartree-Fock Scheme
 ======================
  
 Fit Set Quality     : GOOD
 Threshold Quality   : GOOD
 Integration Quality : GOOD
 Response Quality    : DEFAULT
 Is Range Separated  :  F
 
 RIHartreeFock Dependency: number of modified vectors:           4
  
 Hartree-Fock exchange energy:   -531.723404022742     

 Energy gradients wrt nuclear displacements
 ==========================================

     Atom      Cartesian (a.u./angstrom)
                 X         Y         Z
 ----------------------------------------
     1 Pa    0.002794 -0.022917  0.007004
     2 O    -0.007943  0.004941 -0.018694
     3 H    -0.001363 -0.000878  0.000911
     4 O     0.003850  0.000852 -0.003045
     5 H    -0.000701  0.000211  0.000208
     6 O     0.002555  0.001796  0.000667
     7 H    -0.000234  0.000649 -0.000071
     8 O     0.000992  0.003107  0.004495
     9 H     0.000564 -0.000372  0.000956
    10 O     0.017869  0.006845 -0.004238
    11 O    -0.019537 -0.003372  0.018168
    12 N     0.001192 -0.000716 -0.002070
    13 O    -0.000039  0.009853 -0.004290
 ----------------------------------------
 Mulliken charges used for AMS results%charges...

 dE(predicted):    -0.83605E-03, dE(actual):    -0.13679E-02, Trust radius:    1.000000, all in a.u.
 
----------------------------------------------------------------------
Geometry Convergence after Step  11       (Hartree/Angstrom,Angstrom)
----------------------------------------------------------------------
current energy                               -3.69663130 Hartree
energy change                      -0.00136794     0.00001300    F
constrained gradient max            0.02291994     0.00010000    F
constrained gradient rms            0.00771230     0.00006667    F
gradient max                        0.02291985
gradient rms                        0.00771230
cart. step max                      0.13563069     0.00100000    F
cart. step rms                      0.05392151     0.00066667    F
 
 
--------
Geometry
--------
Formula: H4NO7Pa
Atoms
  Index Symbol   x (angstrom)   y (angstrom)   z (angstrom)
      1     Pa     0.39994701     0.14971607     0.44248563
      2      O     2.04081709    -0.08671983     1.74937144
      3      H    -2.16596655     1.62543148     0.64879826
      4      O    -1.53965540     0.89850388     0.70027100
      5      H     2.25296419    -0.71376652     2.44816332
      6      O     0.41906485    -0.55746124    -1.50801161
      7      H     0.49159565    -0.90701461    -2.39802292
      8      O    -0.25000679    -1.62799388     1.33951531
      9      H    -0.91081563    -2.27530487     1.59521468
     10      O     0.37584559     2.71318328    -0.06312892
     11      O     2.23092923     1.62818904    -0.39069881
     12      N     1.58598449     2.75157054    -0.49514208
     13      O     2.08407630     3.76149758    -0.91406590
 
Total System Charge             0.00000
Bonding info available!
 
 *** GO1_GOStep12 ***



 ======================
 RI Hartree-Fock Scheme
 ======================
  
 Fit Set Quality     : GOOD
 Threshold Quality   : GOOD
 Integration Quality : GOOD
 Response Quality    : DEFAULT
 Is Range Separated  :  F
 
 RIHartreeFock Dependency: number of modified vectors:           4
  
 Hartree-Fock exchange energy:   -531.688396965827     

 Energy gradients wrt nuclear displacements
 ==========================================

     Atom      Cartesian (a.u./angstrom)
                 X         Y         Z
 ----------------------------------------
     1 Pa    0.001548 -0.011580 -0.004810
     2 O     0.007041 -0.002945 -0.003913
     3 H    -0.000763 -0.000906  0.000921
     4 O    -0.003659  0.003673 -0.003444
     5 H    -0.000885 -0.000310  0.000245
     6 O     0.000827  0.000289  0.000544
     7 H     0.000096  0.000675 -0.000035
     8 O    -0.002414 -0.003270  0.006371
     9 H     0.000243 -0.000191  0.001321
    10 O    -0.004088  0.024435 -0.000004
    11 O     0.014256 -0.018930  0.012928
    12 N    -0.008175 -0.000225 -0.014259
    13 O    -0.004028  0.009285  0.004134
 ----------------------------------------
 Mulliken charges used for AMS results%charges...
 Rebuilding optimization coordinates
Bad geometry: could not add a dihedral for atom    7

 dE(predicted):    -0.30918E-02, dE(actual):    -0.44226E-02, Trust radius:    1.000000, all in a.u.
 
----------------------------------------------------------------------
Geometry Convergence after Step  12       (Hartree/Angstrom,Angstrom)
----------------------------------------------------------------------
current energy                               -3.70105391 Hartree
energy change                      -0.00442261     0.00001300    F
constrained gradient max            0.02443408     0.00010000    F
constrained gradient rms            0.00728152     0.00006667    F
gradient max                        0.02443419
gradient rms                        0.00728152
cart. step max                      0.15242398     0.00100000    F
cart. step rms                      0.06340225     0.00066667    F
 
 
--------
Geometry
--------
Formula: H4NO7Pa
Atoms
  Index Symbol   x (angstrom)   y (angstrom)   z (angstrom)
      1     Pa     0.44711589     0.15398327     0.43902531
      2      O     2.00650828    -0.01971890     1.88756678
      3      H    -2.08287176     1.63269074     0.74447759
      4      O    -1.49740124     0.87152832     0.77831845
      5      H     2.16970956    -0.64603526     2.60058730
      6      O     0.39922791    -0.53364528    -1.51609250
      7      H     0.45336587    -0.89989998    -2.40116376
      8      O    -0.23209240    -1.66017228     1.24047570
      9      H    -0.92929971    -2.28676647     1.44557924
     10      O     0.39070010     2.65449974    -0.03151351
     11      O     2.26246857     1.61642171    -0.53982161
     12      N     1.58102814     2.72768521    -0.54001592
     13      O     2.04632080     3.74926013    -0.95267366
 
Total System Charge             0.00000
Bonding info available!
 
 *** GO1_GOStep13 ***



 ======================
 RI Hartree-Fock Scheme
 ======================
  
 Fit Set Quality     : GOOD
 Threshold Quality   : GOOD
 Integration Quality : GOOD
 Response Quality    : DEFAULT
 Is Range Separated  :  F
 
 RIHartreeFock Dependency: number of modified vectors:           4
  
 Hartree-Fock exchange energy:   -531.673398846900     

 Energy gradients wrt nuclear displacements
 ==========================================

     Atom      Cartesian (a.u./angstrom)
                 X         Y         Z
 ----------------------------------------
     1 Pa    0.002313 -0.000120 -0.014904
     2 O     0.017200 -0.004956  0.008890
     3 H    -0.000106 -0.000628  0.000913
     4 O    -0.007805  0.001581 -0.002607
     5 H    -0.001508 -0.001532  0.000406
     6 O    -0.000074 -0.000131  0.002179
     7 H     0.000553  0.000486 -0.000262
     8 O    -0.008274 -0.006247  0.005845
     9 H     0.000294  0.000325  0.001152
    10 O    -0.019680  0.021811  0.005650
    11 O     0.035251 -0.016470 -0.003413
    12 N    -0.021672  0.011952 -0.008401
    13 O     0.003507 -0.006070  0.004552
 ----------------------------------------
 Mulliken charges used for AMS results%charges...

 dE(predicted):    -0.20503E-02, dE(actual):    -0.24716E-02, Trust radius:    1.000000, all in a.u.
 
----------------------------------------------------------------------
Geometry Convergence after Step  13       (Hartree/Angstrom,Angstrom)
----------------------------------------------------------------------
current energy                               -3.70352553 Hartree
energy change                      -0.00247162     0.00001300    F
constrained gradient max            0.03523149     0.00010000    F
constrained gradient rms            0.01015913     0.00006667    F
gradient max                        0.03523263
gradient rms                        0.01015913
cart. step max                      0.02873730     0.00100000    F
cart. step rms                      0.01255083     0.00066667    F
 
 
--------
Geometry
--------
Formula: H4NO7Pa
Atoms
  Index Symbol   x (angstrom)   y (angstrom)   z (angstrom)
      1     Pa     0.45096940     0.15168774     0.43737750
      2      O     1.98987911    -0.00441303     1.89867810
      3      H    -2.06716843     1.63562483     0.76121408
      4      O    -1.48780913     0.86956267     0.79420823
      5      H     2.15124613    -0.62643534     2.61623867
      6      O     0.39358333    -0.53638516    -1.51834038
      7      H     0.43766752    -0.90692698    -2.40229877
      8      O    -0.22373651    -1.66389591     1.22898556
      9      H    -0.92270622    -2.29063819     1.42730102
     10      O     0.39465851     2.63679600    -0.05729860
     11      O     2.26397433     1.61040127    -0.56468755
     12      N     1.58887799     2.72408075    -0.54269209
     13      O     2.04534399     3.76037228    -0.92393636
 
Total System Charge             0.00000
Bonding info available!
 
 *** GO1_GOStep14 ***



 ======================
 RI Hartree-Fock Scheme
 ======================
  
 Fit Set Quality     : GOOD
 Threshold Quality   : GOOD
 Integration Quality : GOOD
 Response Quality    : DEFAULT
 Is Range Separated  :  F
 
 RIHartreeFock Dependency: number of modified vectors:           4
  
 Hartree-Fock exchange energy:   -531.685117345485     

 Energy gradients wrt nuclear displacements
 ==========================================

     Atom      Cartesian (a.u./angstrom)
                 X         Y         Z
 ----------------------------------------
     1 Pa    0.003414 -0.001692 -0.008582
     2 O     0.013468 -0.004160  0.005407
     3 H    -0.000053 -0.000327  0.000841
     4 O    -0.005765  0.000173 -0.002881
     5 H    -0.001807 -0.002046  0.000611
     6 O     0.000055  0.000142  0.002541
     7 H     0.000562  0.000387 -0.000458
     8 O    -0.007230 -0.003466  0.004509
     9 H     0.000274  0.000629  0.001022
    10 O    -0.010829  0.021729 -0.000697
    11 O     0.029425 -0.019354 -0.004060
    12 N    -0.016786  0.014350 -0.004484
    13 O    -0.004726 -0.006366  0.006231
 ----------------------------------------
 Mulliken charges used for AMS results%charges...

 dE(predicted):    -0.48605E-03, dE(actual):    -0.80335E-03, Trust radius:    1.000000, all in a.u.
 
----------------------------------------------------------------------
Geometry Convergence after Step  14       (Hartree/Angstrom,Angstrom)
----------------------------------------------------------------------
current energy                               -3.70432888 Hartree
energy change                      -0.00080335     0.00001300    F
constrained gradient max            0.02940664     0.00010000    F
constrained gradient rms            0.00864671     0.00006667    F
gradient max                        0.02940776
gradient rms                        0.00864672
cart. step max                      0.12909018     0.00100000    F
cart. step rms                      0.05825313     0.00066667    F
 
 
--------
Geometry
--------
Formula: H4NO7Pa
Atoms
  Index Symbol   x (angstrom)   y (angstrom)   z (angstrom)
      1     Pa     0.47972457     0.14161940     0.42512325
      2      O     1.90209250     0.07775858     1.98014144
      3      H    -1.98498085     1.63701380     0.86344985
      4      O    -1.43222979     0.85054835     0.88340875
      5      H     2.05875986    -0.51715680     2.72168025
      6      O     0.37265462    -0.53986545    -1.53726703
      7      H     0.36689139    -0.92685413    -2.41544071
      8      O    -0.18991681    -1.68665153     1.14625810
      9      H    -0.90117328    -2.31274736     1.29821084
     10      O     0.41632994     2.56946571    -0.09630937
     11      O     2.26344376     1.59959605    -0.65845685
     12      N     1.61136434     2.70480034    -0.55995825
     13      O     2.05181978     3.76230396    -0.89609087
 
Total System Charge             0.00000
Bonding info available!
 
 *** GO1_GOStep15 ***



 ======================
 RI Hartree-Fock Scheme
 ======================
  
 Fit Set Quality     : GOOD
 Threshold Quality   : GOOD
 Integration Quality : GOOD
 Response Quality    : DEFAULT
 Is Range Separated  :  F
 
 RIHartreeFock Dependency: number of modified vectors:           4
  
 Hartree-Fock exchange energy:   -531.722490394967     

 Energy gradients wrt nuclear displacements
 ==========================================

     Atom      Cartesian (a.u./angstrom)
                 X         Y         Z
 ----------------------------------------
     1 Pa    0.006387 -0.004026  0.007902
     2 O     0.002880 -0.001703 -0.002802
     3 H     0.000283  0.000447  0.000377
     4 O     0.001188 -0.005055 -0.002564
     5 H    -0.002632 -0.003291  0.000409
     6 O     0.000130 -0.000838  0.003090
     7 H     0.000703  0.000243 -0.000697
     8 O    -0.004213  0.008246 -0.000906
     9 H    -0.000352  0.001450  0.000382
    10 O     0.004096  0.003943 -0.010638
    11 O     0.004346 -0.006262 -0.008824
    12 N    -0.005024  0.017666  0.012554
    13 O    -0.007792 -0.010818  0.001716
 ----------------------------------------
 Mulliken charges used for AMS results%charges...

 dE(predicted):    -0.17297E-02, dE(actual):    -0.21223E-02, Trust radius:    1.000000, all in a.u.
 
----------------------------------------------------------------------
Geometry Convergence after Step  15       (Hartree/Angstrom,Angstrom)
----------------------------------------------------------------------
current energy                               -3.70645114 Hartree
energy change                      -0.00212226     0.00001300    F
constrained gradient max            0.01767514     0.00010000    F
constrained gradient rms            0.00565615     0.00006667    F
gradient max                        0.01767393
gradient rms                        0.00565615
cart. step max                      0.06350660     0.00100000    F
cart. step rms                      0.02760239     0.00066667    F
 
 
--------
Geometry
--------
Formula: H4NO7Pa
Atoms
  Index Symbol   x (angstrom)   y (angstrom)   z (angstrom)
      1     Pa     0.49138697     0.13421600     0.41242287
      2      O     1.85650762     0.11695978     2.01516077
      3      H    -1.94761727     1.64466375     0.90218972
      4      O    -1.40433614     0.85150879     0.91706140
      5      H     2.01847735    -0.45365020     2.77364526
      6      O     0.35720433    -0.54588696    -1.55337829
      7      H     0.31995219    -0.93887192    -2.42798947
      8      O    -0.17028553    -1.70365325     1.10762730
      9      H    -0.87912338    -2.33708201     1.24078013
     10      O     0.42781435     2.54575874    -0.09190706
     11      O     2.26600385     1.59344131    -0.68340709
     12      N     1.62023031     2.69402465    -0.56689822
     13      O     2.05856538     3.75840224    -0.89055792
 
Total System Charge             0.00000
Bonding info available!
 
 *** GO1_GOStep16 ***



 ======================
 RI Hartree-Fock Scheme
 ======================
  
 Fit Set Quality     : GOOD
 Threshold Quality   : GOOD
 Integration Quality : GOOD
 Response Quality    : DEFAULT
 Is Range Separated  :  F
 
 RIHartreeFock Dependency: number of modified vectors:           4
  
 Hartree-Fock exchange energy:   -531.726178915614     

 Energy gradients wrt nuclear displacements
 ==========================================

     Atom      Cartesian (a.u./angstrom)
                 X         Y         Z
 ----------------------------------------
     1 Pa    0.007800 -0.003028  0.008356
     2 O     0.001153 -0.001698 -0.002198
     3 H     0.000276  0.000475  0.000093
     4 O     0.002003 -0.004435 -0.001561
     5 H    -0.002569 -0.002909 -0.000266
     6 O    -0.000028 -0.002594  0.001895
     7 H     0.000763  0.000381 -0.000533
     8 O    -0.003090  0.010502 -0.001923
     9 H    -0.000912  0.001488  0.000176
    10 O     0.003110 -0.003492 -0.007978
    11 O    -0.002887 -0.000923 -0.006875
    12 N    -0.001848  0.012090  0.010796
    13 O    -0.003769 -0.005856  0.000018
 ----------------------------------------
 Mulliken charges used for AMS results%charges...

 dE(predicted):    -0.43901E-03, dE(actual):    -0.71740E-03, Trust radius:    1.000000, all in a.u.
 
----------------------------------------------------------------------
Geometry Convergence after Step  16       (Hartree/Angstrom,Angstrom)
----------------------------------------------------------------------
current energy                               -3.70716854 Hartree
energy change                      -0.00071740     0.00001300    F
constrained gradient max            0.01209421     0.00010000    F
constrained gradient rms            0.00448642     0.00006667    F
gradient max                        0.01209283
gradient rms                        0.00448642
cart. step max                      0.12461273     0.00100000    F
cart. step rms                      0.04829073     0.00066667    F
 
 
--------
Geometry
--------
Formula: H4NO7Pa
Atoms
  Index Symbol   x (angstrom)   y (angstrom)   z (angstrom)
      1     Pa     0.50290455     0.11560490     0.38660219
      2      O     1.76973485     0.18024564     2.06223558
      3      H    -1.89433409     1.66497059     0.94859777
      4      O    -1.36006237     0.86583898     0.95722821
      5      H     1.95232289    -0.32903747     2.85679272
      6      O     0.32314826    -0.54817922    -1.58990894
      7      H     0.21527738    -0.94101594    -2.45833825
      8      O    -0.12738186    -1.74518217     1.05423903
      9      H    -0.81258810    -2.40891441     1.16437821
     10      O     0.45173676     2.51670474    -0.07440566
     11      O     2.27414241     1.57574691    -0.69011318
     12      N     1.63751113     2.67218388    -0.57240610
     13      O     2.08236821     3.74086448    -0.89015217
 
Total System Charge             0.00000
Bonding info available!
 
 *** GO1_GOStep17 ***



 ======================
 RI Hartree-Fock Scheme
 ======================
  
 Fit Set Quality     : GOOD
 Threshold Quality   : GOOD
 Integration Quality : GOOD
 Response Quality    : DEFAULT
 Is Range Separated  :  F
 
 RIHartreeFock Dependency: number of modified vectors:           4
  
 Hartree-Fock exchange energy:   -531.725307682712     

 Energy gradients wrt nuclear displacements
 ==========================================

     Atom      Cartesian (a.u./angstrom)
                 X         Y         Z
 ----------------------------------------
     1 Pa    0.010558 -0.001651  0.003288
     2 O    -0.000427 -0.002288  0.001498
     3 H     0.000025  0.000273 -0.000412
     4 O     0.001885 -0.000100  0.001026
     5 H    -0.002069 -0.001598 -0.001844
     6 O     0.000013 -0.005708 -0.001902
     7 H     0.000673  0.000715  0.000097
     8 O    -0.001527  0.010069 -0.001195
     9 H    -0.001955  0.001138 -0.000015
    10 O     0.001918 -0.013627 -0.000888
    11 O    -0.013398  0.008800 -0.000128
    12 N    -0.000736 -0.001268  0.002369
    13 O     0.005040  0.005245 -0.001896
 ----------------------------------------
 Mulliken charges used for AMS results%charges...

 dE(predicted):    -0.83725E-03, dE(actual):    -0.11217E-02, Trust radius:    1.000000, all in a.u.
 
----------------------------------------------------------------------
Geometry Convergence after Step  17       (Hartree/Angstrom,Angstrom)
----------------------------------------------------------------------
current energy                               -3.70829027 Hartree
energy change                      -0.00112173     0.00001300    F
constrained gradient max            0.01363174     0.00010000    F
constrained gradient rms            0.00454771     0.00006667    F
gradient max                        0.01363170
gradient rms                        0.00454771
cart. step max                      0.07959810     0.00100000    F
cart. step rms                      0.03067910     0.00066667    F
 
 
--------
Geometry
--------
Formula: H4NO7Pa
Atoms
  Index Symbol   x (angstrom)   y (angstrom)   z (angstrom)
      1     Pa     0.50411895     0.10367495     0.37207236
      2      O     1.71765044     0.21309192     2.08413058
      3      H    -1.87981519     1.67110499     0.95877188
      4      O    -1.34431852     0.87305299     0.96446304
      5      H     1.91429167    -0.25103953     2.90178511
      6      O     0.29494073    -0.53251443    -1.61352837
      7      H     0.13567928    -0.91557655    -2.47839323
      8      O    -0.09476183    -1.77620333     1.03612204
      9      H    -0.75138335    -2.46880514     1.14222172
     10      O     0.47137606     2.50895089    -0.06701167
     11      O     2.28594538     1.55600021    -0.67950358
     12      N     1.65340475     2.65596326    -0.57282729
     13      O     2.10765165     3.72213069    -0.89355320
 
Total System Charge             0.00000
Bonding info available!
 
 *** GO1_GOStep18 ***



 ======================
 RI Hartree-Fock Scheme
 ======================
  
 Fit Set Quality     : GOOD
 Threshold Quality   : GOOD
 Integration Quality : GOOD
 Response Quality    : DEFAULT
 Is Range Separated  :  F
 
 RIHartreeFock Dependency: number of modified vectors:           4
  
 Hartree-Fock exchange energy:   -531.719424462095     

 Energy gradients wrt nuclear displacements
 ==========================================

     Atom      Cartesian (a.u./angstrom)
                 X         Y         Z
 ----------------------------------------
     1 Pa    0.011902 -0.000331 -0.003860
     2 O    -0.000192 -0.002640  0.005089
     3 H    -0.000058  0.000007 -0.000623
     4 O     0.000694  0.003031  0.002803
     5 H    -0.001515 -0.000956 -0.002287
     6 O     0.000451 -0.006246 -0.004145
     7 H     0.000470  0.000768  0.000427
     8 O    -0.002112  0.005907  0.001538
     9 H    -0.002172  0.000827  0.000005
    10 O     0.003033 -0.014524  0.002099
    11 O    -0.014287  0.010160  0.002818
    12 N    -0.004260 -0.006075 -0.002044
    13 O     0.008044  0.010073 -0.001822
 ----------------------------------------
 Mulliken charges used for AMS results%charges...

 dE(predicted):    -0.46029E-03, dE(actual):    -0.74678E-03, Trust radius:    1.000000, all in a.u.
 
----------------------------------------------------------------------
Geometry Convergence after Step  18       (Hartree/Angstrom,Angstrom)
----------------------------------------------------------------------
current energy                               -3.70903705 Hartree
energy change                      -0.00074678     0.00001300    F
constrained gradient max            0.01452872     0.00010000    F
constrained gradient rms            0.00528423     0.00006667    F
gradient max                        0.01452876
gradient rms                        0.00528423
cart. step max                      0.16698298     0.00100000    F
cart. step rms                      0.06068848     0.00066667    F
 
 
--------
Geometry
--------
Formula: H4NO7Pa
Atoms
  Index Symbol   x (angstrom)   y (angstrom)   z (angstrom)
      1     Pa     0.50532760     0.08306710     0.35176851
      2      O     1.62422964     0.26821060     2.11977672
      3      H    -1.87580602     1.66154331     0.95508170
      4      O    -1.32995469     0.87096706     0.95716933
      5      H     1.84110918    -0.10750051     2.97603355
      6      O     0.23091054    -0.47853900    -1.64852855
      7      H    -0.03130370    -0.83196582    -2.50128829
      8      O    -0.02651316    -1.83370875     1.01461558
      9      H    -0.61593526    -2.58331952     1.12330218
     10      O     0.51504359     2.50282460    -0.06478570
     11      O     2.31580219     1.50942426    -0.65786645
     12      N     1.69343265     2.62161375    -0.57009520
     13      O     2.16843747     3.67721384    -0.90043396
 
Total System Charge             0.00000
Bonding info available!
 
 *** GO1_GOStep19 ***



 ======================
 RI Hartree-Fock Scheme
 ======================
  
 Fit Set Quality     : GOOD
 Threshold Quality   : GOOD
 Integration Quality : GOOD
 Response Quality    : DEFAULT
 Is Range Separated  :  F
 
 RIHartreeFock Dependency: number of modified vectors:           4
  
 Hartree-Fock exchange energy:   -531.710513376183     

 Energy gradients wrt nuclear displacements
 ==========================================

     Atom      Cartesian (a.u./angstrom)
                 X         Y         Z
 ----------------------------------------
     1 Pa    0.013611  0.001330 -0.017071
     2 O    -0.000251 -0.002793  0.010324
     3 H    -0.000117 -0.000274 -0.000893
     4 O    -0.001226  0.006534  0.005410
     5 H    -0.000447 -0.000309 -0.002397
     6 O     0.001442 -0.004614 -0.005663
     7 H    -0.000025  0.000498  0.000536
     8 O    -0.004282 -0.003258  0.007466
     9 H    -0.001859  0.000462  0.000093
    10 O     0.007522 -0.010090  0.002737
    11 O    -0.011193  0.009351  0.004191
    12 N    -0.011449 -0.009209 -0.003771
    13 O     0.008275  0.012371 -0.000962
 ----------------------------------------
 Mulliken charges used for AMS results%charges...
 Rebuilding optimization coordinates

 dE(predicted):    -0.91597E-03, dE(actual):    -0.13183E-02, Trust radius:    1.000000, all in a.u.
 
----------------------------------------------------------------------
Geometry Convergence after Step  19       (Hartree/Angstrom,Angstrom)
----------------------------------------------------------------------
current energy                               -3.71035537 Hartree
energy change                      -0.00131832     0.00001300    F
constrained gradient max            0.01706337     0.00010000    F
constrained gradient rms            0.00653651     0.00006667    F
gradient max                        0.01706349
gradient rms                        0.00653651
cart. step max                      0.18238062     0.00100000    F
cart. step rms                      0.06400871     0.00066667    F
 
 
--------
Geometry
--------
Formula: H4NO7Pa
Atoms
  Index Symbol   x (angstrom)   y (angstrom)   z (angstrom)
      1     Pa     0.50987187     0.06732637     0.34216783
      2      O     1.53572908     0.31661994     2.15445708
      3      H    -1.89092946     1.63027062     0.92809056
      4      O    -1.32837286     0.85180450     0.93128623
      5      H     1.76275819     0.02742960     3.04120311
      6      O     0.15429527    -0.41316680    -1.66210273
      7      H    -0.21368433    -0.72246117    -2.49329910
      8      O     0.04957331    -1.88424404     0.99344860
      9      H    -0.46379387    -2.68615599     1.10830773
     10      O     0.56553281     2.50203049    -0.06932587
     11      O     2.35056142     1.45734468    -0.64566875
     12      N     1.74360479     2.58625580    -0.56571839
     13      O     2.23963380     3.62677694    -0.90809688
 
Total System Charge             0.00000
Bonding info available!
 
 *** GO1_GOStep20 ***



 ======================
 RI Hartree-Fock Scheme
 ======================
  
 Fit Set Quality     : GOOD
 Threshold Quality   : GOOD
 Integration Quality : GOOD
 Response Quality    : DEFAULT
 Is Range Separated  :  F
 
 RIHartreeFock Dependency: number of modified vectors:           4
  
 Hartree-Fock exchange energy:   -531.706765745203     

 Energy gradients wrt nuclear displacements
 ==========================================

     Atom      Cartesian (a.u./angstrom)
                 X         Y         Z
 ----------------------------------------
     1 Pa    0.013941  0.002576 -0.024892
     2 O    -0.001599 -0.002613  0.011970
     3 H     0.000059 -0.000250 -0.001125
     4 O    -0.001941  0.006722  0.006245
     5 H     0.000590 -0.000199 -0.001622
     6 O     0.001782 -0.002097 -0.004233
     7 H    -0.000529  0.000132  0.000469
     8 O    -0.005995 -0.010107  0.011424
     9 H    -0.001197  0.000424  0.000169
    10 O     0.011083 -0.003142 -0.000216
    11 O    -0.005136  0.005852  0.001528
    12 N    -0.015250 -0.006283  0.000550
    13 O     0.004192  0.008984 -0.000269
 ----------------------------------------
 Mulliken charges used for AMS results%charges...

 dE(predicted):    -0.81630E-03, dE(actual):    -0.12417E-02, Trust radius:    1.000000, all in a.u.
 
----------------------------------------------------------------------
Geometry Convergence after Step  20       (Hartree/Angstrom,Angstrom)
----------------------------------------------------------------------
current energy                               -3.71159710 Hartree
energy change                      -0.00124173     0.00001300    F
constrained gradient max            0.02488477     0.00010000    F
constrained gradient rms            0.00703154     0.00006667    F
gradient max                        0.02488477
gradient rms                        0.00703154
cart. step max                      0.05577286     0.00100000    F
cart. step rms                      0.02027553     0.00066667    F
 
 
--------
Geometry
--------
Formula: H4NO7Pa
Atoms
  Index Symbol   x (angstrom)   y (angstrom)   z (angstrom)
      1     Pa     0.50768638     0.06578489     0.34455988
      2      O     1.51909578     0.32533257     2.15941110
      3      H    -1.91346964     1.60979386     0.90527430
      4      O    -1.33928006     0.83988867     0.91046469
      5      H     1.75228212     0.06038753     3.05225934
      6      O     0.12588831    -0.39079420    -1.65781420
      7      H    -0.26945719    -0.68385496    -2.48246558
      8      O     0.07129190    -1.89257659     0.99037841
      9      H    -0.41419912    -2.71069970     1.11037919
     10      O     0.58324261     2.50970837    -0.06861089
     11      O     2.35950776     1.44053302    -0.63610718
     12      N     1.76308384     2.57750180    -0.56048210
     13      O     2.26910733     3.60882566    -0.91249754
 
Total System Charge             0.00000
Bonding info available!
 
 *** GO1_GOStep21 ***



 ======================
 RI Hartree-Fock Scheme
 ======================
  
 Fit Set Quality     : GOOD
 Threshold Quality   : GOOD
 Integration Quality : GOOD
 Response Quality    : DEFAULT
 Is Range Separated  :  F
 
 RIHartreeFock Dependency: number of modified vectors:           4
  
 Hartree-Fock exchange energy:   -531.708967813120     

 Energy gradients wrt nuclear displacements
 ==========================================

     Atom      Cartesian (a.u./angstrom)
                 X         Y         Z
 ----------------------------------------
     1 Pa    0.012739  0.001501 -0.022731
     2 O    -0.002174 -0.003090  0.009600
     3 H     0.000149 -0.000052 -0.001147
     4 O    -0.001325  0.005109  0.004925
     5 H     0.000720 -0.000218 -0.001282
     6 O     0.001438 -0.001083 -0.002656
     7 H    -0.000605  0.000046  0.000423
     8 O    -0.005793 -0.009676  0.011499
     9 H    -0.000984  0.000410  0.000191
    10 O     0.010900 -0.000876 -0.001654
    11 O    -0.003947  0.004919  0.000419
    12 N    -0.013425 -0.003404  0.002971
    13 O     0.002307  0.006416 -0.000558
 ----------------------------------------
 Mulliken charges used for AMS results%charges...

 dE(predicted):    -0.33974E-03, dE(actual):    -0.60169E-03, Trust radius:    1.000000, all in a.u.
 
----------------------------------------------------------------------
Geometry Convergence after Step  21       (Hartree/Angstrom,Angstrom)
----------------------------------------------------------------------
current energy                               -3.71219879 Hartree
energy change                      -0.00060169     0.00001300    F
constrained gradient max            0.02272340     0.00010000    F
constrained gradient rms            0.00625204     0.00006667    F
gradient max                        0.02272340
gradient rms                        0.00625204
cart. step max                      0.21473277     0.00100000    F
cart. step rms                      0.07966378     0.00066667    F
 
 
--------
Geometry
--------
Formula: H4NO7Pa
Atoms
  Index Symbol   x (angstrom)   y (angstrom)   z (angstrom)
      1     Pa     0.51637675     0.06538198     0.35098120
      2      O     1.40998338     0.38267322     2.20763912
      3      H    -1.95308444     1.54634298     0.87514278
      4      O    -1.34877296     0.80001784     0.87963882
      5      H     1.63969612     0.21701229     3.12531649
      6      O     0.01603561    -0.32794134    -1.63222383
      7      H    -0.48418996    -0.57341590    -2.41498238
      8      O     0.16853667    -1.92688715     0.92794648
      9      H    -0.21961280    -2.79568554     1.04132559
     10      O     0.65984802     2.51537685    -0.06457258
     11      O     2.39949043     1.37380299    -0.65192859
     12      N     1.83951120     2.53717352    -0.56085127
     13      O     2.37096201     3.54597919    -0.92868242
 
Total System Charge             0.00000
Bonding info available!
 
 *** GO1_GOStep22 ***



 ======================
 RI Hartree-Fock Scheme
 ======================
  
 Fit Set Quality     : GOOD
 Threshold Quality   : GOOD
 Integration Quality : GOOD
 Response Quality    : DEFAULT
 Is Range Separated  :  F
 
 RIHartreeFock Dependency: number of modified vectors:           4
  
 Hartree-Fock exchange energy:   -531.713650828656     

 Energy gradients wrt nuclear displacements
 ==========================================

     Atom      Cartesian (a.u./angstrom)
                 X         Y         Z
 ----------------------------------------
     1 Pa    0.011993  0.002174 -0.016307
     2 O    -0.006426 -0.002809  0.005005
     3 H     0.000792  0.000638 -0.001406
     4 O     0.001326  0.000002  0.002667
     5 H     0.001474 -0.000274 -0.000388
     6 O    -0.000417 -0.000292  0.002208
     7 H    -0.000785 -0.000100 -0.000127
     8 O    -0.006048 -0.007140  0.008577
     9 H    -0.000408  0.000552  0.000214
    10 O     0.006479  0.003400 -0.003528
    11 O     0.002337 -0.002120 -0.005379
    12 N    -0.006217  0.005681  0.009006
    13 O    -0.004100  0.000289 -0.000543
 ----------------------------------------
 Mulliken charges used for AMS results%charges...

 dE(predicted):    -0.18452E-02, dE(actual):    -0.13641E-02, Trust radius:    1.000000, all in a.u.
 
----------------------------------------------------------------------
Geometry Convergence after Step  22       (Hartree/Angstrom,Angstrom)
----------------------------------------------------------------------
current energy                               -3.71356293 Hartree
energy change                      -0.00136414     0.00001300    F
constrained gradient max            0.01630014     0.00010000    F
constrained gradient rms            0.00492103     0.00006667    F
gradient max                        0.01630014
gradient rms                        0.00492103
cart. step max                      0.09578935     0.00100000    F
cart. step rms                      0.04217431     0.00066667    F
 
 
--------
Geometry
--------
Formula: H4NO7Pa
Atoms
  Index Symbol   x (angstrom)   y (angstrom)   z (angstrom)
      1     Pa     0.49719407     0.07752500     0.37745600
      2      O     1.40817871     0.38823740     2.21516792
      3      H    -2.04887379     1.47259068     0.82516073
      4      O    -1.39962479     0.76503483     0.82820285
      5      H     1.66470187     0.26445643     3.13277158
      6      O    -0.03091452    -0.28046730    -1.59981829
      7      H    -0.55383553    -0.50328072    -2.37426219
      8      O     0.18875116    -1.91913785     0.90853227
      9      H    -0.13467652    -2.81283532     1.03010806
     10      O     0.70254916     2.55230418    -0.05213133
     11      O     2.40374604     1.33795617    -0.61687035
     12      N     1.87964387     2.52098210    -0.55340110
     13      O     2.43794030     3.49646532    -0.96616674
 
Total System Charge             0.00000
Bonding info available!
 
 *** GO1_GOStep23 ***



 ======================
 RI Hartree-Fock Scheme
 ======================
  
 Fit Set Quality     : GOOD
 Threshold Quality   : GOOD
 Integration Quality : GOOD
 Response Quality    : DEFAULT
 Is Range Separated  :  F
 
 RIHartreeFock Dependency: number of modified vectors:           4
  
 Hartree-Fock exchange energy:   -531.724075100395     

 Energy gradients wrt nuclear displacements
 ==========================================

     Atom      Cartesian (a.u./angstrom)
                 X         Y         Z
 ----------------------------------------
     1 Pa    0.007943 -0.004960  0.000659
     2 O    -0.006417 -0.004327 -0.005413
     3 H     0.000296  0.002415 -0.001252
     4 O     0.004916 -0.007030 -0.004210
     5 H     0.001163 -0.000315  0.000175
     6 O    -0.002706  0.000965  0.006723
     7 H    -0.000443 -0.000037 -0.000203
     8 O    -0.004952  0.001984  0.004410
     9 H    -0.000102  0.000501  0.000184
    10 O     0.004490  0.006852 -0.005191
    11 O     0.001529 -0.001668 -0.005739
    12 N     0.000185  0.009003  0.011635
    13 O    -0.005902 -0.003383 -0.001779
 ----------------------------------------
 Mulliken charges used for AMS results%charges...

 dE(predicted):    -0.69645E-03, dE(actual):    -0.28926E-03, Trust radius:    1.000000, all in a.u.
 
----------------------------------------------------------------------
Geometry Convergence after Step  23       (Hartree/Angstrom,Angstrom)
----------------------------------------------------------------------
current energy                               -3.71385219 Hartree
energy change                      -0.00028926     0.00001300    F
constrained gradient max            0.01161038     0.00010000    F
constrained gradient rms            0.00446501     0.00006667    F
gradient max                        0.01161038
gradient rms                        0.00446501
cart. step max                      0.04353760     0.00100000    F
cart. step rms                      0.02020663     0.00066667    F
 
 
--------
Geometry
--------
Formula: H4NO7Pa
Atoms
  Index Symbol   x (angstrom)   y (angstrom)   z (angstrom)
      1     Pa     0.49343494     0.08424505     0.38106731
      2      O     1.37475423     0.40631463     2.23221554
      3      H    -2.06521368     1.45547816     0.86462084
      4      O    -1.40427632     0.75996947     0.85074687
      5      H     1.62804729     0.30799403     3.15370015
      6      O    -0.03686874    -0.27200312    -1.59752943
      7      H    -0.57049954    -0.49142976    -2.36542845
      8      O     0.20263608    -1.92062556     0.87667816
      9      H    -0.09783292    -2.82355192     0.98933512
     10      O     0.72310908     2.55173040    -0.05692384
     11      O     2.40914418     1.31828001    -0.62552387
     12      N     1.89649055     2.50692626    -0.56493741
     13      O     2.46185485     3.47650327    -0.98327157
 
Total System Charge             0.00000
Bonding info available!
 
 *** GO1_GOStep24 ***



 ======================
 RI Hartree-Fock Scheme
 ======================
  
 Fit Set Quality     : GOOD
 Threshold Quality   : GOOD
 Integration Quality : GOOD
 Response Quality    : DEFAULT
 Is Range Separated  :  F
 
 RIHartreeFock Dependency: number of modified vectors:           4
  
 Hartree-Fock exchange energy:   -531.724660738828     

 Energy gradients wrt nuclear displacements
 ==========================================

     Atom      Cartesian (a.u./angstrom)
                 X         Y         Z
 ----------------------------------------
     1 Pa    0.008280 -0.004967  0.001253
     2 O    -0.006982 -0.003432 -0.004149
     3 H     0.001853  0.000689 -0.001249
     4 O     0.002956 -0.005464 -0.002755
     5 H     0.001338 -0.000266  0.000240
     6 O    -0.002293 -0.000558  0.005430
     7 H    -0.000404  0.000223  0.000059
     8 O    -0.005204  0.003831  0.002506
     9 H    -0.000131  0.000258  0.000214
    10 O     0.005585  0.006081 -0.004998
    11 O     0.001241 -0.002612 -0.005906
    12 N    -0.000685  0.007954  0.011076
    13 O    -0.005553 -0.001736 -0.001721
 ----------------------------------------
 Mulliken charges used for AMS results%charges...
 Rebuilding optimization coordinates

 dE(predicted):    -0.26560E-03, dE(actual):    -0.71656E-03, Trust radius:    1.000000, all in a.u.
 
----------------------------------------------------------------------
Geometry Convergence after Step  24       (Hartree/Angstrom,Angstrom)
----------------------------------------------------------------------
current energy                               -3.71456875 Hartree
energy change                      -0.00071656     0.00001300    F
constrained gradient max            0.01104814     0.00010000    F
constrained gradient rms            0.00414213     0.00006667    F
gradient max                        0.01104814
gradient rms                        0.00414213
cart. step max                      0.14818741     0.00100000    F
cart. step rms                      0.05131931     0.00066667    F
 
 
--------
Geometry
--------
Formula: H4NO7Pa
Atoms
  Index Symbol   x (angstrom)   y (angstrom)   z (angstrom)
      1     Pa     0.45081785     0.11361141     0.40403533
      2      O     1.33644777     0.44327379     2.26182884
      3      H    -2.15937481     1.40523760     1.01280825
      4      O    -1.45221996     0.76186097     0.93005937
      5      H     1.60592533     0.39600295     3.18215880
      6      O    -0.00532329    -0.23776218    -1.60120672
      7      H    -0.49858614    -0.48414949    -2.38714691
      8      O     0.19496483    -1.90598287     0.80039341
      9      H    -0.04714070    -2.82888449     0.89254475
     10      O     0.75667309     2.55833692    -0.07704693
     11      O     2.39973565     1.26345386    -0.62075016
     12      N     1.92114308     2.46532553    -0.59848657
     13      O     2.51171732     3.40950691    -1.04444209
 
Total System Charge             0.00000
Bonding info available!
 
 *** GO1_GOStep25 ***



 ======================
 RI Hartree-Fock Scheme
 ======================
  
 Fit Set Quality     : GOOD
 Threshold Quality   : GOOD
 Integration Quality : GOOD
 Response Quality    : DEFAULT
 Is Range Separated  :  F
 
 RIHartreeFock Dependency: number of modified vectors:           4
  
 Hartree-Fock exchange energy:   -531.718858020448     

 Energy gradients wrt nuclear displacements
 ==========================================

     Atom      Cartesian (a.u./angstrom)
                 X         Y         Z
 ----------------------------------------
     1 Pa    0.007525 -0.010188  0.002962
     2 O    -0.003934 -0.000330  0.002548
     3 H     0.001030  0.001480 -0.001150
     4 O    -0.001972 -0.004472  0.002354
     5 H     0.001081 -0.000100 -0.000219
     6 O     0.001152 -0.004107 -0.001099
     7 H    -0.000466  0.000716  0.000603
     8 O    -0.004827  0.009817 -0.002901
     9 H    -0.000178 -0.000252  0.000214
    10 O     0.009271  0.003781 -0.003987
    11 O    -0.001629 -0.003171 -0.004062
    12 N    -0.004344  0.003747  0.006075
    13 O    -0.002709  0.003079 -0.001338
 ----------------------------------------
[...]
     5     H      -0.368002   0.453443   0.076932
     6     O       0.067395  -0.072887  -0.012930
     7     H      -0.343207   0.364008   0.075603
     8     O      -0.023275   0.010506   0.011636
     9     H       0.412662   0.037955  -0.143440
    10     O       0.004906   0.032719  -0.008188
    11     O      -0.020038   0.009717   0.008906
    12     N       0.002397   0.010396  -0.001836
    13     O       0.020985  -0.010045  -0.005916
 
 Mode:    21      Frequency (cm-1):      300.3566     Intensity (km/mol):      196.5561
 Index  Atom      ---- Displacements (x/y/z) ----
     1    Pa      -0.005575   0.006629   0.001046
     2     O       0.072112  -0.083075  -0.014922
     3     H       0.095944   0.566372   0.058982
     4     O      -0.037881  -0.067774  -0.030332
     5     H      -0.313784   0.386730   0.067204
     6     O      -0.001264  -0.007429   0.001817
     7     H       0.016905   0.033681  -0.017474
     8     O       0.081055   0.024993   0.016256
     9     H      -0.614128  -0.029836   0.081932
    10     O      -0.000710  -0.015121  -0.002246
    11     O       0.015152  -0.002056   0.001599
    12     N       0.007881  -0.009810  -0.000559
    13     O      -0.003480   0.002996   0.001200
 
 Mode:    22      Frequency (cm-1):      302.0736     Intensity (km/mol):      116.8510
 Index  Atom      ---- Displacements (x/y/z) ----
     1    Pa      -0.009758  -0.009273   0.004853
     2     O       0.069347   0.063622  -0.038190
     3     H       0.022997   0.371859  -0.065678
     4     O      -0.015394  -0.014360   0.007998
     5     H      -0.446172  -0.415796   0.129989
     6     O       0.067366   0.068433  -0.034397
     7     H      -0.362444  -0.378521   0.287275
     8     O      -0.005585  -0.013248   0.010393
     9     H       0.272666   0.001757  -0.112865
    10     O       0.015341   0.010686  -0.008223
    11     O       0.011445   0.015659  -0.006023
    12     N       0.015613   0.015119  -0.008360
    13     O       0.017085   0.016416  -0.009386
 
 Mode:    23      Frequency (cm-1):      306.8604     Intensity (km/mol):       67.3917
 Index  Atom      ---- Displacements (x/y/z) ----
     1    Pa      -0.003834   0.004125   0.000379
     2     O      -0.047792   0.034986   0.010994
     3     H      -0.085070   0.253243  -0.346034
     4     O       0.021543  -0.018217   0.105121
     5     H       0.211778  -0.161695  -0.050532
     6     O       0.106381  -0.105992  -0.026086
     7     H      -0.499350   0.480928   0.119141
     8     O       0.004461   0.002110  -0.096118
     9     H      -0.201982   0.017605   0.388550
    10     O       0.003827  -0.003433   0.009847
    11     O      -0.000235  -0.002962  -0.015741
    12     N       0.003728  -0.004918  -0.002348
    13     O       0.000134   0.001047   0.001561
 
 Mode:    24      Frequency (cm-1):      328.8829     Intensity (km/mol):       14.3432
 Index  Atom      ---- Displacements (x/y/z) ----
     1    Pa       0.000896   0.000376   0.003711
     2     O       0.078925   0.080899  -0.011759
     3     H       0.080699   0.029617   0.229615
     4     O      -0.026738  -0.009498  -0.072220
     5     H      -0.418099  -0.459087   0.154376
     6     O      -0.057094  -0.077703   0.063215
     7     H       0.353905   0.438235  -0.266933
     8     O      -0.027736  -0.010648  -0.088683
     9     H       0.079087   0.025285   0.305436
    10     O       0.006631   0.004481   0.015754
    11     O       0.004950   0.003523   0.013912
    12     N       0.004609   0.002817   0.010022
    13     O      -0.001936  -0.001100  -0.009218
 
 Mode:    25      Frequency (cm-1):      364.7114     Intensity (km/mol):      334.4255
 Index  Atom      ---- Displacements (x/y/z) ----
     1    Pa       0.007902   0.007445  -0.004098
     2     O      -0.024438  -0.026782   0.017386
     3     H       0.083522   0.660247  -0.120946
     4     O       0.003827  -0.088960   0.010070
     5     H       0.150221   0.154549  -0.040581
     6     O      -0.031802  -0.031493   0.012905
     7     H       0.133420   0.157970  -0.115234
     8     O      -0.084479   0.008848   0.026845
     9     H       0.609055   0.052563  -0.209451
    10     O      -0.010166  -0.005113   0.005562
    11     O      -0.007826  -0.009331   0.005439
    12     N      -0.010596  -0.009190   0.006157
    13     O      -0.011494  -0.011262   0.006228
 
 Mode:    26      Frequency (cm-1):      557.3511     Intensity (km/mol):       85.9066
 Index  Atom      ---- Displacements (x/y/z) ----
     1    Pa      -0.023754  -0.023539   0.013592
     2     O       0.162813   0.085507   0.350121
     3     H       0.277929  -0.086519  -0.086280
     4     O       0.281938  -0.046679  -0.096969
     5     H       0.129544   0.064555   0.359021
     6     O      -0.113504  -0.034327  -0.390877
     7     H      -0.132798  -0.070540  -0.370610
     8     O      -0.027181   0.296821  -0.035344
     9     H      -0.072967   0.291781  -0.036434
    10     O       0.007253   0.001491  -0.003238
    11     O       0.001827   0.007751  -0.002019
    12     N       0.008008   0.008249  -0.004727
    13     O       0.010248   0.009666  -0.005398
 
 Mode:    27      Frequency (cm-1):      587.1282     Intensity (km/mol):      242.3376
 Index  Atom      ---- Displacements (x/y/z) ----
     1    Pa       0.041908  -0.046132  -0.007380
     2     O      -0.015918   0.014875   0.000114
     3     H      -0.462945   0.077587   0.162545
     4     O      -0.460466   0.110734   0.151261
     5     H       0.026191  -0.031224  -0.009089
     6     O      -0.016470   0.016400  -0.002010
     7     H       0.029023  -0.035242  -0.011078
     8     O      -0.078839   0.488895  -0.047602
     9     H      -0.052831   0.489498  -0.080032
    10     O       0.012797  -0.002467  -0.004287
    11     O       0.001396  -0.014255   0.001756
    12     N      -0.007533   0.008261   0.001298
    13     O      -0.012213   0.013393   0.002302
 
 Mode:    28      Frequency (cm-1):      601.4127     Intensity (km/mol):      365.1576
 Index  Atom      ---- Displacements (x/y/z) ----
     1    Pa      -0.025663  -0.011977  -0.068818
     2     O       0.175772   0.082932   0.432262
     3     H      -0.021388  -0.003109  -0.059979
     4     O       0.010549   0.004653   0.031131
     5     H       0.281020   0.204751   0.398601
     6     O       0.149331   0.059972   0.433952
     7     H       0.045296  -0.035185   0.510519
     8     O       0.010697   0.012057   0.030736
     9     H      -0.022798   0.002428  -0.067646
    10     O       0.002234   0.000702   0.005560
    11     O       0.002057   0.000909   0.005780
    12     N       0.006262   0.002666   0.015863
    13     O      -0.003220  -0.001204  -0.008527
 
 Mode:    29      Frequency (cm-1):      657.0139     Intensity (km/mol):      134.2163
 Index  Atom      ---- Displacements (x/y/z) ----
     1    Pa      -0.019148  -0.019079   0.010035
     2     O      -0.108919  -0.051580  -0.273925
     3     H       0.354439  -0.102641  -0.117325
     4     O       0.353102  -0.064758  -0.119570
     5     H      -0.161169  -0.103454  -0.261270
     6     O       0.098304   0.040941   0.280834
     7     H       0.051775  -0.004374   0.319846
     8     O      -0.040921   0.374121  -0.044514
     9     H      -0.081666   0.376917  -0.045198
    10     O      -0.018474   0.076155  -0.005844
    11     O       0.070839  -0.025925  -0.022098
    12     N      -0.046972  -0.044440   0.024803
    13     O      -0.046527  -0.044958   0.024998
 
 Mode:    30      Frequency (cm-1):      704.9790     Intensity (km/mol):        1.6437
 Index  Atom      ---- Displacements (x/y/z) ----
     1    Pa       0.000325  -0.000197  -0.000113
     2     O      -0.005338   0.005739   0.001176
     3     H      -0.017507   0.012478   0.004542
     4     O      -0.018890   0.005564   0.006038
     5     H       0.005780  -0.005073  -0.001342
     6     O      -0.005308   0.006245   0.000961
     7     H       0.005874  -0.008523  -0.000733
     8     O      -0.004288   0.019746  -0.001233
     9     H      -0.013628   0.018395   0.000332
    10     O      -0.472480  -0.192476   0.209549
    11     O       0.223568   0.478481  -0.164395
    12     N      -0.124592   0.139415   0.020724
    13     O       0.388352  -0.443590  -0.068789
 
 Mode:    31      Frequency (cm-1):      748.1112     Intensity (km/mol):       21.9504
 Index  Atom      ---- Displacements (x/y/z) ----
     1    Pa       0.000280   0.000575  -0.000181
     2     O       0.033621   0.017377   0.075719
     3     H      -0.095805   0.022731   0.032481
     4     O      -0.092726   0.022368   0.030486
     5     H       0.022147   0.008649   0.082631
     6     O      -0.024728  -0.008865  -0.080241
     7     H      -0.035719  -0.021067  -0.075391
     8     O       0.016550  -0.098893   0.009691
     9     H       0.021475  -0.101775   0.013744
    10     O      -0.102342   0.596337  -0.061194
    11     O       0.558696  -0.159556  -0.180415
    12     N      -0.170966  -0.161881   0.086413
    13     O      -0.237901  -0.229584   0.129541
 
 Mode:    32      Frequency (cm-1):      815.7693     Intensity (km/mol):       12.0116
 Index  Atom      ---- Displacements (x/y/z) ----
     1    Pa       0.000926   0.000424   0.002497
     2     O      -0.007519  -0.005460  -0.006962
     3     H       0.001680   0.002123   0.004997
     4     O      -0.000435   0.000030  -0.000377
     5     H       0.009933   0.009455  -0.012740
     6     O       0.000595   0.002462  -0.011880
     7     H      -0.015219  -0.011596  -0.000837
     8     O      -0.000134  -0.000351  -0.000488
     9     H       0.000680  -0.000025   0.003784
    10     O      -0.091893  -0.038578  -0.240926
    11     O      -0.086452  -0.041064  -0.241919
    12     N       0.305571   0.138700   0.822029
    13     O      -0.094875  -0.044596  -0.252880
 
 Mode:    33      Frequency (cm-1):     1036.6455     Intensity (km/mol):       69.4825
 Index  Atom      ---- Displacements (x/y/z) ----
     1    Pa       0.000127   0.000046  -0.000045
     2     O       0.001459   0.000188   0.008476
     3     H      -0.009938  -0.001455   0.003752
     4     O      -0.008608   0.002183   0.002814
     5     H      -0.000101  -0.001824   0.011045
     6     O      -0.004308  -0.002520  -0.007018
     7     H      -0.006988  -0.004440  -0.007464
     8     O       0.001441  -0.008801   0.000909
     9     H       0.000212  -0.009930   0.001476
    10     O       0.548170  -0.116170  -0.185047
    11     O      -0.067006   0.584121  -0.074552
    12     N      -0.163270  -0.165230   0.089633
    13     O      -0.328987  -0.313893   0.176047
 
 Mode:    34      Frequency (cm-1):     1242.6502     Intensity (km/mol):      279.0425
 Index  Atom      ---- Displacements (x/y/z) ----
     1    Pa       0.004049  -0.004616  -0.000704
     2     O      -0.006886   0.007542   0.001163
     3     H      -0.006897  -0.008750   0.003943
     4     O      -0.007059   0.005599   0.001642
     5     H       0.017694  -0.018248  -0.004284
     6     O      -0.006816   0.007935   0.001101
     7     H       0.016905  -0.021079  -0.003038
     8     O      -0.005301   0.008131   0.000700
     9     H       0.008217   0.007377  -0.005029
    10     O      -0.281260   0.202349   0.070589
    11     O      -0.165804   0.303478   0.010467
    12     N       0.562326  -0.641092  -0.101214
    13     O      -0.079918   0.095470   0.013648
 
 Mode:    35      Frequency (cm-1):     1610.9446     Intensity (km/mol):      715.6409
 Index  Atom      ---- Displacements (x/y/z) ----
     1    Pa      -0.002060  -0.001995   0.001105
     2     O      -0.001249  -0.000020  -0.007304
     3     H       0.011180  -0.002359  -0.003494
     4     O       0.007379  -0.001099  -0.002561
     5     H       0.001264   0.003633  -0.014263
     6     O       0.003607   0.002243   0.005832
     7     H       0.008658   0.005892   0.009464
     8     O      -0.000643   0.007702  -0.001090
     9     H      -0.002491   0.011740  -0.000522
    10     O      -0.074099  -0.018401   0.030684
    11     O      -0.023991  -0.074472   0.021680
    12     N       0.556483   0.533718  -0.298020
    13     O      -0.369604  -0.355575   0.198262
 
 Mode:    36      Frequency (cm-1):     3860.8405     Intensity (km/mol):      383.6147
 Index  Atom      ---- Displacements (x/y/z) ----
     1    Pa      -0.000001  -0.000001  -0.000005
     2     O       0.006424   0.001244   0.023080
     3     H       0.026067  -0.004321  -0.008652
     4     O      -0.001532   0.000239   0.000405
     5     H      -0.100819  -0.018995  -0.364968
     6     O       0.024724   0.012885   0.051172
     7     H      -0.393039  -0.205471  -0.808740
     8     O       0.000107  -0.001598   0.000005
     9     H      -0.002283   0.027499  -0.001644
    10     O      -0.000068  -0.000054   0.000019
    11     O      -0.000060  -0.000063   0.000022
    12     N       0.000118   0.000116  -0.000082
    13     O      -0.000062  -0.000062   0.000047
 
 Mode:    37      Frequency (cm-1):     3865.9142     Intensity (km/mol):       69.2363
 Index  Atom      ---- Displacements (x/y/z) ----
     1    Pa       0.000002   0.000001   0.000001
     2     O      -0.015543  -0.002998  -0.055868
     3     H       0.067163  -0.011170  -0.022499
     4     O      -0.003898   0.000652   0.001343
     5     H       0.244681   0.046323   0.884864
     6     O       0.009994   0.005213   0.020674
     7     H      -0.159038  -0.083030  -0.327434
     8     O       0.000423  -0.004709   0.000329
     9     H      -0.006962   0.080078  -0.005547
    10     O      -0.000147  -0.000129   0.000090
    11     O      -0.000130  -0.000148   0.000083
    12     N       0.000270   0.000252  -0.000127
    13     O      -0.000147  -0.000146   0.000085
 
 Mode:    38      Frequency (cm-1):     3886.4495     Intensity (km/mol):      279.6993
 Index  Atom      ---- Displacements (x/y/z) ----
     1    Pa      -0.000002   0.000004  -0.000001
     2     O       0.000257   0.000154   0.001138
     3     H      -0.562151   0.092419   0.188124
     4     O       0.035417  -0.005822  -0.011841
     5     H      -0.004470  -0.001252  -0.017042
     6     O      -0.000425  -0.000122  -0.000771
     7     H       0.005866   0.002503   0.011346
     8     O       0.004317  -0.050055   0.003403
     9     H      -0.067851   0.792528  -0.053867
    10     O      -0.000053  -0.000032   0.000024
    11     O       0.000075   0.000081  -0.000041
    12     N       0.000054  -0.000152   0.000006
    13     O       0.000001   0.000035  -0.000008
 
 Mode:    39      Frequency (cm-1):     3888.9838     Intensity (km/mol):      193.8618
 Index  Atom      ---- Displacements (x/y/z) ----
     1    Pa      -0.000005  -0.000004   0.000003
     2     O      -0.001614  -0.000385  -0.005382
     3     H      -0.743975   0.122248   0.248885
     4     O       0.047332  -0.007844  -0.015813
     5     H       0.022038   0.004142   0.079356
     6     O       0.002094   0.001071   0.004593
     7     H      -0.031865  -0.016702  -0.066056
     8     O      -0.003296   0.037667  -0.002566
     9     H       0.050577  -0.590714   0.040081
    10     O      -0.000115  -0.000151   0.000069
    11     O      -0.000132  -0.000080   0.000062
    12     N       0.000273   0.000227  -0.000141
    13     O      -0.000130  -0.000116   0.000071

PES point character: Geometry corresponds to a local minimum on the PES.




 ============================
 Statistical Thermal Analysis  ***  ideal gas assumed  ***
 ============================
  
 Pressure:                  1.000000 atm.
 Temperature:             298.150000 K



 Moments of Inertia [amu*bohr^2] and principal axis
 ==================================================

        1052.9294       2470.8371       2530.2697
 ------------------------------------------------
          -0.6738          0.3459          0.6530
          -0.6451          0.1555         -0.7481
           0.3603          0.9253         -0.1184


 The rotational contribution to the molecular entropy includes
 a term, dependent on the symmetry number sigma. The results 
 reported below were computed using sigma = 1, determined from
 the point group symmetry of the input geometry (NOSYM). 
 If this is not the correct symmetry, try symmetrizing the molecule before
 running the calculation (note: linear molecules should be aligned along one
 of the Cartesian axes).
 Contributions from frequencies below 20 1/cm are not included in vibrational sums.
 Their contributions, if any, are reported separately.


     Temp                                                        Transl      Rotat     Vibrat     Total
     ----                                                        ------      -----     ------     -----

     298.15   Entropy (cal/mol-K):                               43.545     30.266     52.764    126.575
              Nuclear Internal Energy (kcal/mol):                 0.889      0.889     47.225     49.003
              Constant Volume Heat Capacity (cal/mol-K):          2.981      2.981     41.610     47.571
          (c) Constant Volume Heat Capacity (cal/mol-K):          2.981      2.981     36.864     42.825

       Summary of energy terms
                                                   hartree              eV         kcal/mol           kJ/mol
                                      --------------------     -----------       ----------      -----------
      Energy from Engine:               -3.718666619669261       -101.1901         -2333.50         -9763.36
      Nuclear Internal Energy:           0.078090854264537          2.1250            49.00           205.03
  (c) Nuclear Internal Energy:           0.075655007120378          2.0587            47.47           198.63
      Internal Energy U:                -3.640575765404724        -99.0651         -2284.50         -9558.33
      pV/n = RT:                         0.000944186013486          0.0257             0.59             2.48
      Enthalpy H:                       -3.639631579391238        -99.0394         -2283.90         -9555.85
      -T*S:                             -0.060139893021299         -1.6365           -37.74          -157.90
  (c) -T*S:                             -0.057877910964364         -1.5749           -36.32          -151.96
      Gibbs free energy:                -3.699771472412538       -100.6759         -2321.64         -9713.75
 
 
 
  (c) The properties marked with this symbol have been corrected using 'low vibrational frequency free rotor
      interpolation corrections'. For those terms all positive frequencies are used (also ones below 20 1/cm),
      but the contribution to the partition function of small vibrational frequencies is modified as described
      in the following paper:
      S. Grimme, 'Supramolecular Binding Thermodynamics by Dispersion-Corrected Density Functional Theory'
      (Chem. Eur. J. 2012, 18, 9955-9964)
      Configuration: Dampener Frequency          :   100.000 1/cm
                     Dampener Alpha              :     4.000
                     Averaging Moment of Inertia : 1.000E-44 kg m2

--------------
Atomic charges
--------------
  Index   Atom    Charge
      1     Pa    2.8630
      2      O   -0.5613
      3      H    0.0156
      4      O   -0.6012
      5      H    0.0123
      6      O   -0.5612
      7      H    0.0099
      8      O   -0.6020
      9      H    0.0168
     10      O   -0.5641
     11      O   -0.5632
     12      N    0.9239
     13      O   -0.3886


Dipole moment vector    (Debye):    -3.41512658   -3.29753020    1.71841571
              magnitude (Debye):     5.04873722


Final PES point is a local minimum. Geometry optimization successful!


AMS application finished. Exiting.
NORMAL TERMINATION
     Total cpu time:  163675.81
  Total system time:    3387.99
 Total elapsed time:  167058.50
