

 Parallel Execution: Process Information
 ==============================================================================
 Rank   Node Name                              NodeID   MyNodeRank  NodeMaster
    0   u-0-1.local                               0          0          0
    1   u-0-1.local                               0          1         -1
    2   u-0-1.local                               1          0          1
    3   u-0-1.local                               1          1         -1
    4   u-0-1.local                               2          0          2
    5   u-0-1.local                               2          1         -1
    6   u-0-1.local                               3          0          3
    7   u-0-1.local                               3          1         -1
 ==============================================================================


May use up to 31228MB of RAM as shared memory on node 0
May use up to 31250MB of RAM as shared memory on node 2
May use up to 31250MB of RAM as shared memory on node 1
May use up to 31250MB of RAM as shared memory on node 3

 *******************************************************************************
 *                                                                             *
 *  --------------------------------                                           *
 *   Amsterdam Modeling Suite (AMS)              2022.103                      *
 *  --------------------------------                                           *
 *                                               r104886 2022-06-17            *
 *                                                                             *
 *                                                                             *
 *                              =================                              *
 *                              |               |                              *
 *                              |     A M S     |                              *
 *                              |               |                              *
 *                              =================                              *
 *                                                                             *
 *                                                                             *
 *   Online information and documentation:  https://www.scm.com/support/       *
 *   E-mail:  support@scm.com   info@scm.com                                   *
 *                                                                             *
 *   Scientific publications using AMS results must be properly referenced     *
 *   See the User Manuals (or the web site) for recommended citations          *
 *   The terms and conditions of the End User License Agreement apply to       *
 *   the use of AMS, https://www.scm.com/license-terms/                        *
 *                                                                             *
 **********************  x86_64_linux_intel / intelmpi  ************************
 
 Licensed to: Dr. Val?rie Vallet / Laboratoire PhLAM UMR 8523 / Villeneuve d'Ascq Cedex / FRANCE 2023-02-21 11:49:39
 SCM User ID: u10325
  
 AMS 2022.103  RunTime: Mar08-2023 10:18:59  ShM Nodes: 4  Procs: 8

 AMS jobname: pao_oh2_I_h2o.SR.b3lyp.tz2p.opt-freq-A2-solvation
 AMS jobid  : 4544224

 Start   directory: /home/shaaban/ams/PhD/iodide/pao_oh2_I_h2o/solvation/
 Results directory: /home/shaaban/ams/PhD/iodide/pao_oh2_I_h2o/solvation/pao_oh2_I_h2o.SR.b3lyp.tz2p.opt-freq-A2-solvation.results/
 Scratch directory: /state/partition2/shaaban/931074.phlam-s-sakura/amstmp_pao_oh2_I_h2o.SR.b3lyp.tz2p.opt-freq-A2-solvation_kid0.4544224/


 Communication costs MPI_COMM_WORLD:    -15.743 usec per message,   0.0474 usec per 8-byte item
 Communication costs for intra-node:      0.630 usec per message,   0.0024 usec per 8-byte item

 RNG seed: 932864937 -1999417909 -438944120 881227248 1017698347 82564847 -1565306813 637821107



                      ************************************************************************
                      *  ADF 2022.103  RunTime: Mar08-2023 10:19:00  ShM Nodes: 4  Procs: 8  *
                      ************************************************************************
  
       ***************************
       *  GEOMETRY OPTIMIZATION  *
       ***************************

Optimization Method                    Quasi Newton
Optimization Coordinates               Delocalized Coordinates
Optimize lattice                       F
 
 ------------------------------------------------------
 Convergence criteria (Hartree,Angstrom)
 ------------------------------------------------------
 Maximum gradient               0.000100000000
 Maximum rms gradient           0.000066666667
 Maximum step allowed           0.001000000000
 Maximum rms step allowed       0.000666666667
 Maximum energy change allowe   0.000010000000
 Maximum stress energy allowe   0.000500000000
 
Initial model Hessian                  Automatic Hessian
 
------------------------------------
Quasi-Newton Optimizer Parameters
------------------------------------
Hessian Update Method                  BFGS
Maximum number of steps                  250
First GDIIS cycle                          0
Maximum GDIIS vectors                      0
Trust radius (bohr)                        0.200000
Trust radius varies                        T
Constraints converged at all steps         T
Use projector                              T
 
 Rigid motions settings for: old optimizer
 Atomic rotations (x,y,z):     T T T
 Atomic translations (x,y,z):  T T T
 Tolerance:                   1.000000000000000E-006
 
--------
Geometry
--------
Formula: H4IO4Pa
Atoms
  Index Symbol   x (angstrom)   y (angstrom)   z (angstrom)
      1     Pa     0.09186979     0.24130163     0.57040276       adf.R=2.200
      2      O     1.21544878     2.02520567     0.45075846       adf.R=1.517
      3      O    -1.15295156     0.86566255    -1.02215712       adf.R=1.517
      4      I    -1.92826091     0.46003115     2.80694994       adf.R=1.967
      5      H    -1.47147732     1.65466311    -1.47157763       adf.R=1.350
      6      O    -0.25195173    -1.82668915    -0.92414371       adf.R=1.517
      7      H    -0.86347931    -1.87400878    -1.66785402       adf.R=1.350
      8      H     0.19343129    -2.67460668    -0.81715104       adf.R=1.350
      9      H     2.05786207     2.43148015     0.66869453       adf.R=1.350
     10      O     1.38850200    -0.89329931     1.20934516       adf.R=1.517
 
Total System Charge             0.00000
Bonding info available!
 
 
----------------
ADF Engine Input
----------------
 
 Basis
 Type TZ2P
 Core None
 End
 XC
 Hybrid B3LYP
 End
 Solvation
 Surf Delley
 Solv name=Water cav0=0.0 cav1=0.0067639
 Charged method=CONJ
 C-Mat POT
 SCF VAR ALL
 CSMRSP
 End
 NumericalQuality Good
 

 Title: *** (NO TITLE) ***

 Using automatic Hessian for delocalized coordinates.
 *** GO1_GOStep1 ***

 SOLVATION
-------------------------------------------

  The Delley construction of COSMO surface surface is calculated

       Division Level for Surface Triangles (NDIV)                  3
       Final Division Level for Triangles (NFDIV)                   1
       Radius of the Solvent (RSOL)                           1.93000 angstr
  Dielectric Constant (EPSL)                                 78.39000

       COSMO equation is solved iteratively-               conjugate-gradient

       Maximun of Iterations for Charges (NCIX)                  1000
       Criterion for Charge convergence (CCNV)                1.0E-08

  COSMO charges included variationally in SCF

       COSMO included at every SCF cycle

  Geometry-dependent empirical factor                         0.00000

  C-Matrix calculated in cspmtx

  In cspmtx, C-Matrix calculated using fitted potential

-------------------------------------------



 -------------------------------------------
  COSMO surface
  Area             =          557.049
  Volume           =          892.425
  Number of Points =         1314
 -------------------------------------------



 ======================
 RI Hartree-Fock Scheme
 ======================
  
 Fit Set Quality     : GOOD
 Threshold Quality   : GOOD
 Integration Quality : GOOD
 Response Quality    : DEFAULT
 Is Range Separated  :  F
 
 RIHartreeFock Dependency: number of modified vectors:           4
 cosmo_calcen: 0.5 (esolb+esolc) (Hartrees) =   -0.042988

 Solvation energy (screening term,uncorrected) =    -26.975108 kcal/mol

 Solvation energy (dispersion and cavitation terms) =      1.041639 kcal/mol
 Solvation Energy Contributions (Hartrees)
          esola   esolb+esolc
     0.04298757   -0.08597513
 esol last cycle   -0.04298757
  
 Hartree-Fock exchange energy:   -680.670101107362     
 cosmo_calcen: 0.5 (esolb+esolc) (Hartrees) =   -0.042988

 Solvation energy (screening term,uncorrected) =    -26.975113 kcal/mol

 Solvation energy (dispersion and cavitation terms) =      1.041639 kcal/mol
 Solvation Energy Contributions (Hartrees)
          esola   esolb+esolc
     0.04298757   -0.08597515
 esol last cycle   -0.04298757

 Energy gradients wrt nuclear displacements
 ==========================================

     Atom      Cartesian (a.u./angstrom)
                 X         Y         Z
 ----------------------------------------
     1 Pa    0.015322  0.005142  0.046496
     2 O     0.003501 -0.006953 -0.000532
     3 O    -0.000307  0.002600 -0.009959
     4 I     0.009399 -0.001809 -0.012358
     5 H    -0.000204 -0.005240  0.001931
     6 O    -0.002585 -0.013978 -0.011033
     7 H    -0.000589  0.003920  0.001830
     8 H     0.001599  0.002820  0.003521
     9 H    -0.005635  0.000348 -0.001358
    10 O    -0.020500  0.013152 -0.018538
 ----------------------------------------
 Mulliken charges used for AMS results%charges...
 
----------------------------------------------------------------------
Geometry Convergence after Step   1       (Hartree/Angstrom,Angstrom)
----------------------------------------------------------------------
current energy                               -2.62109487 Hartree
energy change                      -2.62109487     0.00001000    F
constrained gradient max            0.04650384     0.00010000    F
constrained gradient rms            0.01183484     0.00006667    F
gradient max                        0.04650384
gradient rms                        0.01183484
cart. step max                      0.02588282     0.00100000    F
cart. step rms                      0.01078197     0.00066667    F
 
 
--------
Geometry
--------
Formula: H4IO4Pa
Atoms
  Index Symbol   x (angstrom)   y (angstrom)   z (angstrom)
      1     Pa     0.08776616     0.23408794     0.55336374       adf.R=2.200
      2      O     1.20960746     2.02389940     0.44728038       adf.R=1.517
      3      O    -1.16757790     0.87669920    -1.01981650       adf.R=1.517
      4      I    -1.92051800     0.47738346     2.81143181       adf.R=1.967
      5      H    -1.47793503     1.67687022    -1.46078884       adf.R=1.350
      6      O    -0.24669652    -1.83611048    -0.93036930       adf.R=1.517
      7      H    -0.85213648    -1.89127693    -1.67933953       adf.R=1.350
      8      H     0.19744827    -2.68562259    -0.82470592       adf.R=1.350
      9      H     2.05734852     2.42211135     0.67098350       adf.R=1.350
     10      O     1.39168662    -0.88830125     1.23522798       adf.R=1.517
 
Total System Charge             0.00000
Bonding info available!
 
 *** GO1_GOStep2 ***

 SOLVATION
-------------------------------------------

  The Delley construction of COSMO surface surface is calculated

       Division Level for Surface Triangles (NDIV)                  3
       Final Division Level for Triangles (NFDIV)                   1
       Radius of the Solvent (RSOL)                           1.93000 angstr
  Dielectric Constant (EPSL)                                 78.39000

       COSMO equation is solved iteratively-               conjugate-gradient

       Maximun of Iterations for Charges (NCIX)                  1000
       Criterion for Charge convergence (CCNV)                1.0E-08

  COSMO charges included variationally in SCF

       COSMO included at every SCF cycle

  Geometry-dependent empirical factor                         0.00000

  C-Matrix calculated in cspmtx

  In cspmtx, C-Matrix calculated using fitted potential

-------------------------------------------



 -------------------------------------------
  COSMO surface
  Area             =          557.519
  Volume           =          893.427
  Number of Points =         1312
 -------------------------------------------



 ======================
 RI Hartree-Fock Scheme
 ======================
  
 Fit Set Quality     : GOOD
 Threshold Quality   : GOOD
 Integration Quality : GOOD
 Response Quality    : DEFAULT
 Is Range Separated  :  F
 
 RIHartreeFock Dependency: number of modified vectors:           4
 cosmo_calcen: 0.5 (esolb+esolc) (Hartrees) =   -0.045035

 Solvation energy (screening term,uncorrected) =    -28.259742 kcal/mol

 Solvation energy (dispersion and cavitation terms) =      1.042517 kcal/mol
 Solvation Energy Contributions (Hartrees)
          esola   esolb+esolc
     0.04503476   -0.09006952
 esol last cycle   -0.04503476
  
 Hartree-Fock exchange energy:   -680.655446028302     
 cosmo_calcen: 0.5 (esolb+esolc) (Hartrees) =   -0.045035

 Solvation energy (screening term,uncorrected) =    -28.259743 kcal/mol

 Solvation energy (dispersion and cavitation terms) =      1.042517 kcal/mol
 Solvation Energy Contributions (Hartrees)
          esola   esolb+esolc
     0.04503476   -0.09006953
 esol last cycle   -0.04503476

 Energy gradients wrt nuclear displacements
 ==========================================

     Atom      Cartesian (a.u./angstrom)
                 X         Y         Z
 ----------------------------------------
     1 Pa    0.002532  0.012760  0.036683
     2 O     0.001067 -0.006393 -0.001242
     3 O     0.000334 -0.000213 -0.008188
     4 I     0.007448 -0.001694 -0.010050
     5 H    -0.001637 -0.001487 -0.000073
     6 O    -0.002089 -0.011539 -0.008919
     7 H    -0.000462  0.002307  0.001121
     8 H     0.000954  0.001513  0.002171
     9 H    -0.001189  0.002510 -0.000425
    10 O    -0.006957  0.002236 -0.011078
 ----------------------------------------
 Mulliken charges used for AMS results%charges...

 dE(predicted):    -0.72897E-03, dE(actual):    -0.13800E-02, Trust radius:    0.200000, all in a.u.
 
----------------------------------------------------------------------
Geometry Convergence after Step   2       (Hartree/Angstrom,Angstrom)
----------------------------------------------------------------------
current energy                               -2.62247484 Hartree
energy change                      -0.00137997     0.00001000    F
constrained gradient max            0.03669092     0.00010000    F
constrained gradient rms            0.00857423     0.00006667    F
gradient max                        0.03669092
gradient rms                        0.00857423
cart. step max                      0.06363349     0.00100000    F
cart. step rms                      0.02798746     0.00066667    F
 
 
--------
Geometry
--------
Formula: H4IO4Pa
Atoms
  Index Symbol   x (angstrom)   y (angstrom)   z (angstrom)
      1     Pa     0.08203500     0.21117432     0.50699218       adf.R=2.200
      2      O     1.19272963     2.01688414     0.43353282       adf.R=1.517
      3      O    -1.19878125     0.90108984    -1.01096220       adf.R=1.517
      4      I    -1.89669473     0.52854450     2.81732462       adf.R=1.967
      5      H    -1.49023200     1.72740427    -1.42054643       adf.R=1.350
      6      O    -0.23108386    -1.85845829    -0.94934405       adf.R=1.517
      7      H    -0.82646908    -1.93167344    -1.70651689       adf.R=1.350
      8      H     0.21082024    -2.71078887    -0.84560377       adf.R=1.350
      9      H     2.04686663     2.39129025     0.67952957       adf.R=1.350
     10      O     1.38980253    -0.86572639     1.29886147       adf.R=1.517
 
Total System Charge             0.00000
Bonding info available!
 
 *** GO1_GOStep3 ***

 SOLVATION
-------------------------------------------

  The Delley construction of COSMO surface surface is calculated

       Division Level for Surface Triangles (NDIV)                  3
       Final Division Level for Triangles (NFDIV)                   1
       Radius of the Solvent (RSOL)                           1.93000 angstr
  Dielectric Constant (EPSL)                                 78.39000

       COSMO equation is solved iteratively-               conjugate-gradient

       Maximun of Iterations for Charges (NCIX)                  1000
       Criterion for Charge convergence (CCNV)                1.0E-08

  COSMO charges included variationally in SCF

       COSMO included at every SCF cycle

  Geometry-dependent empirical factor                         0.00000

  C-Matrix calculated in cspmtx

  In cspmtx, C-Matrix calculated using fitted potential

-------------------------------------------



 -------------------------------------------
  COSMO surface
  Area             =          555.973
  Volume           =          893.861
  Number of Points =         1307
 -------------------------------------------



 ======================
 RI Hartree-Fock Scheme
 ======================
  
 Fit Set Quality     : GOOD
 Threshold Quality   : GOOD
 Integration Quality : GOOD
 Response Quality    : DEFAULT
 Is Range Separated  :  F
 
 RIHartreeFock Dependency: number of modified vectors:           4
 cosmo_calcen: 0.5 (esolb+esolc) (Hartrees) =   -0.050492

 Solvation energy (screening term,uncorrected) =    -31.684258 kcal/mol

 Solvation energy (dispersion and cavitation terms) =      1.039626 kcal/mol
 Solvation Energy Contributions (Hartrees)
          esola   esolb+esolc
     0.05049207   -0.10098415
 esol last cycle   -0.05049207
  
 Hartree-Fock exchange energy:   -680.638692043914     
 cosmo_calcen: 0.5 (esolb+esolc) (Hartrees) =   -0.050492

 Solvation energy (screening term,uncorrected) =    -31.684230 kcal/mol

 Solvation energy (dispersion and cavitation terms) =      1.039626 kcal/mol
 Solvation Energy Contributions (Hartrees)
          esola   esolb+esolc
     0.05049203   -0.10098406
 esol last cycle   -0.05049203

 Energy gradients wrt nuclear displacements
 ==========================================

     Atom      Cartesian (a.u./angstrom)
                 X         Y         Z
 ----------------------------------------
     1 Pa   -0.015289  0.021386  0.014716
     2 O     0.000971 -0.003890 -0.000778
     3 O     0.001285 -0.002131 -0.005272
     4 I     0.003571 -0.001314 -0.005035
     5 H    -0.002340  0.001370 -0.001140
     6 O    -0.001054 -0.005629 -0.004050
     7 H    -0.000149 -0.001095 -0.000203
     8 H    -0.000531 -0.000694 -0.000540
     9 H     0.001365  0.003499 -0.000105
    10 O     0.012171 -0.011503  0.002408
 ----------------------------------------
 Mulliken charges used for AMS results%charges...

 dE(predicted):    -0.16784E-02, dE(actual):    -0.23396E-02, Trust radius:    0.400000, all in a.u.
 
----------------------------------------------------------------------
Geometry Convergence after Step   3       (Hartree/Angstrom,Angstrom)
----------------------------------------------------------------------
current energy                               -2.62481442 Hartree
energy change                      -0.00233958     0.00001000    F
constrained gradient max            0.02137046     0.00010000    F
constrained gradient rms            0.00672958     0.00006667    F
gradient max                        0.02137046
gradient rms                        0.00672958
cart. step max                      0.07425858     0.00100000    F
cart. step rms                      0.03589923     0.00066667    F
 
 
--------
Geometry
--------
Formula: H4IO4Pa
Atoms
  Index Symbol   x (angstrom)   y (angstrom)   z (angstrom)
      1     Pa     0.07487445     0.17860155     0.45250892       adf.R=2.200
      2      O     1.16801817     2.00249835     0.41450489       adf.R=1.517
      3      O    -1.24052769     0.92692111    -0.98844832       adf.R=1.517
      4      I    -1.86112828     0.60280308     2.82212364       adf.R=1.967
      5      H    -1.49858185     1.78150637    -1.36386568       adf.R=1.350
      6      O    -0.20788578    -1.88427230    -0.97445414       adf.R=1.517
      7      H    -0.78974482    -1.97262945    -1.74168620       adf.R=1.350
      8      H     0.23747700    -2.73603025    -0.87163335       adf.R=1.350
      9      H     2.02988568     2.34182439     0.68558698       adf.R=1.350
     10      O     1.36660621    -0.83148252     1.36863059       adf.R=1.517
 
Total System Charge             0.00000
Bonding info available!
 
 *** GO1_GOStep4 ***

 SOLVATION
-------------------------------------------

  The Delley construction of COSMO surface surface is calculated

       Division Level for Surface Triangles (NDIV)                  3
       Final Division Level for Triangles (NFDIV)                   1
       Radius of the Solvent (RSOL)                           1.93000 angstr
  Dielectric Constant (EPSL)                                 78.39000

       COSMO equation is solved iteratively-               conjugate-gradient

       Maximun of Iterations for Charges (NCIX)                  1000
       Criterion for Charge convergence (CCNV)                1.0E-08

  COSMO charges included variationally in SCF

       COSMO included at every SCF cycle

  Geometry-dependent empirical factor                         0.00000

  C-Matrix calculated in cspmtx

  In cspmtx, C-Matrix calculated using fitted potential

-------------------------------------------



 -------------------------------------------
  COSMO surface
  Area             =          556.811
  Volume           =          897.141
  Number of Points =         1305
 -------------------------------------------



 ======================
 RI Hartree-Fock Scheme
 ======================
  
 Fit Set Quality     : GOOD
 Threshold Quality   : GOOD
 Integration Quality : GOOD
 Response Quality    : DEFAULT
 Is Range Separated  :  F
 
 RIHartreeFock Dependency: number of modified vectors:           4
 cosmo_calcen: 0.5 (esolb+esolc) (Hartrees) =   -0.057650

 Solvation energy (screening term,uncorrected) =    -36.175752 kcal/mol

 Solvation energy (dispersion and cavitation terms) =      1.041193 kcal/mol
 Solvation Energy Contributions (Hartrees)
          esola   esolb+esolc
     0.05764972   -0.11529945
 esol last cycle   -0.05764972
  
 Hartree-Fock exchange energy:   -680.635473774361     
 cosmo_calcen: 0.5 (esolb+esolc) (Hartrees) =   -0.057650

 Solvation energy (screening term,uncorrected) =    -36.175696 kcal/mol

 Solvation energy (dispersion and cavitation terms) =      1.041193 kcal/mol
 Solvation Energy Contributions (Hartrees)
          esola   esolb+esolc
     0.05764963   -0.11529927
 esol last cycle   -0.05764963

 Energy gradients wrt nuclear displacements
 ==========================================

     Atom      Cartesian (a.u./angstrom)
                 X         Y         Z
 ----------------------------------------
     1 Pa   -0.022760  0.020890 -0.007119
     2 O     0.000263 -0.002490  0.000553
     3 O     0.003077 -0.003592 -0.000785
     4 I     0.001053 -0.000677 -0.001035
     5 H    -0.002153  0.002680 -0.001112
     6 O    -0.000413  0.000381  0.000690
     7 H     0.000183 -0.003466 -0.000776
     8 H    -0.001621 -0.002081 -0.002560
     9 H     0.002438  0.003408 -0.000147
    10 O     0.019933 -0.015054  0.012290
 ----------------------------------------
 Mulliken charges used for AMS results%charges...

 dE(predicted):    -0.92822E-03, dE(actual):    -0.16414E-02, Trust radius:    0.400000, all in a.u.
 
----------------------------------------------------------------------
Geometry Convergence after Step   4       (Hartree/Angstrom,Angstrom)
----------------------------------------------------------------------
current energy                               -2.62645580 Hartree
energy change                      -0.00164138     0.00001000    F
constrained gradient max            0.02278865     0.00010000    F
constrained gradient rms            0.00789425     0.00006667    F
gradient max                        0.02278865
gradient rms                        0.00789425
cart. step max                      0.05163213     0.00100000    F
cart. step rms                      0.02300785     0.00066667    F
 
 
--------
Geometry
--------
Formula: H4IO4Pa
Atoms
  Index Symbol   x (angstrom)   y (angstrom)   z (angstrom)
      1     Pa     0.06717799     0.15643410     0.42664283       adf.R=2.200
      2      O     1.15138836     1.98848831     0.39906417       adf.R=1.517
      3      O    -1.27010370     0.94152863    -0.96550040       adf.R=1.517
      4      I    -1.84081899     0.65443521     2.82600093       adf.R=1.967
      5      H    -1.49944275     1.80961808    -1.32738573       adf.R=1.350
      6      O    -0.19041062    -1.89794979    -0.98900139       adf.R=1.517
      7      H    -0.76101592    -1.98815468    -1.76453723       adf.R=1.350
      8      H     0.26325405    -2.74527114    -0.88446601       adf.R=1.350
      9      H     2.01886236     2.30132141     0.68212008       adf.R=1.350
     10      O     1.34010233    -0.81070980     1.40033008       adf.R=1.517
 
Total System Charge             0.00000
Bonding info available!
 
 *** GO1_GOStep5 ***

 SOLVATION
-------------------------------------------

  The Delley construction of COSMO surface surface is calculated

       Division Level for Surface Triangles (NDIV)                  3
       Final Division Level for Triangles (NFDIV)                   1
       Radius of the Solvent (RSOL)                           1.93000 angstr
  Dielectric Constant (EPSL)                                 78.39000

       COSMO equation is solved iteratively-               conjugate-gradient

       Maximun of Iterations for Charges (NCIX)                  1000
       Criterion for Charge convergence (CCNV)                1.0E-08

  COSMO charges included variationally in SCF

       COSMO included at every SCF cycle

  Geometry-dependent empirical factor                         0.00000

  C-Matrix calculated in cspmtx

  In cspmtx, C-Matrix calculated using fitted potential

-------------------------------------------



 -------------------------------------------
  COSMO surface
  Area             =          556.595
  Volume           =          898.102
  Number of Points =         1298
 -------------------------------------------



 ======================
 RI Hartree-Fock Scheme
 ======================
  
 Fit Set Quality     : GOOD
 Threshold Quality   : GOOD
 Integration Quality : GOOD
 Response Quality    : DEFAULT
 Is Range Separated  :  F
 
 RIHartreeFock Dependency: number of modified vectors:           4
 cosmo_calcen: 0.5 (esolb+esolc) (Hartrees) =   -0.061435

 Solvation energy (screening term,uncorrected) =    -38.550933 kcal/mol

 Solvation energy (dispersion and cavitation terms) =      1.040789 kcal/mol
 Solvation Energy Contributions (Hartrees)
          esola   esolb+esolc
     0.06143482   -0.12286963
 esol last cycle   -0.06143482
  
 Hartree-Fock exchange energy:   -680.644017305534     
 cosmo_calcen: 0.5 (esolb+esolc) (Hartrees) =   -0.061435

 Solvation energy (screening term,uncorrected) =    -38.550932 kcal/mol

 Solvation energy (dispersion and cavitation terms) =      1.040789 kcal/mol
 Solvation Energy Contributions (Hartrees)
          esola   esolb+esolc
     0.06143481   -0.12286963
 esol last cycle   -0.06143481

 Energy gradients wrt nuclear displacements
 ==========================================

     Atom      Cartesian (a.u./angstrom)
                 X         Y         Z
 ----------------------------------------
     1 Pa   -0.017380  0.013968 -0.013093
     2 O    -0.000137 -0.002534  0.001788
     3 O     0.003807 -0.002866  0.001576
     4 I     0.000395 -0.000188  0.000278
     5 H    -0.001511  0.001837 -0.000528
     6 O    -0.000299  0.002013  0.002043
     7 H     0.000166 -0.003072 -0.000696
     8 H    -0.001476 -0.001967 -0.002273
     9 H     0.001665  0.002594 -0.000593
    10 O     0.014770 -0.009785  0.011500
 ----------------------------------------
 Mulliken charges used for AMS results%charges...

 dE(predicted):    -0.36565E-03, dE(actual):    -0.63789E-03, Trust radius:    0.400000, all in a.u.
 
----------------------------------------------------------------------
Geometry Convergence after Step   5       (Hartree/Angstrom,Angstrom)
----------------------------------------------------------------------
current energy                               -2.62709368 Hartree
energy change                      -0.00063789     0.00001000    F
constrained gradient max            0.01740407     0.00010000    F
constrained gradient rms            0.00631085     0.00006667    F
gradient max                        0.01740407
gradient rms                        0.00631085
cart. step max                      0.03723091     0.00100000    F
cart. step rms                      0.01647898     0.00066667    F
 
 
--------
Geometry
--------
Formula: H4IO4Pa
Atoms
  Index Symbol   x (angstrom)   y (angstrom)   z (angstrom)
      1     Pa     0.05795669     0.14204817     0.42095385       adf.R=2.200
      2      O     1.14200788     1.97526234     0.38293994       adf.R=1.517
      3      O    -1.29500352     0.94914653    -0.94278685       adf.R=1.517
      4      I    -1.83453469     0.69166612     2.83150059       adf.R=1.967
      5      H    -1.49829443     1.82182365    -1.30647559       adf.R=1.350
      6      O    -0.17621599    -1.90246764    -0.99571612       adf.R=1.517
      7      H    -0.73651061    -1.98656874    -1.77883146       adf.R=1.350
      8      H     0.29036569    -2.74205077    -0.88946435       adf.R=1.350
      9      H     2.01456824     2.26501858     0.67173814       adf.R=1.350
     10      O     1.31465385    -0.80413789     1.40940915       adf.R=1.517
 
Total System Charge             0.00000
Bonding info available!
 
 *** GO1_GOStep6 ***

 SOLVATION
-------------------------------------------

  The Delley construction of COSMO surface surface is calculated

       Division Level for Surface Triangles (NDIV)                  3
       Final Division Level for Triangles (NFDIV)                   1
       Radius of the Solvent (RSOL)                           1.93000 angstr
  Dielectric Constant (EPSL)                                 78.39000

       COSMO equation is solved iteratively-               conjugate-gradient

       Maximun of Iterations for Charges (NCIX)                  1000
       Criterion for Charge convergence (CCNV)                1.0E-08

  COSMO charges included variationally in SCF

       COSMO included at every SCF cycle

  Geometry-dependent empirical factor                         0.00000

  C-Matrix calculated in cspmtx

  In cspmtx, C-Matrix calculated using fitted potential

-------------------------------------------



 -------------------------------------------
  COSMO surface
  Area             =          556.154
  Volume           =          897.916
  Number of Points =         1293
 -------------------------------------------



 ======================
 RI Hartree-Fock Scheme
 ======================
  
 Fit Set Quality     : GOOD
 Threshold Quality   : GOOD
 Integration Quality : GOOD
 Response Quality    : DEFAULT
 Is Range Separated  :  F
 
 RIHartreeFock Dependency: number of modified vectors:           4
 cosmo_calcen: 0.5 (esolb+esolc) (Hartrees) =   -0.062729

 Solvation energy (screening term,uncorrected) =    -39.363037 kcal/mol

 Solvation energy (dispersion and cavitation terms) =      1.039966 kcal/mol
 Solvation Energy Contributions (Hartrees)
          esola   esolb+esolc
     0.06272899   -0.12545797
 esol last cycle   -0.06272899
  
 Hartree-Fock exchange energy:   -680.657630830086     
 cosmo_calcen: 0.5 (esolb+esolc) (Hartrees) =   -0.062729

 Solvation energy (screening term,uncorrected) =    -39.363052 kcal/mol

 Solvation energy (dispersion and cavitation terms) =      1.039966 kcal/mol
 Solvation Energy Contributions (Hartrees)
          esola   esolb+esolc
     0.06272901   -0.12545802
 esol last cycle   -0.06272901

 Energy gradients wrt nuclear displacements
 ==========================================

     Atom      Cartesian (a.u./angstrom)
                 X         Y         Z
 ----------------------------------------
     1 Pa   -0.004482  0.004438 -0.007896
     2 O    -0.000289 -0.003065  0.002476
     3 O     0.003436 -0.000786  0.002235
     4 I     0.000325  0.000105  0.000180
     5 H    -0.000932  0.000127  0.000131
     6 O    -0.000493  0.000679  0.001219
     7 H    -0.000144 -0.001116 -0.000032
     8 H    -0.000706 -0.000956 -0.000737
     9 H     0.000063  0.001577 -0.001115
    10 O     0.003222 -0.001003  0.003539
 ----------------------------------------
 Mulliken charges used for AMS results%charges...

 dE(predicted):    -0.25653E-03, dE(actual):    -0.37662E-03, Trust radius:    0.400000, all in a.u.
 
----------------------------------------------------------------------
Geometry Convergence after Step   6       (Hartree/Angstrom,Angstrom)
----------------------------------------------------------------------
current energy                               -2.62747030 Hartree
energy change                      -0.00037662     0.00001000    F
constrained gradient max            0.00788367     0.00010000    F
constrained gradient rms            0.00237326     0.00006667    F
gradient max                        0.00788367
gradient rms                        0.00237326
cart. step max                      0.02105059     0.00100000    F
cart. step rms                      0.00956500     0.00066667    F
 
 
--------
Geometry
--------
Formula: H4IO4Pa
Atoms
  Index Symbol   x (angstrom)   y (angstrom)   z (angstrom)
      1     Pa     0.04961079     0.13969944     0.43030971       adf.R=2.200
      2      O     1.14266480     1.96801597     0.37113957       adf.R=1.517
      3      O    -1.31005931     0.94775342    -0.93091426       adf.R=1.517
      4      I    -1.83906368     0.70673740     2.83997729       adf.R=1.967
      5      H    -1.49937918     1.81823609    -1.30576209       adf.R=1.350
      6      O    -0.16954775    -1.89765364    -0.99547117       adf.R=1.517
      7      H    -0.72197722    -1.97509735    -1.78437162       adf.R=1.350
      8      H     0.30742607    -2.73093181    -0.89004023       adf.R=1.350
      9      H     2.01890146     2.24396799     0.66105342       adf.R=1.350
     10      O     1.30041711    -0.81098717     1.40734671       adf.R=1.517
 
Total System Charge             0.00000
Bonding info available!
 
 *** GO1_GOStep7 ***

 SOLVATION
-------------------------------------------

  The Delley construction of COSMO surface surface is calculated

       Division Level for Surface Triangles (NDIV)                  3
       Final Division Level for Triangles (NFDIV)                   1
       Radius of the Solvent (RSOL)                           1.93000 angstr
  Dielectric Constant (EPSL)                                 78.39000

       COSMO equation is solved iteratively-               conjugate-gradient

       Maximun of Iterations for Charges (NCIX)                  1000
       Criterion for Charge convergence (CCNV)                1.0E-08

  COSMO charges included variationally in SCF

       COSMO included at every SCF cycle

  Geometry-dependent empirical factor                         0.00000

  C-Matrix calculated in cspmtx

  In cspmtx, C-Matrix calculated using fitted potential

-------------------------------------------



 -------------------------------------------
  COSMO surface
  Area             =          556.148
  Volume           =          898.050
  Number of Points =         1299
 -------------------------------------------



 ======================
 RI Hartree-Fock Scheme
 ======================
  
 Fit Set Quality     : GOOD
 Threshold Quality   : GOOD
 Integration Quality : GOOD
 Response Quality    : DEFAULT
 Is Range Separated  :  F
 
 RIHartreeFock Dependency: number of modified vectors:           4
 cosmo_calcen: 0.5 (esolb+esolc) (Hartrees) =   -0.062199

 Solvation energy (screening term,uncorrected) =    -39.030226 kcal/mol

 Solvation energy (dispersion and cavitation terms) =      1.039953 kcal/mol
 Solvation Energy Contributions (Hartrees)
          esola   esolb+esolc
     0.06219862   -0.12439723
 esol last cycle   -0.06219862
  
 Hartree-Fock exchange energy:   -680.663748424485     
 cosmo_calcen: 0.5 (esolb+esolc) (Hartrees) =   -0.062199

 Solvation energy (screening term,uncorrected) =    -39.030248 kcal/mol

 Solvation energy (dispersion and cavitation terms) =      1.039953 kcal/mol
 Solvation Energy Contributions (Hartrees)
          esola   esolb+esolc
     0.06219865   -0.12439731
 esol last cycle   -0.06219865

 Energy gradients wrt nuclear displacements
 ==========================================

     Atom      Cartesian (a.u./angstrom)
                 X         Y         Z
 ----------------------------------------
     1 Pa    0.003596 -0.000485 -0.001411
     2 O    -0.000117 -0.002969  0.002300
     3 O     0.002306  0.000714  0.001319
     4 I     0.000344  0.000119 -0.000287
     5 H    -0.000754 -0.000769  0.000385
     6 O    -0.000532 -0.001277  0.000050
     7 H    -0.000345  0.000296  0.000441
     8 H    -0.000335 -0.000102  0.000374
     9 H    -0.000731  0.001103 -0.001222
    10 O    -0.003433  0.003370 -0.001949
 ----------------------------------------
 Mulliken charges used for AMS results%charges...

 dE(predicted):    -0.89873E-04, dE(actual):    -0.11701E-03, Trust radius:    0.400000, all in a.u.
 
----------------------------------------------------------------------
Geometry Convergence after Step   7       (Hartree/Angstrom,Angstrom)
----------------------------------------------------------------------
current energy                               -2.62758731 Hartree
energy change                      -0.00011701     0.00001000    F
constrained gradient max            0.00357214     0.00010000    F
constrained gradient rms            0.00153640     0.00006667    F
gradient max                        0.00357214
gradient rms                        0.00153640
cart. step max                      0.03114971     0.00100000    F
cart. step rms                      0.01406333     0.00066667    F
 
 
--------
Geometry
--------
Formula: H4IO4Pa
Atoms
  Index Symbol   x (angstrom)   y (angstrom)   z (angstrom)
      1     Pa     0.03525864     0.13792275     0.44431250       adf.R=2.200
      2      O     1.14444213     1.95754552     0.35415504       adf.R=1.517
      3      O    -1.33228565     0.94345033    -0.91609535       adf.R=1.517
      4      I    -1.84389812     0.72949681     2.85622654       adf.R=1.967
      5      H    -1.50181862     1.81021246    -1.30820795       adf.R=1.350
      6      O    -0.16091609    -1.88846906    -0.99609877       adf.R=1.517
      7      H    -0.70126987    -1.95960817    -1.79366288       adf.R=1.350
      8      H     0.33130992    -2.71298867    -0.89526032       adf.R=1.350
      9      H     2.02609716     2.21281828     0.64652429       adf.R=1.350
     10      O     1.28207361    -0.82063993     1.41137422       adf.R=1.517
 
Total System Charge             0.00000
Bonding info available!
 
 *** GO1_GOStep8 ***

 SOLVATION
-------------------------------------------

  The Delley construction of COSMO surface surface is calculated

       Division Level for Surface Triangles (NDIV)                  3
       Final Division Level for Triangles (NFDIV)                   1
       Radius of the Solvent (RSOL)                           1.93000 angstr
  Dielectric Constant (EPSL)                                 78.39000

       COSMO equation is solved iteratively-               conjugate-gradient

       Maximun of Iterations for Charges (NCIX)                  1000
       Criterion for Charge convergence (CCNV)                1.0E-08

  COSMO charges included variationally in SCF

       COSMO included at every SCF cycle

  Geometry-dependent empirical factor                         0.00000

  C-Matrix calculated in cspmtx

  In cspmtx, C-Matrix calculated using fitted potential

-------------------------------------------



 -------------------------------------------
  COSMO surface
  Area             =          555.846
  Volume           =          897.376
  Number of Points =         1298
 -------------------------------------------



 ======================
 RI Hartree-Fock Scheme
 ======================
  
 Fit Set Quality     : GOOD
 Threshold Quality   : GOOD
 Integration Quality : GOOD
 Response Quality    : DEFAULT
 Is Range Separated  :  F
 
 RIHartreeFock Dependency: number of modified vectors:           4
 cosmo_calcen: 0.5 (esolb+esolc) (Hartrees) =   -0.061803

 Solvation energy (screening term,uncorrected) =    -38.782125 kcal/mol

 Solvation energy (dispersion and cavitation terms) =      1.039389 kcal/mol
 Solvation Energy Contributions (Hartrees)
          esola   esolb+esolc
     0.06180324   -0.12360649
 esol last cycle   -0.06180324
  
 Hartree-Fock exchange energy:   -680.665651851479     
 cosmo_calcen: 0.5 (esolb+esolc) (Hartrees) =   -0.061803

 Solvation energy (screening term,uncorrected) =    -38.782132 kcal/mol

 Solvation energy (dispersion and cavitation terms) =      1.039389 kcal/mol
 Solvation Energy Contributions (Hartrees)
          esola   esolb+esolc
     0.06180325   -0.12360651
 esol last cycle   -0.06180325

 Energy gradients wrt nuclear displacements
 ==========================================

     Atom      Cartesian (a.u./angstrom)
                 X         Y         Z
 ----------------------------------------
     1 Pa    0.008423 -0.003601  0.002613
     2 O     0.000039 -0.002211  0.002017
     3 O     0.000832  0.001613  0.000173
     4 I     0.000068  0.000185 -0.000352
     5 H    -0.000655 -0.001059  0.000393
     6 O    -0.000355 -0.002589 -0.000658
     7 H    -0.000566  0.001135  0.000626
     8 H    -0.000106  0.000538  0.001095
     9 H    -0.001003  0.000769 -0.001160
    10 O    -0.006677  0.005220 -0.004749
 ----------------------------------------
 Mulliken charges used for AMS results%charges...

 dE(predicted):    -0.72834E-04, dE(actual):    -0.76220E-04, Trust radius:    0.400000, all in a.u.
 
----------------------------------------------------------------------
Geometry Convergence after Step   8       (Hartree/Angstrom,Angstrom)
----------------------------------------------------------------------
current energy                               -2.62766353 Hartree
energy change                      -0.00007622     0.00001000    F
constrained gradient max            0.00840220     0.00010000    F
constrained gradient rms            0.00266278     0.00006667    F
gradient max                        0.00840220
gradient rms                        0.00266278
cart. step max                      0.08551887     0.00100000    F
cart. step rms                      0.03739279     0.00066667    F
 
 
--------
Geometry
--------
Formula: H4IO4Pa
Atoms
  Index Symbol   x (angstrom)   y (angstrom)   z (angstrom)
      1     Pa    -0.00434761     0.13335398     0.47695240       adf.R=2.200
      2      O     1.14815045     1.92669062     0.30905434       adf.R=1.517
      3      O    -1.39020319     0.93215366    -0.87906351       adf.R=1.517
      4      I    -1.84945683     0.79272073     2.90112625       adf.R=1.967
      5      H    -1.50920272     1.78625681    -1.31520835       adf.R=1.350
      6      O    -0.13860997    -1.86288840    -1.00007975       adf.R=1.517
      7      H    -0.64569660    -1.92053519    -1.81992401       adf.R=1.350
      8      H     0.39238854    -2.66422849    -0.91363500       adf.R=1.350
      9      H     2.04083616     2.12729941     0.61175166       adf.R=1.350
     10      O     1.23513485    -0.84108279     1.43229331       adf.R=1.517
 
Total System Charge             0.00000
Bonding info available!
 
 *** GO1_GOStep9 ***

 SOLVATION
-------------------------------------------

  The Delley construction of COSMO surface surface is calculated

       Division Level for Surface Triangles (NDIV)                  3
       Final Division Level for Triangles (NFDIV)                   1
       Radius of the Solvent (RSOL)                           1.93000 angstr
  Dielectric Constant (EPSL)                                 78.39000

       COSMO equation is solved iteratively-               conjugate-gradient

       Maximun of Iterations for Charges (NCIX)                  1000
       Criterion for Charge convergence (CCNV)                1.0E-08

  COSMO charges included variationally in SCF

       COSMO included at every SCF cycle

  Geometry-dependent empirical factor                         0.00000

  C-Matrix calculated in cspmtx

  In cspmtx, C-Matrix calculated using fitted potential

-------------------------------------------



 -------------------------------------------
  COSMO surface
  Area             =          557.642
  Volume           =          901.095
  Number of Points =         1305
 -------------------------------------------



 ======================
 RI Hartree-Fock Scheme
 ======================
  
 Fit Set Quality     : GOOD
 Threshold Quality   : GOOD
 Integration Quality : GOOD
 Response Quality    : DEFAULT
 Is Range Separated  :  F
 
 RIHartreeFock Dependency: number of modified vectors:           4
 cosmo_calcen: 0.5 (esolb+esolc) (Hartrees) =   -0.061703

 Solvation energy (screening term,uncorrected) =    -38.719005 kcal/mol

 Solvation energy (dispersion and cavitation terms) =      1.042747 kcal/mol
 Solvation Energy Contributions (Hartrees)
          esola   esolb+esolc
     0.06170266   -0.12340531
 esol last cycle   -0.06170266
  
 Hartree-Fock exchange energy:   -680.665051645756     
 cosmo_calcen: 0.5 (esolb+esolc) (Hartrees) =   -0.061703

 Solvation energy (screening term,uncorrected) =    -38.718997 kcal/mol

 Solvation energy (dispersion and cavitation terms) =      1.042747 kcal/mol
 Solvation Energy Contributions (Hartrees)
          esola   esolb+esolc
     0.06170264   -0.12340528
 esol last cycle   -0.06170264

 Energy gradients wrt nuclear displacements
 ==========================================

     Atom      Cartesian (a.u./angstrom)
                 X         Y         Z
 ----------------------------------------
     1 Pa    0.012567 -0.007179  0.006867
     2 O     0.000524  0.000080  0.000936
     3 O    -0.001989  0.002516 -0.001889
     4 I    -0.000257  0.000143 -0.000524
     5 H    -0.000512 -0.001015  0.000345
     6 O     0.000242 -0.003684 -0.001351
     7 H    -0.000786  0.002009  0.001086
     8 H    -0.000019  0.001342  0.001963
     9 H    -0.001012  0.000123 -0.000657
    10 O    -0.008758  0.005665 -0.006776
 ----------------------------------------
 Mulliken charges used for AMS results%charges...

 dE(predicted):    -0.15688E-03, dE(actual):    -0.99120E-04, Trust radius:    0.400000, all in a.u.
 
----------------------------------------------------------------------
Geometry Convergence after Step   9       (Hartree/Angstrom,Angstrom)
----------------------------------------------------------------------
current energy                               -2.62776265 Hartree
energy change                      -0.00009912     0.00001000    F
constrained gradient max            0.01255066     0.00010000    F
constrained gradient rms            0.00390029     0.00006667    F
gradient max                        0.01255066
gradient rms                        0.00390029
cart. step max                      0.10690762     0.00100000    F
cart. step rms                      0.04558812     0.00066667    F
 
 
--------
Geometry
--------
Formula: H4IO4Pa
Atoms
  Index Symbol   x (angstrom)   y (angstrom)   z (angstrom)
      1     Pa    -0.05252124     0.12519986     0.51036020       adf.R=2.200
      2      O     1.14872820     1.88295098     0.25615693       adf.R=1.517
      3      O    -1.45663010     0.91971146    -0.83527150       adf.R=1.517
      4      I    -1.84530651     0.87481433     2.95488305       adf.R=1.967
      5      H    -1.51734833     1.75229536    -1.32282963       adf.R=1.350
      6      O    -0.11277351    -1.83165053    -1.00844532       adf.R=1.517
      7      H    -0.57806357    -1.87333161    -1.85381416       adf.R=1.350
      8      H     0.46333865    -2.60342132    -0.94143385       adf.R=1.350
      9      H     2.04891818     2.02039179     0.57392900       adf.R=1.350
     10      O     1.18065132    -0.85721999     1.46973261       adf.R=1.517
 
Total System Charge             0.00000
Bonding info available!
 
 *** GO1_GOStep10 ***

 SOLVATION
-------------------------------------------

  The Delley construction of COSMO surface surface is calculated

       Division Level for Surface Triangles (NDIV)                  3
       Final Division Level for Triangles (NFDIV)                   1
       Radius of the Solvent (RSOL)                           1.93000 angstr
  Dielectric Constant (EPSL)                                 78.39000

       COSMO equation is solved iteratively-               conjugate-gradient

       Maximun of Iterations for Charges (NCIX)                  1000
       Criterion for Charge convergence (CCNV)                1.0E-08

  COSMO charges included variationally in SCF

       COSMO included at every SCF cycle

  Geometry-dependent empirical factor                         0.00000

  C-Matrix calculated in cspmtx

  In cspmtx, C-Matrix calculated using fitted potential

-------------------------------------------



 -------------------------------------------
  COSMO surface
  Area             =          558.514
  Volume           =          903.069
  Number of Points =         1296
 -------------------------------------------



 ======================
 RI Hartree-Fock Scheme
 ======================
  
 Fit Set Quality     : GOOD
 Threshold Quality   : GOOD
 Integration Quality : GOOD
 Response Quality    : DEFAULT
 Is Range Separated  :  F
 
 RIHartreeFock Dependency: number of modified vectors:           4
 cosmo_calcen: 0.5 (esolb+esolc) (Hartrees) =   -0.062740

 Solvation energy (screening term,uncorrected) =    -39.370006 kcal/mol

 Solvation energy (dispersion and cavitation terms) =      1.044378 kcal/mol
 Solvation Energy Contributions (Hartrees)
          esola   esolb+esolc
     0.06274009   -0.12548018
 esol last cycle   -0.06274009
  
 Hartree-Fock exchange energy:   -680.660974176591     
 cosmo_calcen: 0.5 (esolb+esolc) (Hartrees) =   -0.062740

 Solvation energy (screening term,uncorrected) =    -39.370030 kcal/mol

 Solvation energy (dispersion and cavitation terms) =      1.044378 kcal/mol
 Solvation Energy Contributions (Hartrees)
          esola   esolb+esolc
     0.06274013   -0.12548026
 esol last cycle   -0.06274013

 Energy gradients wrt nuclear displacements
 ==========================================

     Atom      Cartesian (a.u./angstrom)
                 X         Y         Z
 ----------------------------------------
     1 Pa    0.011467 -0.007687  0.006041
     2 O     0.000987  0.002602 -0.000387
     3 O    -0.004287  0.002570 -0.002920
     4 I    -0.000618  0.000264 -0.000244
     5 H    -0.000163 -0.000700  0.000264
     6 O     0.000457 -0.002270 -0.000462
     7 H    -0.000657  0.001676  0.000929
     8 H    -0.000026  0.001203  0.001838
     9 H    -0.000651 -0.000806  0.000041
    10 O    -0.006510  0.003148 -0.005100
 ----------------------------------------
 Mulliken charges used for AMS results%charges...

 dE(predicted):    -0.14233E-03, dE(actual):    -0.84244E-04, Trust radius:    0.400000, all in a.u.
 
----------------------------------------------------------------------
Geometry Convergence after Step  10       (Hartree/Angstrom,Angstrom)
----------------------------------------------------------------------
current energy                               -2.62784690 Hartree
energy change                      -0.00008424     0.00001000    F
constrained gradient max            0.01145356     0.00010000    F
constrained gradient rms            0.00348005     0.00006667    F
gradient max                        0.01145356
gradient rms                        0.00348005
cart. step max                      0.02684652     0.00100000    F
cart. step rms                      0.01335704     0.00066667    F
 
 
--------
Geometry
--------
Formula: H4IO4Pa
Atoms
  Index Symbol   x (angstrom)   y (angstrom)   z (angstrom)
      1     Pa    -0.06766333     0.12198504     0.52047391       adf.R=2.200
      2      O     1.14593819     1.86832787     0.24251424       adf.R=1.517
      3      O    -1.46996372     0.91264106    -0.82574830       adf.R=1.517
      4      I    -1.83955233     0.89899326     2.97400509       adf.R=1.967
      5      H    -1.51523669     1.73901653    -1.32629331       adf.R=1.350
      6      O    -0.10752970    -1.82175781    -1.01379302       adf.R=1.517
      7      H    -0.56137869    -1.86017946    -1.86594013       adf.R=1.350
      8      H     0.48016538    -2.58619252    -0.95647029       adf.R=1.350
      9      H     2.04764227     1.99354527     0.56247991       adf.R=1.350
     10      O     1.16657173    -0.85663891     1.49203924       adf.R=1.517
 
Total System Charge             0.00000
Bonding info available!
 
 *** GO1_GOStep11 ***

 SOLVATION
-------------------------------------------

  The Delley construction of COSMO surface surface is calculated

       Division Level for Surface Triangles (NDIV)                  3
       Final Division Level for Triangles (NFDIV)                   1
       Radius of the Solvent (RSOL)                           1.93000 angstr
  Dielectric Constant (EPSL)                                 78.39000

       COSMO equation is solved iteratively-               conjugate-gradient

       Maximun of Iterations for Charges (NCIX)                  1000
       Criterion for Charge convergence (CCNV)                1.0E-08

  COSMO charges included variationally in SCF

       COSMO included at every SCF cycle

  Geometry-dependent empirical factor                         0.00000

  C-Matrix calculated in cspmtx

  In cspmtx, C-Matrix calculated using fitted potential

-------------------------------------------



 -------------------------------------------
  COSMO surface
  Area             =          557.761
  Volume           =          902.232
  Number of Points =         1294
 -------------------------------------------



 ======================
 RI Hartree-Fock Scheme
 ======================
  
 Fit Set Quality     : GOOD
 Threshold Quality   : GOOD
 Integration Quality : GOOD
 Response Quality    : DEFAULT
 Is Range Separated  :  F
 
 RIHartreeFock Dependency: number of modified vectors:           4
 cosmo_calcen: 0.5 (esolb+esolc) (Hartrees) =   -0.063433

 Solvation energy (screening term,uncorrected) =    -39.804907 kcal/mol

 Solvation energy (dispersion and cavitation terms) =      1.042970 kcal/mol
 Solvation Energy Contributions (Hartrees)
          esola   esolb+esolc
     0.06343315   -0.12686630
 esol last cycle   -0.06343315
  
 Hartree-Fock exchange energy:   -680.656918512486     
 cosmo_calcen: 0.5 (esolb+esolc) (Hartrees) =   -0.063433

 Solvation energy (screening term,uncorrected) =    -39.804956 kcal/mol

 Solvation energy (dispersion and cavitation terms) =      1.042970 kcal/mol
 Solvation Energy Contributions (Hartrees)
          esola   esolb+esolc
     0.06343323   -0.12686646
 esol last cycle   -0.06343323

 Energy gradients wrt nuclear displacements
 ==========================================

     Atom      Cartesian (a.u./angstrom)
                 X         Y         Z
 ----------------------------------------
     1 Pa    0.006158 -0.004216  0.001841
     2 O     0.000710  0.003029 -0.000784
     3 O    -0.003745  0.001354 -0.002163
     4 I    -0.000613  0.000208  0.000069
     5 H     0.000009 -0.000146 -0.000002
     6 O    -0.000144 -0.000271  0.000755
     7 H    -0.000342  0.000626  0.000385
     8 H     0.000056  0.000450  0.000888
     9 H    -0.000005 -0.000904  0.000324
    10 O    -0.002083 -0.000131 -0.001313
 ----------------------------------------
 Mulliken charges used for AMS results%charges...

 dE(predicted):    -0.65212E-04, dE(actual):    -0.97844E-04, Trust radius:    0.400000, all in a.u.
 
----------------------------------------------------------------------
Geometry Convergence after Step  11       (Hartree/Angstrom,Angstrom)
----------------------------------------------------------------------
current energy                               -2.62794474 Hartree
energy change                      -0.00009784     0.00001000    F
constrained gradient max            0.00614356     0.00010000    F
constrained gradient rms            0.00182157     0.00006667    F
gradient max                        0.00614356
gradient rms                        0.00182157
cart. step max                      0.02626537     0.00100000    F
cart. step rms                      0.01235146     0.00066667    F
 
 
--------
Geometry
--------
Formula: H4IO4Pa
Atoms
  Index Symbol   x (angstrom)   y (angstrom)   z (angstrom)
      1     Pa    -0.08250520     0.11699019     0.52889627       adf.R=2.200
      2      O     1.14019168     1.85245093     0.23269921       adf.R=1.517
      3      O    -1.47688907     0.90533684    -0.81886082       adf.R=1.517
      4      I    -1.83045802     0.92241828     2.99236179       adf.R=1.967
      5      H    -1.51066538     1.72861259    -1.32618318       adf.R=1.350
      6      O    -0.10250926    -1.81461419    -1.02189999       adf.R=1.517
      7      H    -0.54709813    -1.85043479    -1.87945691       adf.R=1.350
      8      H     0.49251876    -2.57461476    -0.97362466       adf.R=1.350
      9      H     2.04325393     1.97424981     0.55103101       adf.R=1.350
     10      O     1.15315381    -0.85065458     1.51830461       adf.R=1.517
 
Total System Charge             0.00000
Bonding info available!
 
 *** GO1_GOStep12 ***

 SOLVATION
-------------------------------------------

  The Delley construction of COSMO surface surface is calculated

       Division Level for Surface Triangles (NDIV)                  3
       Final Division Level for Triangles (NFDIV)                   1
       Radius of the Solvent (RSOL)                           1.93000 angstr
  Dielectric Constant (EPSL)                                 78.39000

       COSMO equation is solved iteratively-               conjugate-gradient

       Maximun of Iterations for Charges (NCIX)                  1000
       Criterion for Charge convergence (CCNV)                1.0E-08

  COSMO charges included variationally in SCF

       COSMO included at every SCF cycle

  Geometry-dependent empirical factor                         0.00000

  C-Matrix calculated in cspmtx

  In cspmtx, C-Matrix calculated using fitted potential

-------------------------------------------



 -------------------------------------------
  COSMO surface
  Area             =          557.569
  Volume           =          901.921
  Number of Points =         1292
 -------------------------------------------



 ======================
 RI Hartree-Fock Scheme
 ======================
  
 Fit Set Quality     : GOOD
 Threshold Quality   : GOOD
 Integration Quality : GOOD
 Response Quality    : DEFAULT
 Is Range Separated  :  F
 
 RIHartreeFock Dependency: number of modified vectors:           4
 cosmo_calcen: 0.5 (esolb+esolc) (Hartrees) =   -0.064226

 Solvation energy (screening term,uncorrected) =    -40.302255 kcal/mol

 Solvation energy (dispersion and cavitation terms) =      1.042611 kcal/mol
 Solvation Energy Contributions (Hartrees)
          esola   esolb+esolc
     0.06422573   -0.12845145
 esol last cycle   -0.06422573
  
 Hartree-Fock exchange energy:   -680.654846298678     
 cosmo_calcen: 0.5 (esolb+esolc) (Hartrees) =   -0.064226

 Solvation energy (screening term,uncorrected) =    -40.302219 kcal/mol

 Solvation energy (dispersion and cavitation terms) =      1.042611 kcal/mol
 Solvation Energy Contributions (Hartrees)
          esola   esolb+esolc
     0.06422567   -0.12845134
 esol last cycle   -0.06422567

 Energy gradients wrt nuclear displacements
 ==========================================

     Atom      Cartesian (a.u./angstrom)
                 X         Y         Z
 ----------------------------------------
     1 Pa    0.000442 -0.000128 -0.003227
     2 O     0.000158  0.002607 -0.000780
     3 O    -0.001964 -0.000367 -0.000519
     4 I    -0.000395  0.000068  0.000341
     5 H     0.000214  0.000319 -0.000155
     6 O    -0.000906  0.001697  0.002077
     7 H     0.000094 -0.000554 -0.000228
     8 H     0.000081 -0.000284 -0.000213
     9 H     0.000531 -0.000829  0.000413
    10 O     0.001746 -0.002530  0.002291
 ----------------------------------------
 Mulliken charges used for AMS results%charges...

 dE(predicted):    -0.56002E-04, dE(actual):    -0.74900E-04, Trust radius:    0.400000, all in a.u.
 
----------------------------------------------------------------------
Geometry Convergence after Step  12       (Hartree/Angstrom,Angstrom)
----------------------------------------------------------------------
current energy                               -2.62801964 Hartree
energy change                      -0.00007490     0.00001000    F
constrained gradient max            0.00322388     0.00010000    F
constrained gradient rms            0.00125127     0.00006667    F
gradient max                        0.00322388
gradient rms                        0.00125127
cart. step max                      0.02390416     0.00100000    F
cart. step rms                      0.01169040     0.00066667    F
 
 
--------
Geometry
--------
Formula: H4IO4Pa
Atoms
  Index Symbol   x (angstrom)   y (angstrom)   z (angstrom)
      1     Pa    -0.09675152     0.11266523     0.53853414       adf.R=2.200
      2      O     1.13672576     1.83539881     0.22271781       adf.R=1.517
      3      O    -1.48599322     0.89981655    -0.81052677       adf.R=1.517
      4      I    -1.82400354     0.94632244     3.00769083       adf.R=1.967
      5      H    -1.51043644     1.71902059    -1.32513463       adf.R=1.350
      6      O    -0.09501095    -1.80734795    -1.02865927       adf.R=1.517
      7      H    -0.53121560    -1.83833523    -1.89076333       adf.R=1.350
      8      H     0.50665714    -2.56256781    -0.98555440       adf.R=1.350
      9      H     2.04087728     1.95407161     0.53910229       adf.R=1.350
     10      O     1.13814419    -0.84930389     1.53586066       adf.R=1.517
 
Total System Charge             0.00000
Bonding info available!
 
 *** GO1_GOStep13 ***

 SOLVATION
-------------------------------------------

  The Delley construction of COSMO surface surface is calculated

       Division Level for Surface Triangles (NDIV)                  3
       Final Division Level for Triangles (NFDIV)                   1
       Radius of the Solvent (RSOL)                           1.93000 angstr
  Dielectric Constant (EPSL)                                 78.39000

       COSMO equation is solved iteratively-               conjugate-gradient

       Maximun of Iterations for Charges (NCIX)                  1000
       Criterion for Charge convergence (CCNV)                1.0E-08

  COSMO charges included variationally in SCF

       COSMO included at every SCF cycle

  Geometry-dependent empirical factor                         0.00000

  C-Matrix calculated in cspmtx

  In cspmtx, C-Matrix calculated using fitted potential

-------------------------------------------



 -------------------------------------------
  COSMO surface
  Area             =          557.205
  Volume           =          901.332
  Number of Points =         1290
 -------------------------------------------



 ======================
 RI Hartree-Fock Scheme
 ======================
  
 Fit Set Quality     : GOOD
 Threshold Quality   : GOOD
 Integration Quality : GOOD
 Response Quality    : DEFAULT
 Is Range Separated  :  F
 
 RIHartreeFock Dependency: number of modified vectors:           4
 cosmo_calcen: 0.5 (esolb+esolc) (Hartrees) =   -0.064509

 Solvation energy (screening term,uncorrected) =    -40.479918 kcal/mol

 Solvation energy (dispersion and cavitation terms) =      1.041931 kcal/mol
 Solvation Energy Contributions (Hartrees)
          esola   esolb+esolc
     0.06450885   -0.12901770
 esol last cycle   -0.06450885
  
 Hartree-Fock exchange energy:   -680.655663348706     
 cosmo_calcen: 0.5 (esolb+esolc) (Hartrees) =   -0.064509

 Solvation energy (screening term,uncorrected) =    -40.479924 kcal/mol

 Solvation energy (dispersion and cavitation terms) =      1.041931 kcal/mol
 Solvation Energy Contributions (Hartrees)
          esola   esolb+esolc
     0.06450886   -0.12901772
 esol last cycle   -0.06450886

 Energy gradients wrt nuclear displacements
 ==========================================

     Atom      Cartesian (a.u./angstrom)
                 X         Y         Z
 ----------------------------------------
     1 Pa   -0.001332  0.001670 -0.004770
     2 O    -0.000079  0.001957 -0.000673
     3 O    -0.000761 -0.001235  0.000514
     4 I    -0.000164 -0.000081  0.000299
     5 H     0.000355  0.000378 -0.000127
     6 O    -0.001236  0.002146  0.002330
     7 H     0.000320 -0.000909 -0.000357
     8 H     0.000026 -0.000451 -0.000564
     9 H     0.000536 -0.000821  0.000381
    10 O     0.002335 -0.002653  0.002968
 ----------------------------------------
 Mulliken charges used for AMS results%charges...

 dE(predicted):    -0.23390E-04, dE(actual):    -0.43975E-04, Trust radius:    0.400000, all in a.u.
 
----------------------------------------------------------------------
Geometry Convergence after Step  13       (Hartree/Angstrom,Angstrom)
----------------------------------------------------------------------
current energy                               -2.62806362 Hartree
energy change                      -0.00004397     0.00001000    F
constrained gradient max            0.00476686     0.00010000    F
constrained gradient rms            0.00152486     0.00006667    F
gradient max                        0.00476686
gradient rms                        0.00152486
cart. step max                      0.07575552     0.00100000    F
cart. step rms                      0.03594436     0.00066667    F
 
 
--------
Geometry
--------
Formula: H4IO4Pa
Atoms
  Index Symbol   x (angstrom)   y (angstrom)   z (angstrom)
      1     Pa    -0.13968011     0.09912341     0.56875212       adf.R=2.200
      2      O     1.12775593     1.78059597     0.19193318       adf.R=1.517
      3      O    -1.51802573     0.88593055    -0.78310825       adf.R=1.517
      4      I    -1.80588448     1.02207796     3.04878398       adf.R=1.967
      5      H    -1.51615825     1.69055931    -1.32099645       adf.R=1.350
      6      O    -0.06831038    -1.78388238    -1.04713819       adf.R=1.517
      7      H    -0.48079354    -1.79763130    -1.92125947       adf.R=1.350
      8      H     0.55403046    -2.52284702    -1.01569898       adf.R=1.350
      9      H     2.03500181     1.88882227     0.50268265       adf.R=1.350
     10      O     1.09105739    -0.85300843     1.57931671       adf.R=1.517
 
Total System Charge             0.00000
Bonding info available!
 
 *** GO1_GOStep14 ***

 SOLVATION
-------------------------------------------

  The Delley construction of COSMO surface surface is calculated

       Division Level for Surface Triangles (NDIV)                  3
       Final Division Level for Triangles (NFDIV)                   1
       Radius of the Solvent (RSOL)                           1.93000 angstr
  Dielectric Constant (EPSL)                                 78.39000

       COSMO equation is solved iteratively-               conjugate-gradient

       Maximun of Iterations for Charges (NCIX)                  1000
       Criterion for Charge convergence (CCNV)                1.0E-08

  COSMO charges included variationally in SCF

       COSMO included at every SCF cycle

  Geometry-dependent empirical factor                         0.00000

  C-Matrix calculated in cspmtx

  In cspmtx, C-Matrix calculated using fitted potential

-------------------------------------------



 -------------------------------------------
  COSMO surface
  Area             =          555.299
  Volume           =          898.997
  Number of Points =         1291
 -------------------------------------------



 ======================
 RI Hartree-Fock Scheme
 ======================
  
 Fit Set Quality     : GOOD
 Threshold Quality   : GOOD
 Integration Quality : GOOD
 Response Quality    : DEFAULT
 Is Range Separated  :  F
 
 RIHartreeFock Dependency: number of modified vectors:           4
 cosmo_calcen: 0.5 (esolb+esolc) (Hartrees) =   -0.064915

 Solvation energy (screening term,uncorrected) =    -40.734521 kcal/mol

 Solvation energy (dispersion and cavitation terms) =      1.038366 kcal/mol
 Solvation Energy Contributions (Hartrees)
          esola   esolb+esolc
     0.06491458   -0.12982917
 esol last cycle   -0.06491458
  
 Hartree-Fock exchange energy:   -680.659150509385     
 cosmo_calcen: 0.5 (esolb+esolc) (Hartrees) =   -0.064915

 Solvation energy (screening term,uncorrected) =    -40.734517 kcal/mol

 Solvation energy (dispersion and cavitation terms) =      1.038366 kcal/mol
 Solvation Energy Contributions (Hartrees)
          esola   esolb+esolc
     0.06491458   -0.12982916
 esol last cycle   -0.06491458

 Energy gradients wrt nuclear displacements
 ==========================================

     Atom      Cartesian (a.u./angstrom)
                 X         Y         Z
 ----------------------------------------
     1 Pa   -0.003144  0.004649 -0.005707
     2 O    -0.000400  0.000233 -0.000453
     3 O     0.001546 -0.002747  0.002550
     4 I     0.000349 -0.000498 -0.000036
     5 H     0.000634  0.000344  0.000004
     6 O    -0.001575  0.001999  0.001986
     7 H     0.000539 -0.001157 -0.000405
     8 H     0.000028 -0.000468 -0.000832
     9 H     0.000303 -0.000832  0.000270
    10 O     0.001718 -0.001523  0.002623
 ----------------------------------------
 Mulliken charges used for AMS results%charges...

 dE(predicted):    -0.58957E-04, dE(actual):    -0.66251E-04, Trust radius:    0.400000, all in a.u.
 
----------------------------------------------------------------------
Geometry Convergence after Step  14       (Hartree/Angstrom,Angstrom)
----------------------------------------------------------------------
current energy                               -2.62812987 Hartree
energy change                      -0.00006625     0.00001000    F
constrained gradient max            0.00570605     0.00010000    F
constrained gradient rms            0.00189515     0.00006667    F
gradient max                        0.00570605
gradient rms                        0.00189515
cart. step max                      0.04656921     0.00100000    F
cart. step rms                      0.01939856     0.00066667    F
 
 
--------
Geometry
--------
Formula: H4IO4Pa
Atoms
  Index Symbol   x (angstrom)   y (angstrom)   z (angstrom)
      1     Pa    -0.16241638     0.08876003     0.58570025       adf.R=2.200
      2      O     1.12087816     1.74861468     0.17853454       adf.R=1.517
      3      O    -1.53430402     0.88013359    -0.76843016       adf.R=1.517
      4      I    -1.79407825     1.06864717     3.06666173       adf.R=1.967
      5      H    -1.52297883     1.67840741    -1.31542823       adf.R=1.350
      6      O    -0.05020349    -1.77245637    -1.05833866       adf.R=1.517
      7      H    -0.45255714    -1.77499795    -1.93711382       adf.R=1.350
      8      H     0.57953537    -2.50504789    -1.03009939       adf.R=1.350
      9      H     2.02981654     1.85840575     0.48299661       adf.R=1.350
     10      O     1.06530114    -0.86072608     1.59878445       adf.R=1.517
 
Total System Charge             0.00000
Bonding info available!
 
 *** GO1_GOStep15 ***

 SOLVATION
-------------------------------------------

  The Delley construction of COSMO surface surface is calculated

       Division Level for Surface Triangles (NDIV)                  3
       Final Division Level for Triangles (NFDIV)                   1
       Radius of the Solvent (RSOL)                           1.93000 angstr
  Dielectric Constant (EPSL)                                 78.39000

       COSMO equation is solved iteratively-               conjugate-gradient

       Maximun of Iterations for Charges (NCIX)                  1000
       Criterion for Charge convergence (CCNV)                1.0E-08

  COSMO charges included variationally in SCF

       COSMO included at every SCF cycle

  Geometry-dependent empirical factor                         0.00000

  C-Matrix calculated in cspmtx

  In cspmtx, C-Matrix calculated using fitted potential

-------------------------------------------



 -------------------------------------------
  COSMO surface
  Area             =          554.100
  Volume           =          897.138
  Number of Points =         1292
 -------------------------------------------



 ======================
 RI Hartree-Fock Scheme
 ======================
  
 Fit Set Quality     : GOOD
 Threshold Quality   : GOOD
 Integration Quality : GOOD
 Response Quality    : DEFAULT
 Is Range Separated  :  F
 
 RIHartreeFock Dependency: number of modified vectors:           4
 cosmo_calcen: 0.5 (esolb+esolc) (Hartrees) =   -0.064833

 Solvation energy (screening term,uncorrected) =    -40.683515 kcal/mol

 Solvation energy (dispersion and cavitation terms) =      1.036124 kcal/mol
 Solvation Energy Contributions (Hartrees)
          esola   esolb+esolc
     0.06483330   -0.12966660
 esol last cycle   -0.06483330
  
 Hartree-Fock exchange energy:   -680.661512388494     
 cosmo_calcen: 0.5 (esolb+esolc) (Hartrees) =   -0.064833

 Solvation energy (screening term,uncorrected) =    -40.683532 kcal/mol

 Solvation energy (dispersion and cavitation terms) =      1.036124 kcal/mol
 Solvation Energy Contributions (Hartrees)
          esola   esolb+esolc
     0.06483333   -0.12966666
 esol last cycle   -0.06483333

 Energy gradients wrt nuclear displacements
 ==========================================

     Atom      Cartesian (a.u./angstrom)
                 X         Y         Z
 ----------------------------------------
     1 Pa   -0.002178  0.004651 -0.004189
     2 O    -0.000427 -0.000583 -0.000237
     3 O     0.002239 -0.002738  0.002981
     4 I     0.000529 -0.000665 -0.000304
     5 H     0.000626  0.000191  0.000058
     6 O    -0.001366  0.000872  0.001123
     7 H     0.000347 -0.000751 -0.000208
     8 H     0.000039 -0.000276 -0.000483
     9 H     0.000009 -0.000662  0.000090
    10 O     0.000182 -0.000038  0.001168
 ----------------------------------------
 Mulliken charges used for AMS results%charges...

 dE(predicted):    -0.31913E-04, dE(actual):     0.60611E-05, Trust radius:    0.020074, all in a.u.
 
----------------------------------------------------------------------
Geometry Convergence after Step  15       (Hartree/Angstrom,Angstrom)
----------------------------------------------------------------------
current energy                               -2.62812381 Hartree
energy change                       0.00000606     0.00001000    T
constrained gradient max            0.00461282     0.00010000    F
constrained gradient rms            0.00156704     0.00006667    F
gradient max                        0.00461282
gradient rms                        0.00156704
cart. step max                      0.01344764     0.00100000    F
cart. step rms                      0.00428954     0.00066667    F
 
 
--------
Geometry
--------
Formula: H4IO4Pa
Atoms
  Index Symbol   x (angstrom)   y (angstrom)   z (angstrom)
      1     Pa    -0.16557964     0.08436424     0.58873699       adf.R=2.200
      2      O     1.11893439     1.74287335     0.17900191       adf.R=1.517
      3      O    -1.53802699     0.88168415    -0.76564734       adf.R=1.517
      4      I    -1.79109901     1.08209481     3.06676249       adf.R=1.967
      5      H    -1.52854166     1.68008006    -1.31217668       adf.R=1.350
      6      O    -0.04489424    -1.77312914    -1.06047798       adf.R=1.517
      7      H    -0.44597847    -1.77188088    -1.93967106       adf.R=1.350
      8      H     0.58527297    -2.50501041    -1.03140079       adf.R=1.350
      9      H     2.02833782     1.85683961     0.48019812       adf.R=1.350
     10      O     1.06056793    -0.86817547     1.59794165       adf.R=1.517
 
Total System Charge             0.00000
Bonding info available!
 
 *** GO1_GOStep16 ***

 SOLVATION
-------------------------------------------

  The Delley construction of COSMO surface surface is calculated

       Division Level for Surface Triangles (NDIV)                  3
       Final Division Level for Triangles (NFDIV)                   1
       Radius of the Solvent (RSOL)                           1.93000 angstr
  Dielectric Constant (EPSL)                                 78.39000

       COSMO equation is solved iteratively-               conjugate-gradient

       Maximun of Iterations for Charges (NCIX)                  1000
       Criterion for Charge convergence (CCNV)                1.0E-08

  COSMO charges included variationally in SCF

       COSMO included at every SCF cycle

  Geometry-dependent empirical factor                         0.00000

  C-Matrix calculated in cspmtx

  In cspmtx, C-Matrix calculated using fitted potential

-------------------------------------------



 -------------------------------------------
  COSMO surface
  Area             =          553.903
  Volume           =          896.926
  Number of Points =         1292
 -------------------------------------------



 ======================
 RI Hartree-Fock Scheme
 ======================
  
 Fit Set Quality     : GOOD
 Threshold Quality   : GOOD
 Integration Quality : GOOD
 Response Quality    : DEFAULT
 Is Range Separated  :  F
 
 RIHartreeFock Dependency: number of modified vectors:           4
 cosmo_calcen: 0.5 (esolb+esolc) (Hartrees) =   -0.064686

 Solvation energy (screening term,uncorrected) =    -40.591088 kcal/mol

 Solvation energy (dispersion and cavitation terms) =      1.035755 kcal/mol
 Solvation Energy Contributions (Hartrees)
          esola   esolb+esolc
     0.06468601   -0.12937202
 esol last cycle   -0.06468601
  
 Hartree-Fock exchange energy:   -680.661500854535     
 cosmo_calcen: 0.5 (esolb+esolc) (Hartrees) =   -0.064686

 Solvation energy (screening term,uncorrected) =    -40.591101 kcal/mol

 Solvation energy (dispersion and cavitation terms) =      1.035755 kcal/mol
 Solvation Energy Contributions (Hartrees)
          esola   esolb+esolc
     0.06468603   -0.12937206
 esol last cycle   -0.06468603

 Energy gradients wrt nuclear displacements
 ==========================================

     Atom      Cartesian (a.u./angstrom)
                 X         Y         Z
 ----------------------------------------
     1 Pa   -0.000170  0.002644 -0.001753
     2 O    -0.000124 -0.000323 -0.000276
     3 O     0.001314 -0.001595  0.001886
     4 I     0.000418 -0.000568 -0.000360
     5 H     0.000451  0.000028  0.000072
     6 O    -0.000935 -0.000159  0.000428
     7 H     0.000126 -0.000283  0.000065
[...]
 Index  Atom      ---- Displacements (x/y/z) ----
     1    Pa      -0.000836   0.000107  -0.003322
     2     O       0.004287   0.002917   0.016720
     3     O       0.003323   0.039406   0.013841
     4     I      -0.001098  -0.002314   0.000162
     5     H       0.051068   0.019778  -0.012049
     6     O       0.040295  -0.001282   0.001788
     7     H      -0.693239  -0.655533   0.261887
     8     H       0.085310   0.038600  -0.047042
     9     H      -0.006688   0.002051   0.054591
    10     O       0.008390   0.013264  -0.001864
 
 Mode:     8      Frequency (cm-1):       41.0976     Intensity (km/mol):        0.8213
 Index  Atom      ---- Displacements (x/y/z) ----
     1    Pa       0.048621   0.046511  -0.001023
     2     O       0.100337  -0.060138  -0.153162
     3     O       0.030706   0.018641   0.000758
     4     I      -0.053425  -0.048072   0.006777
     5     H       0.047740  -0.030534  -0.067252
     6     O      -0.395567  -0.229877   0.123615
     7     H      -0.327695  -0.112272   0.101874
     8     H      -0.573913  -0.394159   0.149487
     9     H       0.127497  -0.094530  -0.235285
    10     O       0.031861   0.020747  -0.006982
 
 Mode:     9      Frequency (cm-1):       67.6005     Intensity (km/mol):        3.1447
 Index  Atom      ---- Displacements (x/y/z) ----
     1    Pa      -0.040249   0.035613  -0.036570
     2     O       0.026550  -0.028775  -0.047894
     3     O       0.082804  -0.016236  -0.192258
     4     I       0.040713  -0.040408   0.050294
     5     H       0.182707  -0.065632  -0.258726
     6     O       0.211049  -0.201166   0.244786
     7     H       0.481881  -0.265884   0.136100
     8     H       0.178884  -0.221286   0.506536
     9     H       0.012338  -0.042451   0.006665
    10     O      -0.115968   0.089875   0.099946
 
 Mode:    10      Frequency (cm-1):       95.9499     Intensity (km/mol):        1.7805
 Index  Atom      ---- Displacements (x/y/z) ----
     1    Pa       0.006186   0.002259  -0.000368
     2     O       0.165505  -0.298709  -0.390769
     3     O      -0.076625   0.038917   0.111759
     4     I      -0.043098   0.015048   0.046106
     5     H      -0.049855  -0.053109  -0.015751
     6     O       0.189515   0.151046  -0.078351
     7     H       0.030257  -0.010726  -0.022333
     8     H       0.090201   0.060758  -0.034744
     9     H       0.239335  -0.465636  -0.586301
    10     O      -0.045326  -0.013743   0.038392
 
 Mode:    11      Frequency (cm-1):      108.7316     Intensity (km/mol):       17.3471
 Index  Atom      ---- Displacements (x/y/z) ----
     1    Pa      -0.024638   0.031808   0.045506
     2     O       0.015688  -0.019807  -0.039402
     3     O      -0.159786   0.241818   0.300141
     4     I       0.061396  -0.093141  -0.151385
     5     H      -0.287554   0.432529   0.562216
     6     O       0.067444  -0.032767   0.104127
     7     H       0.292096   0.014275   0.017952
     8     H       0.028602  -0.064064   0.238842
     9     H       0.026145  -0.070303  -0.058010
    10     O      -0.058316   0.070600   0.130975
 
 Mode:    12      Frequency (cm-1):      113.2918     Intensity (km/mol):       20.2115
 Index  Atom      ---- Displacements (x/y/z) ----
     1    Pa       0.005288   0.035896   0.019730
     2     O       0.027939   0.006057   0.022353
     3     O      -0.088062  -0.249921  -0.075732
     4     I       0.024290  -0.025031  -0.028563
     5     H      -0.209875  -0.406516  -0.295990
     6     O       0.028842   0.127574  -0.045906
     7     H      -0.313419  -0.101772   0.079956
     8     H      -0.520252  -0.375864   0.084403
     9     H       0.041158   0.086080  -0.054219
    10     O      -0.174663  -0.153317   0.052622
 
 Mode:    13      Frequency (cm-1):      122.5286     Intensity (km/mol):        5.2896
 Index  Atom      ---- Displacements (x/y/z) ----
     1    Pa      -0.028283   0.005352   0.041945
     2     O       0.002069  -0.066251  -0.091280
     3     O       0.169091  -0.026177  -0.182359
     4     I       0.026878  -0.035252  -0.034836
     5     H       0.443612  -0.176642  -0.383665
     6     O      -0.092104   0.102230  -0.076408
     7     H      -0.232775   0.185500  -0.018158
     8     H       0.255881   0.414110  -0.371231
     9     H      -0.011847  -0.108881  -0.027433
    10     O       0.087556   0.172787   0.071006
 
 Mode:    14      Frequency (cm-1):      137.0092     Intensity (km/mol):      143.9374
 Index  Atom      ---- Displacements (x/y/z) ----
     1    Pa       0.003226  -0.019365  -0.009458
     2     O      -0.054406   0.032003  -0.019752
     3     O       0.046240   0.059137  -0.000054
     4     I       0.000181   0.004616   0.009339
     5     H       0.076784   0.111627   0.074399
     6     O       0.019480   0.057922  -0.062997
     7     H      -0.070534   0.036348  -0.027619
     8     H      -0.711533  -0.611752   0.151877
     9     H      -0.076379   0.096310   0.033958
    10     O      -0.010095   0.117179   0.130660
 
 Mode:    15      Frequency (cm-1):      140.5347     Intensity (km/mol):      107.5856
 Index  Atom      ---- Displacements (x/y/z) ----
     1    Pa       0.018466  -0.004838  -0.032298
     2     O       0.057664  -0.009737   0.058813
     3     O      -0.094900  -0.069317   0.047715
     4     I       0.001438   0.002056   0.017861
     5     H      -0.255493  -0.023330   0.106006
     6     O      -0.097692  -0.033828  -0.049856
     7     H      -0.102825   0.112980  -0.043448
     8     H       0.516887   0.521907  -0.397764
     9     H       0.007594   0.101884   0.190739
    10     O      -0.153690   0.121506   0.277246
 
 Mode:    16      Frequency (cm-1):      179.6079     Intensity (km/mol):       90.8795
 Index  Atom      ---- Displacements (x/y/z) ----
     1    Pa      -0.021716   0.005631  -0.011405
     2     O       0.233538  -0.135574   0.201166
     3     O      -0.093421  -0.101178   0.014412
     4     I       0.000498  -0.000572  -0.000549
     5     H      -0.394830  -0.086933   0.024907
     6     O       0.012526   0.026048  -0.006099
     7     H       0.036093   0.010589  -0.015225
     8     H      -0.309734  -0.267179   0.141089
     9     H       0.226007  -0.510269   0.356180
    10     O       0.184959   0.187702  -0.072333
 
 Mode:    17      Frequency (cm-1):      250.1018     Intensity (km/mol):      266.7082
 Index  Atom      ---- Displacements (x/y/z) ----
     1    Pa      -0.001965   0.001682   0.003833
     2     O       0.002227  -0.003492  -0.033648
     3     O       0.064383  -0.054973  -0.083517
     4     I       0.000331  -0.000664   0.001360
     5     H      -0.471340   0.514338   0.695039
     6     O      -0.002538   0.018871   0.012646
     7     H      -0.093963  -0.009822   0.047409
     8     H       0.012335   0.031248  -0.032749
     9     H      -0.002122  -0.026926  -0.009866
    10     O      -0.003344  -0.011494  -0.005743
 
 Mode:    18      Frequency (cm-1):      285.5890     Intensity (km/mol):       73.6008
 Index  Atom      ---- Displacements (x/y/z) ----
     1    Pa       0.008304  -0.029733  -0.030522
     2     O       0.003966   0.017373  -0.003693
     3     O      -0.023675   0.028106  -0.000745
     4     I       0.001777  -0.001157  -0.003964
     5     H       0.049251  -0.062446  -0.123112
     6     O      -0.110192   0.360727   0.412839
     7     H      -0.198569   0.329619   0.443394
     8     H      -0.076961   0.388336   0.397896
     9     H       0.011084  -0.042467  -0.008988
    10     O       0.009424  -0.006179   0.019226
 
 Mode:    19      Frequency (cm-1):      345.8838     Intensity (km/mol):      228.1543
 Index  Atom      ---- Displacements (x/y/z) ----
     1    Pa      -0.001104   0.001518   0.001795
     2     O       0.034541  -0.050313  -0.069374
     3     O      -0.003298  -0.000434   0.009086
     4     I      -0.000782  -0.000041   0.000273
     5     H      -0.012914  -0.013429  -0.009570
     6     O      -0.001445   0.007822   0.002571
     7     H       0.037633  -0.011637  -0.013243
     8     H      -0.012197  -0.000294   0.050802
     9     H      -0.273248   0.547035   0.782186
    10     O       0.008776  -0.011550  -0.021426
 
 Mode:    20      Frequency (cm-1):      369.8565     Intensity (km/mol):      379.9911
 Index  Atom      ---- Displacements (x/y/z) ----
     1    Pa      -0.005816  -0.003365  -0.000876
     2     O       0.011295   0.077558  -0.045748
     3     O       0.129591   0.022119   0.069892
     4     I       0.000266  -0.000143  -0.000175
     5     H      -0.790074  -0.294644  -0.387699
     6     O       0.000496  -0.006138  -0.000592
     7     H      -0.005322   0.002366   0.001978
     8     H       0.017979   0.009662  -0.016714
     9     H      -0.013745  -0.277241   0.173767
    10     O      -0.009626  -0.008523   0.004896
 
 Mode:    21      Frequency (cm-1):      430.9032     Intensity (km/mol):      272.2361
 Index  Atom      ---- Displacements (x/y/z) ----
     1    Pa      -0.002240  -0.003775   0.001636
     2     O       0.059193   0.144639  -0.076779
     3     O      -0.021130  -0.049064   0.019716
     4     I      -0.000200   0.000483   0.000485
     5     H       0.482140   0.080820   0.206391
     6     O      -0.005323   0.001077  -0.009267
     7     H       0.027955  -0.039852  -0.023906
     8     H       0.000434   0.007557   0.039658
     9     H      -0.008437  -0.675935   0.471370
    10     O      -0.030431  -0.006432  -0.004848
 
 Mode:    22      Frequency (cm-1):      451.9948     Intensity (km/mol):       34.6821
 Index  Atom      ---- Displacements (x/y/z) ----
     1    Pa       0.000861  -0.001020   0.000312
     2     O      -0.002684  -0.003228   0.006431
     3     O       0.023781  -0.017962   0.006747
     4     I       0.000149  -0.000167  -0.000161
     5     H      -0.012160  -0.004192   0.025125
     6     O      -0.064182   0.050776  -0.056669
     7     H       0.341019  -0.564026  -0.239156
     8     H       0.089099   0.217248   0.657529
     9     H       0.017895   0.041361  -0.082622
    10     O       0.002004   0.005989   0.017524
 
 Mode:    23      Frequency (cm-1):      511.3100     Intensity (km/mol):      160.5121
 Index  Atom      ---- Displacements (x/y/z) ----
     1    Pa      -0.022400  -0.005474  -0.005779
     2     O       0.173613   0.107172  -0.013654
     3     O       0.122242  -0.098797   0.139331
     4     I       0.000502  -0.000190  -0.000507
     5     H       0.298356  -0.054279   0.200941
     6     O       0.008539  -0.000530   0.010485
     7     H      -0.052349   0.063548   0.036791
     8     H      -0.017153  -0.027171  -0.075456
     9     H       0.232212   0.709194  -0.455288
    10     O      -0.013877   0.029168  -0.030203
 
 Mode:    24      Frequency (cm-1):      563.7932     Intensity (km/mol):      302.2137
 Index  Atom      ---- Displacements (x/y/z) ----
     1    Pa       0.002676  -0.032551   0.027853
     2     O       0.234053   0.219070  -0.074894
     3     O      -0.229948   0.182157  -0.259652
     4     I      -0.001488   0.002082   0.002636
     5     H      -0.484942   0.110093  -0.362774
     6     O      -0.002900  -0.011660  -0.026646
     7     H       0.055350  -0.084476  -0.053593
     8     H       0.021330   0.012947   0.072236
     9     H       0.260439   0.451727  -0.252366
    10     O      -0.018734   0.033192  -0.024449
 
 Mode:    25      Frequency (cm-1):      799.0512     Intensity (km/mol):      545.9467
 Index  Atom      ---- Displacements (x/y/z) ----
     1    Pa       0.046872  -0.027319   0.033139
     2     O      -0.094733  -0.094438   0.035430
     3     O       0.040154  -0.017904   0.033366
     4     I       0.001759  -0.002247  -0.003670
     5     H      -0.079446  -0.051981  -0.006728
     6     O      -0.009684   0.023746   0.021210
     7     H       0.022221  -0.029688   0.008877
     8     H      -0.001631   0.035360   0.055196
     9     H      -0.101624  -0.092882   0.035695
    10     O      -0.616614   0.509802  -0.545420
 
 Mode:    26      Frequency (cm-1):     1578.6945     Intensity (km/mol):      127.8690
 Index  Atom      ---- Displacements (x/y/z) ----
     1    Pa      -0.000017  -0.000067  -0.000092
     2     O       0.000102   0.000107  -0.000214
     3     O      -0.000128  -0.000066  -0.000887
     4     I      -0.000013   0.000014   0.000036
     5     H      -0.003025   0.000436  -0.000636
     6     O      -0.019575   0.042891   0.056501
     7     H       0.432700  -0.523562  -0.179429
     8     H      -0.129402  -0.131994  -0.683271
     9     H       0.000510   0.001703  -0.001107
    10     O       0.000997  -0.000908   0.000116
 
 Mode:    27      Frequency (cm-1):     3754.5099     Intensity (km/mol):      178.7802
 Index  Atom      ---- Displacements (x/y/z) ----
     1    Pa       0.000004  -0.000032  -0.000031
     2     O      -0.000716   0.000042  -0.000239
     3     O      -0.000162  -0.001893   0.001384
     4     I      -0.000003   0.000007   0.000006
     5     H       0.000383   0.032007  -0.023225
     6     O       0.012586  -0.028561  -0.037817
     7     H       0.277699  -0.049846   0.653925
     8     H      -0.479132   0.506658  -0.048580
     9     H       0.012758   0.001407   0.003460
    10     O       0.000117  -0.000068   0.000180
 
 Mode:    28      Frequency (cm-1):     3775.5250     Intensity (km/mol):      307.7532
 Index  Atom      ---- Displacements (x/y/z) ----
     1    Pa      -0.000034   0.000020  -0.000037
     2     O      -0.001618   0.000008  -0.000599
     3     O       0.000664   0.050548  -0.036450
     4     I      -0.000006   0.000007   0.000016
     5     H      -0.011182  -0.808029   0.583384
     6     O       0.000914  -0.001528  -0.001181
     7     H       0.009146  -0.001827   0.020364
     8     H      -0.023166   0.024738  -0.002350
     9     H       0.031337   0.003001   0.009455
    10     O       0.000195  -0.000092   0.000156
 
 Mode:    29      Frequency (cm-1):     3802.3908     Intensity (km/mol):      213.7939
 Index  Atom      ---- Displacements (x/y/z) ----
     1    Pa       0.000027   0.000007   0.000008
     2     O       0.059729   0.006619   0.016937
     3     O      -0.000179   0.001756  -0.001376
     4     I      -0.000004   0.000007   0.000013
     5     H       0.000006  -0.025667   0.018622
     6     O       0.000459  -0.000691  -0.000377
     7     H       0.003018  -0.000753   0.005845
     8     H      -0.009747   0.010425  -0.001055
     9     H      -0.953959  -0.103108  -0.272344
    10     O       0.000167  -0.000336   0.000280
 
 Mode:    30      Frequency (cm-1):     3836.4302     Intensity (km/mol):      279.2120
 Index  Atom      ---- Displacements (x/y/z) ----
     1    Pa       0.000002  -0.000002   0.000004
     2     O      -0.000322  -0.000038  -0.000088
     3     O       0.000004  -0.000486   0.000321
     4     I      -0.000000   0.000001  -0.000000
     5     H       0.000218   0.007279  -0.005128
     6     O       0.046420  -0.034419   0.042060
     7     H      -0.253531   0.025414  -0.650594
     8     H      -0.483967   0.521556  -0.018471
     9     H       0.005167   0.000447   0.001615
    10     O      -0.000003   0.000016   0.000029

PES point character: Geometry corresponds to a local minimum on the PES.




 ============================
 Statistical Thermal Analysis  ***  ideal gas assumed  ***
 ============================
  
 Pressure:                  1.000000 atm.
 Temperature:             298.150000 K



 Moments of Inertia [amu*bohr^2] and principal axis
 ==================================================

         774.4281       4175.4293       4355.4153
 ------------------------------------------------
          -0.3833         -0.6007         -0.7016
           0.5002          0.5035         -0.7045
           0.7764         -0.6209          0.1075


 The rotational contribution to the molecular entropy includes
 a term, dependent on the symmetry number sigma. The results 
 reported below were computed using sigma = 1, determined from
 the point group symmetry of the input geometry (NOSYM). 
 If this is not the correct symmetry, try symmetrizing the molecule before
 running the calculation (note: linear molecules should be aligned along one
 of the Cartesian axes).
 Contributions from frequencies below 20 1/cm are not included in vibrational sums.
 Their contributions, if any, are reported separately.


     Temp                                                        Transl      Rotat     Vibrat     Total
     ----                                                        ------      -----     ------     -----

     298.15   Entropy (cal/mol-K):                               44.038     31.022     41.305    116.365
              Nuclear Internal Energy (kcal/mol):                 0.889      0.889     37.443     39.220
              Constant Volume Heat Capacity (cal/mol-K):          2.981      2.981     31.657     37.619
          (c) Constant Volume Heat Capacity (cal/mol-K):          2.981      2.981     27.752     33.714

       Summary of energy terms
                                                   hartree              eV         kcal/mol           kJ/mol
                                      --------------------     -----------       ----------      -----------
      Energy from Engine:               -2.627571910228990        -71.4999         -1648.83         -6898.69
      Nuclear Internal Energy:           0.062501753329636          1.7008            39.22           164.10
  (c) Nuclear Internal Energy:           0.060485972275421          1.6459            37.96           158.81
      Internal Energy U:                -2.565070156899354        -69.7991         -1609.61         -6734.59
      pV/n = RT:                         0.000944186013486          0.0257             0.59             2.48
      Enthalpy H:                       -2.564125970885868        -69.7734         -1609.01         -6732.11
      -T*S:                             -0.055288689254567         -1.5045           -34.69          -145.16
  (c) -T*S:                             -0.053759266558842         -1.4629           -33.73          -141.14
      Gibbs free energy:                -2.619414660140435        -71.2779         -1643.71         -6877.27
 
 
 
  (c) The properties marked with this symbol have been corrected using 'low vibrational frequency free rotor
      interpolation corrections'. For those terms all positive frequencies are used (also ones below 20 1/cm),
      but the contribution to the partition function of small vibrational frequencies is modified as described
      in the following paper:
      S. Grimme, 'Supramolecular Binding Thermodynamics by Dispersion-Corrected Density Functional Theory'
      (Chem. Eur. J. 2012, 18, 9955-9964)
      Configuration: Dampener Frequency          :   100.000 1/cm
                     Dampener Alpha              :     4.000
                     Averaging Moment of Inertia : 1.000E-44 kg m2

--------------
Atomic charges
--------------
  Index   Atom    Charge
      1     Pa    2.4495
      2      O   -0.7302
      3      O   -0.6575
      4      I   -0.6365
      5      H    0.1460
      6      O   -0.3977
      7      H    0.2377
      8      H    0.2407
      9      H    0.1506
     10      O   -0.8025


Dipole moment vector    (Debye):     1.36619126   -7.45183861  -11.74726451
              magnitude (Debye):    13.97836188


Final PES point is a local minimum. Geometry optimization successful!


AMS application finished. Exiting.
NORMAL TERMINATION
     Total cpu time:  116949.41
  Total system time:   83977.46
 Total elapsed time:  208345.73
 WARNING: total system time is high compared to CPU time. 
 Make sure the machine is not oversubscribed and has enough memory, SCM_TMPDIR p
 oints to a fast file system, and the network is fast enough.
