
 Working directory              : /state/partition2/shaaban/999370.phlam-s-sakura/molpro.zKVntAGVOo/
 Global scratch directory       : /state/partition2/shaaban/999370.phlam-s-sakura/molpro.zKVntAGVOo/
 Wavefunction directory         : /home/shaaban/wfu/
 Main file repository           : /state/partition2/shaaban/999370.phlam-s-sakura/molpro.zKVntAGVOo/

 id        : lill

 Nodes      nprocs
 u-0-1.local    8
 GA implementation: MPI file
 GA implementation (serial work in mppx): MPI file

 Using customized tuning parameters: mindgm=1; mindgv=20; mindgc=4; mindgr=1; noblas=0; minvec=7
 default implementation of scratch files=sf  


 Variables initialized (1040), CPU time= 0.02 sec
 ***,Pa(OH)4(I)- MP2 and CCSD(T)
 memory,2500, m;
 file, 1, pa_oh4_I.ccsd-tx.int, new;
 file, 2, pa_oh4_I.ccsd-tx.wfu, new;
 
 gprint, basis;
 gprint, orbital=10;
 
 nosym;
 
 geomtyp=xyz;
 
 geometry={
 Including file /home/shaaban/molpro/PhD/iodide/gp/pa_oh4_I/pa_oh4_I-B22-gp.xyz
 }
 
 charge=0;
 
                                                                                 ! Select X2C SR Hamiltonian
 SET,DKROLL=1
 
                                                                                 ! Calculation with VTZ basis set
 basis={
 Pa=cc-pVTZ-DK;
 O=aug-cc-pVTZ-DK;
 H=aug-cc-pVTZ-DK;
 I=aug-cc-pVTZ-DK;
 }
 
 
                                                                                 ! Hartree-Fock calculation
 {hf;}
 
                                                                                 ! MP2 and CCSD(T) calculation
 {ccsd(t);
  core, 61;}
 
                                                                  ! Save HF energy and CCSD(T) correlation energy for VTZ basis set
 energy_hf(1) = energr(1);
 corr_mp2(1) = EMP2-energr(1);
 corr_ccsdt(1) = ENERGT(1)-energr(1);
 
 Commands initialized (846), CPU time= 0.02 sec, 717 directives.
 Default parameters read. Elapsed time= 0.16 sec

 Checking input...
 Passed
1


                                         ***  PROGRAM SYSTEM MOLPRO  ***
                                       Copyright, TTI GmbH Stuttgart, 2015
                                    Version 2023.2 linked Fri Sep 22 09:27:09 2023


 **********************************************************************************************************************************
 LABEL *   Pa(OH)4(I)- MP2 and CCSD(T)                                                                                                                                   
  64 bit mpp version                                                                     DATE: 11-Jan-24          TIME: 16:49:36  
 **********************************************************************************************************************************

 SHA1:             3c61bfe44d37c8635c785372c339f5cbdd4e4b59
 **********************************************************************************************************************************

 Memory per process:      2500 MW
 Total memory per node:  20000 MW

 GA preallocation disabled
 GA check disabled

 Variable memory set to 2500.0 MW



 Permanent file  1  pa_oh4_i.ccsd-tx.int             assigned.  Implementation=df  
 Permanent file  2  pa_oh4_i.ccsd-tx.wfu             assigned.  Implementation=df  



 **********************************************************************************************************************************
 DATASETS  * FILE   NREC   LENGTH (MB)   RECORD NAMES
              1       1        0.06       500   
                                          VAR  

              2       1        0.06       500   
                                          VAR  

 PROGRAMS   *        TOTAL      FILE
 CPU TIMES  *         0.23      0.01
 REAL TIME  *         0.57 SEC
 DISK USED  *         0.16 MB (local),        1.32 MB (total)
 **********************************************************************************************************************************


 SETTING GEOMTYP        =    XYZ
 ZSYMEL=NOSYM


 Geometry recognized as XYZ

 SETTING CHARGE         =      0.0000000D+00                                  
 SETTING DKROLL         =         1.00000000                                  
 SETTING BASIS          =    PA=CC-PVTZ-DK,O=AUG-CC-PVTZ-DK,H=AUG-CC-PVTZ-DK,I=AUG-CC-PVTZ-DK


 Recomputing integrals since basis changed


 Using spherical harmonics

 Library entry PA     S cc-pVTZ-DK3          selected for orbital group  1
 Library entry PA     P cc-pVTZ-DK3          selected for orbital group  1
 Library entry PA     D cc-pVTZ-DK3          selected for orbital group  1
 Library entry PA     F cc-pVTZ-DK3          selected for orbital group  1
 Library entry PA     G cc-pVTZ-DK3          selected for orbital group  1
 Library entry PA     H cc-pVTZ-DK3          selected for orbital group  1
 Library entry I      S aug-cc-pVTZ-DK       selected for orbital group  2
 Library entry I      P aug-cc-pVTZ-DK       selected for orbital group  2
 Library entry I      D aug-cc-pVTZ-DK       selected for orbital group  2
 Library entry I      F aug-cc-pVTZ-DK       selected for orbital group  2
 Library entry H      S aug-cc-pVTZ-DK       selected for orbital group  3
 Library entry H      P aug-cc-pVTZ-DK       selected for orbital group  3
 Library entry H      D aug-cc-pVTZ-DK       selected for orbital group  3
 Library entry O      S aug-cc-pVTZ-DK       selected for orbital group  4
 Library entry O      P aug-cc-pVTZ-DK       selected for orbital group  4
 Library entry O      D aug-cc-pVTZ-DK       selected for orbital group  4
 Library entry O      F aug-cc-pVTZ-DK       selected for orbital group  4


 PROGRAM * SEWARD (Integral evaluation for generally contracted gaussian basis sets)     Author: Roland Lindh, 1990

 Geometry written to block  1 of record 700


 Point group  C1  



 ATOMIC COORDINATES

 NR  ATOM    CHARGE       X              Y              Z

   1  PA     91.00    0.547516723   -0.267896440    0.157279769
   2  I      53.00    2.912361525    3.767988364   -3.157222889
   3  H       1.00   -3.681322249    3.517115672    0.934999580
   4  O       8.00   -2.441921851    2.200582822    0.811767189
   5  H       1.00    5.318315495    0.158989127    3.305617994
   6  O       8.00    0.374929103   -2.594600704   -3.008475155
   7  H       1.00    0.391192065   -3.446730176   -4.607847781
   8  O       8.00   -1.073782834   -3.021399835    2.425384739
   9  H       1.00   -1.975551514   -4.243618381    3.413053668
  10  O       8.00    3.755533015   -0.103174919    2.426503556

 Bond lengths in Bohr (Angstrom)

 1-2  5.732956040  1-3  5.728371831  1-4  3.931728199  1-5  5.731909437  1-6  3.932600089
     ( 3.033749688)     ( 3.031323829)     ( 2.080580963)     ( 3.033195849)     ( 2.081042347)

  1- 7  5.730258449   1- 8  3.918506521   1- 9  5.724709772   1-10  3.932922362   3- 4  1.812335045
       ( 3.032322184)       ( 2.073584352)       ( 3.029385950)       ( 2.081212886)       ( 0.959046404)

  5-10  1.812142727   6- 7  1.812286379   8- 9  1.811765670
       ( 0.958944634)       ( 0.959020651)       ( 0.958745104)

 Bond angles

  1- 3- 4    6.24319184   1- 4- 3  170.88348826   1- 5-10    5.71639594   1- 6- 7  171.19826503

  1- 7- 6    6.02789708   1- 8- 9  174.56996121   1- 9- 8    3.71384585   1-10- 5  171.65314730

  2-1-3   85.28832596   2-1-4   88.16025619   2-1-5   85.51459201   2-1-6   88.23488182

  2- 1- 7   85.46946598   2- 1- 8  179.89008542   2- 1- 9  178.20985342   2- 1-10   88.14487352

  3-1-4    2.87331990   3-1-5  119.38410639   3-1-6  117.89306123   3-1-7  117.34241963

  3- 1- 8   94.60430367   3- 1- 9   93.22774884   3- 1-10  119.74563416   4- 1- 5  119.64701942

  4-1-6  118.17010173   4-1-7  117.77318528   4-1-8   91.73233708   4-1-9   90.35782493

  4- 1-10  119.85799778   5- 1- 6  121.51694515   5- 1- 7  121.38425568   5- 1- 8   94.51875854

  5- 1- 9   96.09482624   5- 1-10    2.63045676   6- 1- 7    2.77383789   6- 1- 8   91.83654103

  6- 1- 9   91.58116738   6- 1-10  121.67154191   7- 1- 8   94.60163792   7- 1- 9   94.33852417

  7- 1-10  121.68768488   8- 1- 9    1.71619295   8- 1-10   91.88853703   9- 1-10   93.46520775


 BASIS DATA

   Nr Sym  Nuc  Type         Exponents   Contraction coefficients

    1.1 A     1  1s    57606659.000000    -0.000367    0.001999   -0.000726   -0.000116    0.000099   -0.000045
                                           0.000021    0.000037   -0.000048   -0.000061    0.000000
    2.1 A              15333099.000000    -0.000320    0.001748   -0.000634   -0.000102    0.000087   -0.000039
                                           0.000018    0.000032   -0.000042   -0.000054    0.000000
    3.1 A               5244434.800000    -0.000928    0.005048   -0.001835   -0.000295    0.000251   -0.000113
                                           0.000052    0.000094   -0.000122   -0.000155    0.000000
    4.1 A               1993947.300000    -0.001157    0.006271   -0.002285   -0.000367    0.000312   -0.000141
                                           0.000065    0.000117   -0.000153   -0.000193    0.000000
    5.1 A                831464.670000    -0.002291    0.012335   -0.004515   -0.000726    0.000618   -0.000279
                                           0.000128    0.000231   -0.000302   -0.000382    0.000000
    6.1 A                367473.800000    -0.003191    0.016990   -0.006266   -0.001010    0.000858   -0.000388
                                           0.000178    0.000321   -0.000420   -0.000532    0.000000
    7.1 A                170948.980000    -0.005514    0.028930   -0.010774   -0.001741    0.001479   -0.000668
                                           0.000307    0.000553   -0.000722   -0.000912    0.000000
    8.1 A                 82498.208000    -0.008096    0.041465   -0.015694   -0.002547    0.002160   -0.000976
                                           0.000448    0.000809   -0.001057   -0.001343    0.000000
    9.1 A                 41068.557000    -0.013295    0.066058   -0.025530   -0.004169    0.003528   -0.001595
                                           0.000733    0.001318   -0.001720   -0.002167    0.000000
   10.1 A                 20931.097000    -0.020180    0.095592   -0.038190   -0.006291    0.005308   -0.002400
                                           0.001102    0.001992   -0.002605   -0.003325    0.000000
   11.1 A                 10881.858000    -0.032132    0.142991   -0.059747   -0.009970    0.008375   -0.003787
                                           0.001739    0.003121   -0.004070   -0.005095    0.000000
                           5751.850200    -0.047664    0.193172   -0.086493   -0.014700    0.012273   -0.005550
                                           0.002550    0.004624   -0.006058   -0.007812    0.000000
                           3085.413800    -0.066495    0.240368   -0.117665   -0.020515    0.016984   -0.007683
                                           0.003528    0.006293   -0.008187   -0.010070    0.000000
                           1676.302600    -0.070537    0.231081   -0.122390   -0.021751    0.017896   -0.008097
                                           0.003721    0.006847   -0.009026   -0.012101    0.000000
                            920.364860    -0.023626    0.149744   -0.044426   -0.005530    0.005175   -0.002332
                                           0.001066    0.001619   -0.001931   -0.000993    0.000000
                            507.302700     0.114270    0.033479    0.202649    0.056505   -0.041129    0.018705
                                          -0.008589   -0.014887    0.019169    0.021466    0.000000
                            285.301180     0.244587   -0.013881    0.548461    0.172416   -0.122712    0.055943
                                          -0.025751   -0.047935    0.063734    0.088070    0.000000
                            162.083520     0.197985   -0.013442    0.605050    0.222521   -0.154869    0.070889
                                          -0.032578   -0.056192    0.072208    0.078604    0.000000
                             92.502257     0.134582   -0.014203    0.036384   -0.036593    0.019421   -0.009128
                                           0.004115    0.001534    0.001075    0.030263    0.000000
                             54.996696     0.249625   -0.043456   -0.678191   -0.645561    0.447427   -0.212041
                                           0.098447    0.193368   -0.267182   -0.419407    0.000000
                             32.498055     0.201939   -0.033776   -0.590782   -0.685300    0.476926   -0.227202
                                           0.104959    0.171310   -0.214887   -0.161724    0.000000
                             19.139224     0.048672   -0.008893   -0.102345    0.188180   -0.152559    0.072939
                                          -0.033085   -0.027730    0.028614   -0.135572    0.000000
                             11.382710     0.000154    0.001566    0.103892    0.862319   -0.976271    0.548029
                                          -0.263284   -0.581738    0.872326    1.707930    0.000000
                              6.786052    -0.001620    0.000219    0.057771    0.444812   -0.715550    0.417427
                                          -0.198011   -0.257648    0.233331   -0.802647    0.000000
                              4.149622    -0.000024    0.000424    0.007658    0.066411    0.448995   -0.350743
                                           0.170764    0.219628   -0.311481    1.107900    0.000000
                              2.398648     0.000213   -0.000251    0.000234    0.013877    0.872126   -0.849864
                                           0.456346    1.306700   -2.312130   -7.673080    0.000000
                              1.389239     0.000151    0.000095   -0.000474    0.002053    0.319027   -0.431399
                                           0.230037    0.271748    0.316072   10.899500    0.000000
                              0.799685    -0.000007   -0.000062    0.000088    0.000459    0.047512    0.436706
                                          -0.277849   -1.773160    4.827330   -2.764150    0.000000
                              0.427327     0.000014    0.000024   -0.000055   -0.000721    0.030699    0.715284
                                          -0.562089   -0.897175   -3.628160   -6.597810    0.000000
                              0.220940    -0.000002   -0.000010    0.000018   -0.000091    0.010077    0.233304
                                          -0.326108    1.532070   -1.217550    6.759770    0.000000
                              0.086038     0.000001    0.000003   -0.000007   -0.000059    0.001150    0.063372
                                           0.302160    1.024940    2.677980   -2.147740    0.000000
                              0.041219    -0.000000   -0.000002    0.000003   -0.000045    0.001535    0.118889
                                           0.692611   -0.772653   -0.537526   -1.019450    0.000000
                              0.018781     0.000000    0.000000   -0.000001   -0.000024    0.000588    0.043818
                                           0.253564   -0.484245   -0.804705    1.252550    1.000000
   12.1 A     1  2px   52575799.000000     0.000019
                       15301659.000000     0.000024
                        4822461.600000     0.000069
                        1632045.600000     0.000134
                         584338.640000     0.000304
                         219508.320000     0.000647
                          86085.039000     0.001453
                          35172.956000     0.003300
                          14975.745000     0.007723
                           6652.821900     0.018193
                           3084.270200     0.042170
                           1489.211300     0.090817
                            745.288670     0.167656
                            384.521300     0.234335
                            203.927220     0.219969
                            110.523340     0.174849
                             61.345569     0.191146
                             34.404375     0.137654
                             19.094147     0.033446
                             10.684628    -0.000968
                              5.931463    -0.000978
                              3.230992    -0.000011
                              1.730655     0.000166
                              0.869483     0.000022
                              0.440589     0.000009
                              0.215859    -0.000000
                              0.091015     0.000001
                              0.040174    -0.000000
                              0.017215     0.000000
   13.1 A     1  2py   52575799.000000     0.000019
                       15301659.000000     0.000024
                        4822461.600000     0.000069
                        1632045.600000     0.000134
                         584338.640000     0.000304
                         219508.320000     0.000647
                          86085.039000     0.001453
                          35172.956000     0.003300
                          14975.745000     0.007723
                           6652.821900     0.018193
                           3084.270200     0.042170
                           1489.211300     0.090817
                            745.288670     0.167656
                            384.521300     0.234335
                            203.927220     0.219969
                            110.523340     0.174849
                             61.345569     0.191146
                             34.404375     0.137654
                             19.094147     0.033446
                             10.684628    -0.000968
                              5.931463    -0.000978
                              3.230992    -0.000011
                              1.730655     0.000166
                              0.869483     0.000022
                              0.440589     0.000009
                              0.215859    -0.000000
                              0.091015     0.000001
                              0.040174    -0.000000
                              0.017215     0.000000
   14.1 A     1  2pz   52575799.000000     0.000019
                       15301659.000000     0.000024
                        4822461.600000     0.000069
                        1632045.600000     0.000134
                         584338.640000     0.000304
                         219508.320000     0.000647
                          86085.039000     0.001453
                          35172.956000     0.003300
                          14975.745000     0.007723
                           6652.821900     0.018193
                           3084.270200     0.042170
                           1489.211300     0.090817
                            745.288670     0.167656
                            384.521300     0.234335
                            203.927220     0.219969
                            110.523340     0.174849
                             61.345569     0.191146
                             34.404375     0.137654
                             19.094147     0.033446
                             10.684628    -0.000968
                              5.931463    -0.000978
                              3.230992    -0.000011
                              1.730655     0.000166
                              0.869483     0.000022
                              0.440589     0.000009
                              0.215859    -0.000000
                              0.091015     0.000001
                              0.040174    -0.000000
                              0.017215     0.000000
   15.1 A     1  2px   52575799.000000    -0.000022
                       15301659.000000    -0.000028
                        4822461.600000    -0.000083
                        1632045.600000    -0.000160
                         584338.640000    -0.000364
                         219508.320000    -0.000777
                          86085.039000    -0.001750
                          35172.956000    -0.003994
                          14975.745000    -0.009414
                           6652.821900    -0.022406
                           3084.270200    -0.052818
                           1489.211300    -0.116759
                            745.288670    -0.223675
                            384.521300    -0.322294
                            203.927220    -0.236594
                            110.523340     0.144783
                             61.345569     0.527162
                             34.404375     0.400928
                             19.094147     0.019444
                             10.684628    -0.122698
                              5.931463    -0.050980
                              3.230992    -0.002723
                              1.730655     0.002233
                              0.869483     0.000423
                              0.440589     0.000084
                              0.215859     0.000019
                              0.091015     0.000006
                              0.040174    -0.000002
                              0.017215     0.000001
   16.1 A     1  2py   52575799.000000    -0.000022
                       15301659.000000    -0.000028
                        4822461.600000    -0.000083
                        1632045.600000    -0.000160
                         584338.640000    -0.000364
                         219508.320000    -0.000777
                          86085.039000    -0.001750
                          35172.956000    -0.003994
                          14975.745000    -0.009414
                           6652.821900    -0.022406
                           3084.270200    -0.052818
                           1489.211300    -0.116759
                            745.288670    -0.223675
                            384.521300    -0.322294
                            203.927220    -0.236594
                            110.523340     0.144783
                             61.345569     0.527162
                             34.404375     0.400928
                             19.094147     0.019444
                             10.684628    -0.122698
                              5.931463    -0.050980
                              3.230992    -0.002723
                              1.730655     0.002233
                              0.869483     0.000423
                              0.440589     0.000084
                              0.215859     0.000019
                              0.091015     0.000006
                              0.040174    -0.000002
                              0.017215     0.000001
   17.1 A     1  2pz   52575799.000000    -0.000022
                       15301659.000000    -0.000028
                        4822461.600000    -0.000083
                        1632045.600000    -0.000160
                         584338.640000    -0.000364
                         219508.320000    -0.000777
                          86085.039000    -0.001750
                          35172.956000    -0.003994
                          14975.745000    -0.009414
                           6652.821900    -0.022406
                           3084.270200    -0.052818
                           1489.211300    -0.116759
                            745.288670    -0.223675
                            384.521300    -0.322294
                            203.927220    -0.236594
                            110.523340     0.144783
                             61.345569     0.527162
                             34.404375     0.400928
                             19.094147     0.019444
                             10.684628    -0.122698
                              5.931463    -0.050980
                              3.230992    -0.002723
                              1.730655     0.002233
                              0.869483     0.000423
                              0.440589     0.000084
                              0.215859     0.000019
                              0.091015     0.000006
                              0.040174    -0.000002
                              0.017215     0.000001
   18.1 A     1  2px   52575799.000000     0.000003
                       15301659.000000     0.000003
                        4822461.600000     0.000010
                        1632045.600000     0.000019
                         584338.640000     0.000042
                         219508.320000     0.000091
                          86085.039000     0.000206
                          35172.956000     0.000473
                          14975.745000     0.001130
                           6652.821900     0.002740
                           3084.270200     0.006653
                           1489.211300     0.015378
                            745.288670     0.031242
                            384.521300     0.047227
                            203.927220     0.017912
                            110.523340    -0.122974
                             61.345569    -0.327410
                             34.404375    -0.190189
                             19.094147     0.365250
                             10.684628     0.614511
                              5.931463     0.253732
                              3.230992     0.025246
                              1.730655     0.001447
                              0.869483    -0.000191
                              0.440589     0.000177
                              0.215859    -0.000001
                              0.091015     0.000034
                              0.040174    -0.000010
                              0.017215     0.000003
   19.1 A     1  2py   52575799.000000     0.000003
                       15301659.000000     0.000003
                        4822461.600000     0.000010
                        1632045.600000     0.000019
                         584338.640000     0.000042
                         219508.320000     0.000091
                          86085.039000     0.000206
                          35172.956000     0.000473
                          14975.745000     0.001130
                           6652.821900     0.002740
                           3084.270200     0.006653
                           1489.211300     0.015378
                            745.288670     0.031242
                            384.521300     0.047227
                            203.927220     0.017912
                            110.523340    -0.122974
                             61.345569    -0.327410
                             34.404375    -0.190189
                             19.094147     0.365250
                             10.684628     0.614511
                              5.931463     0.253732
                              3.230992     0.025246
                              1.730655     0.001447
                              0.869483    -0.000191
                              0.440589     0.000177
                              0.215859    -0.000001
                              0.091015     0.000034
                              0.040174    -0.000010
                              0.017215     0.000003
   20.1 A     1  2pz   52575799.000000     0.000003
                       15301659.000000     0.000003
                        4822461.600000     0.000010
                        1632045.600000     0.000019
                         584338.640000     0.000042
                         219508.320000     0.000091
                          86085.039000     0.000206
                          35172.956000     0.000473
                          14975.745000     0.001130
                           6652.821900     0.002740
                           3084.270200     0.006653
                           1489.211300     0.015378
                            745.288670     0.031242
                            384.521300     0.047227
                            203.927220     0.017912
                            110.523340    -0.122974
                             61.345569    -0.327410
                             34.404375    -0.190189
                             19.094147     0.365250
                             10.684628     0.614511
                              5.931463     0.253732
                              3.230992     0.025246
                              1.730655     0.001447
                              0.869483    -0.000191
                              0.440589     0.000177
                              0.215859    -0.000001
                              0.091015     0.000034
                              0.040174    -0.000010
                              0.017215     0.000003
   21.1 A     1  2px   52575799.000000    -0.000003
                       15301659.000000    -0.000004
                        4822461.600000    -0.000012
                        1632045.600000    -0.000022
                         584338.640000    -0.000051
                         219508.320000    -0.000109
                          86085.039000    -0.000246
                          35172.956000    -0.000564
                          14975.745000    -0.001337
                           6652.821900    -0.003210
                           3084.270200    -0.007664
                           1489.211300    -0.017293
                            745.288670    -0.034038
                            384.521300    -0.050240
                            203.927220    -0.027775
                            110.523340     0.078055
                             61.345569     0.225234
                             34.404375     0.124107
                             19.094147    -0.273398
                             10.684628    -0.553848
                              5.931463    -0.065400
                              3.230992     0.618467
                              1.730655     0.501115
                              0.869483     0.107385
                              0.440589     0.023200
                              0.215859     0.014696
                              0.091015     0.001512
                              0.040174     0.000132
                              0.017215    -0.000015
   22.1 A     1  2py   52575799.000000    -0.000003
                       15301659.000000    -0.000004
                        4822461.600000    -0.000012
                        1632045.600000    -0.000022
                         584338.640000    -0.000051
                         219508.320000    -0.000109
                          86085.039000    -0.000246
                          35172.956000    -0.000564
                          14975.745000    -0.001337
                           6652.821900    -0.003210
                           3084.270200    -0.007664
                           1489.211300    -0.017293
                            745.288670    -0.034038
                            384.521300    -0.050240
                            203.927220    -0.027775
                            110.523340     0.078055
                             61.345569     0.225234
                             34.404375     0.124107
                             19.094147    -0.273398
                             10.684628    -0.553848
                              5.931463    -0.065400
                              3.230992     0.618467
                              1.730655     0.501115
                              0.869483     0.107385
                              0.440589     0.023200
                              0.215859     0.014696
                              0.091015     0.001512
                              0.040174     0.000132
                              0.017215    -0.000015
   23.1 A     1  2pz   52575799.000000    -0.000003
                       15301659.000000    -0.000004
                        4822461.600000    -0.000012
                        1632045.600000    -0.000022
                         584338.640000    -0.000051
                         219508.320000    -0.000109
                          86085.039000    -0.000246
                          35172.956000    -0.000564
                          14975.745000    -0.001337
                           6652.821900    -0.003210
                           3084.270200    -0.007664
                           1489.211300    -0.017293
                            745.288670    -0.034038
                            384.521300    -0.050240
                            203.927220    -0.027775
                            110.523340     0.078055
                             61.345569     0.225234
                             34.404375     0.124107
                             19.094147    -0.273398
                             10.684628    -0.553848
                              5.931463    -0.065400
                              3.230992     0.618467
                              1.730655     0.501115
                              0.869483     0.107385
                              0.440589     0.023200
                              0.215859     0.014696
                              0.091015     0.001512
                              0.040174     0.000132
                              0.017215    -0.000015
   24.1 A     1  2px   52575799.000000     0.000001
                       15301659.000000     0.000002
                        4822461.600000     0.000005
                        1632045.600000     0.000010
                         584338.640000     0.000023
                         219508.320000     0.000049
                          86085.039000     0.000110
                          35172.956000     0.000253
                          14975.745000     0.000599
                           6652.821900     0.001437
                           3084.270200     0.003431
                           1489.211300     0.007737
                            745.288670     0.015236
                            384.521300     0.022464
                            203.927220     0.012457
                            110.523340    -0.035118
                             61.345569    -0.101380
                             34.404375    -0.055130
                             19.094147     0.131575
                             10.684628     0.274246
                              5.931463     0.008755
                              3.230992    -0.421565
                              1.730655    -0.381951
                              0.869483     0.226110
                              0.440589     0.602109
                              0.215859     0.367310
                              0.091015     0.055992
                              0.040174    -0.001133
                              0.017215     0.001123
   25.1 A     1  2py   52575799.000000     0.000001
                       15301659.000000     0.000002
                        4822461.600000     0.000005
                        1632045.600000     0.000010
                         584338.640000     0.000023
                         219508.320000     0.000049
                          86085.039000     0.000110
                          35172.956000     0.000253
                          14975.745000     0.000599
                           6652.821900     0.001437
                           3084.270200     0.003431
                           1489.211300     0.007737
                            745.288670     0.015236
                            384.521300     0.022464
                            203.927220     0.012457
                            110.523340    -0.035118
                             61.345569    -0.101380
                             34.404375    -0.055130
                             19.094147     0.131575
                             10.684628     0.274246
                              5.931463     0.008755
                              3.230992    -0.421565
                              1.730655    -0.381951
                              0.869483     0.226110
                              0.440589     0.602109
                              0.215859     0.367310
                              0.091015     0.055992
                              0.040174    -0.001133
                              0.017215     0.001123
   26.1 A     1  2pz   52575799.000000     0.000001
                       15301659.000000     0.000002
                        4822461.600000     0.000005
                        1632045.600000     0.000010
                         584338.640000     0.000023
                         219508.320000     0.000049
                          86085.039000     0.000110
                          35172.956000     0.000253
                          14975.745000     0.000599
                           6652.821900     0.001437
                           3084.270200     0.003431
                           1489.211300     0.007737
                            745.288670     0.015236
                            384.521300     0.022464
                            203.927220     0.012457
                            110.523340    -0.035118
                             61.345569    -0.101380
                             34.404375    -0.055130
                             19.094147     0.131575
                             10.684628     0.274246
                              5.931463     0.008755
                              3.230992    -0.421565
                              1.730655    -0.381951
                              0.869483     0.226110
                              0.440589     0.602109
                              0.215859     0.367310
                              0.091015     0.055992
                              0.040174    -0.001133
                              0.017215     0.001123
   27.1 A     1  2px   52575799.000000    -0.000000
                       15301659.000000    -0.000000
                        4822461.600000    -0.000001
                        1632045.600000    -0.000002
                         584338.640000    -0.000005
                         219508.320000    -0.000012
                          86085.039000    -0.000026
                          35172.956000    -0.000061
                          14975.745000    -0.000144
                           6652.821900    -0.000345
                           3084.270200    -0.000824
                           1489.211300    -0.001857
                            745.288670    -0.003658
                            384.521300    -0.005392
                            203.927220    -0.002989
                            110.523340     0.008470
                             61.345569     0.024432
                             34.404375     0.013266
                             19.094147    -0.032261
                             10.684628    -0.067372
                              5.931463    -0.001388
                              3.230992     0.110496
                              1.730655     0.103163
                              0.869483    -0.077537
                              0.440589    -0.217553
                              0.215859    -0.188949
                              0.091015     0.201050
                              0.040174     0.638180
                              0.017215     0.325623
   28.1 A     1  2py   52575799.000000    -0.000000
                       15301659.000000    -0.000000
                        4822461.600000    -0.000001
                        1632045.600000    -0.000002
                         584338.640000    -0.000005
                         219508.320000    -0.000012
                          86085.039000    -0.000026
                          35172.956000    -0.000061
                          14975.745000    -0.000144
                           6652.821900    -0.000345
                           3084.270200    -0.000824
                           1489.211300    -0.001857
                            745.288670    -0.003658
                            384.521300    -0.005392
                            203.927220    -0.002989
                            110.523340     0.008470
                             61.345569     0.024432
                             34.404375     0.013266
                             19.094147    -0.032261
                             10.684628    -0.067372
                              5.931463    -0.001388
                              3.230992     0.110496
                              1.730655     0.103163
                              0.869483    -0.077537
                              0.440589    -0.217553
                              0.215859    -0.188949
                              0.091015     0.201050
                              0.040174     0.638180
                              0.017215     0.325623
   29.1 A     1  2pz   52575799.000000    -0.000000
                       15301659.000000    -0.000000
                        4822461.600000    -0.000001
                        1632045.600000    -0.000002
                         584338.640000    -0.000005
                         219508.320000    -0.000012
                          86085.039000    -0.000026
                          35172.956000    -0.000061
                          14975.745000    -0.000144
                           6652.821900    -0.000345
                           3084.270200    -0.000824
                           1489.211300    -0.001857
                            745.288670    -0.003658
                            384.521300    -0.005392
                            203.927220    -0.002989
                            110.523340     0.008470
                             61.345569     0.024432
                             34.404375     0.013266
                             19.094147    -0.032261
                             10.684628    -0.067372
                              5.931463    -0.001388
                              3.230992     0.110496
                              1.730655     0.103163
                              0.869483    -0.077537
                              0.440589    -0.217553
                              0.215859    -0.188949
                              0.091015     0.201050
                              0.040174     0.638180
                              0.017215     0.325623
   30.1 A     1  2px   52575799.000000    -0.000001
                       15301659.000000    -0.000001
                        4822461.600000    -0.000003
                        1632045.600000    -0.000007
                         584338.640000    -0.000015
                         219508.320000    -0.000032
                          86085.039000    -0.000072
                          35172.956000    -0.000164
                          14975.745000    -0.000389
                           6652.821900    -0.000935
                           3084.270200    -0.002229
                           1489.211300    -0.005039
                            745.288670    -0.009894
                            384.521300    -0.014658
                            203.927220    -0.007979
                            110.523340     0.022762
                             61.345569     0.067088
                             34.404375     0.034676
                             19.094147    -0.086637
                             10.684628    -0.190694
                              5.931463     0.011165
                              3.230992     0.295554
                              1.730655     0.357960
                              0.869483    -0.483733
                              0.440589    -0.603813
                              0.215859     0.216450
                              0.091015     0.715516
                              0.040174     0.271379
                              0.017215     0.004110
   31.1 A     1  2py   52575799.000000    -0.000001
                       15301659.000000    -0.000001
                        4822461.600000    -0.000003
                        1632045.600000    -0.000007
                         584338.640000    -0.000015
                         219508.320000    -0.000032
                          86085.039000    -0.000072
                          35172.956000    -0.000164
                          14975.745000    -0.000389
                           6652.821900    -0.000935
                           3084.270200    -0.002229
                           1489.211300    -0.005039
                            745.288670    -0.009894
                            384.521300    -0.014658
                            203.927220    -0.007979
                            110.523340     0.022762
                             61.345569     0.067088
                             34.404375     0.034676
                             19.094147    -0.086637
                             10.684628    -0.190694
                              5.931463     0.011165
                              3.230992     0.295554
                              1.730655     0.357960
                              0.869483    -0.483733
                              0.440589    -0.603813
                              0.215859     0.216450
                              0.091015     0.715516
                              0.040174     0.271379
                              0.017215     0.004110
   32.1 A     1  2pz   52575799.000000    -0.000001
                       15301659.000000    -0.000001
                        4822461.600000    -0.000003
                        1632045.600000    -0.000007
                         584338.640000    -0.000015
                         219508.320000    -0.000032
                          86085.039000    -0.000072
                          35172.956000    -0.000164
                          14975.745000    -0.000389
                           6652.821900    -0.000935
                           3084.270200    -0.002229
                           1489.211300    -0.005039
                            745.288670    -0.009894
                            384.521300    -0.014658
                            203.927220    -0.007979
                            110.523340     0.022762
                             61.345569     0.067088
                             34.404375     0.034676
                             19.094147    -0.086637
                             10.684628    -0.190694
                              5.931463     0.011165
                              3.230992     0.295554
                              1.730655     0.357960
                              0.869483    -0.483733
                              0.440589    -0.603813
                              0.215859     0.216450
                              0.091015     0.715516
                              0.040174     0.271379
                              0.017215     0.004110
   33.1 A     1  2px   52575799.000000    -0.000002
                       15301659.000000    -0.000002
                        4822461.600000    -0.000006
                        1632045.600000    -0.000011
                         584338.640000    -0.000025
                         219508.320000    -0.000053
                          86085.039000    -0.000120
                          35172.956000    -0.000276
                          14975.745000    -0.000654
                           6652.821900    -0.001571
                           3084.270200    -0.003746
                           1489.211300    -0.008467
                            745.288670    -0.016630
                            384.521300    -0.024639
                            203.927220    -0.013376
                            110.523340     0.038624
                             61.345569     0.114098
                             34.404375     0.057529
                             19.094147    -0.152711
                             10.684628    -0.335337
                              5.931463     0.054060
                              3.230992     0.556644
                              1.730655     0.705623
                              0.869483    -1.835960
                              0.440589    -0.011551
                              0.215859     1.665810
                              0.091015    -0.586030
                              0.040174    -0.540877
                              0.017215     0.007337
   34.1 A     1  2py   52575799.000000    -0.000002
                       15301659.000000    -0.000002
                        4822461.600000    -0.000006
                        1632045.600000    -0.000011
                         584338.640000    -0.000025
                         219508.320000    -0.000053
                          86085.039000    -0.000120
                          35172.956000    -0.000276
                          14975.745000    -0.000654
                           6652.821900    -0.001571
                           3084.270200    -0.003746
                           1489.211300    -0.008467
                            745.288670    -0.016630
                            384.521300    -0.024639
                            203.927220    -0.013376
                            110.523340     0.038624
                             61.345569     0.114098
                             34.404375     0.057529
                             19.094147    -0.152711
                             10.684628    -0.335337
                              5.931463     0.054060
                              3.230992     0.556644
                              1.730655     0.705623
                              0.869483    -1.835960
                              0.440589    -0.011551
                              0.215859     1.665810
                              0.091015    -0.586030
                              0.040174    -0.540877
                              0.017215     0.007337
   35.1 A     1  2pz   52575799.000000    -0.000002
                       15301659.000000    -0.000002
                        4822461.600000    -0.000006
                        1632045.600000    -0.000011
                         584338.640000    -0.000025
                         219508.320000    -0.000053
                          86085.039000    -0.000120
                          35172.956000    -0.000276
                          14975.745000    -0.000654
                           6652.821900    -0.001571
                           3084.270200    -0.003746
                           1489.211300    -0.008467
                            745.288670    -0.016630
                            384.521300    -0.024639
                            203.927220    -0.013376
                            110.523340     0.038624
                             61.345569     0.114098
                             34.404375     0.057529
                             19.094147    -0.152711
                             10.684628    -0.335337
                              5.931463     0.054060
                              3.230992     0.556644
                              1.730655     0.705623
                              0.869483    -1.835960
                              0.440589    -0.011551
                              0.215859     1.665810
                              0.091015    -0.586030
                              0.040174    -0.540877
                              0.017215     0.007337
   36.1 A     1  2px   52575799.000000    -0.000002
                       15301659.000000    -0.000003
                        4822461.600000    -0.000008
                        1632045.600000    -0.000015
                         584338.640000    -0.000035
                         219508.320000    -0.000074
                          86085.039000    -0.000170
                          35172.956000    -0.000379
                          14975.745000    -0.000932
                           6652.821900    -0.002134
                           3084.270200    -0.005403
                           1489.211300    -0.011344
                            745.288670    -0.024550
                            384.521300    -0.031081
                            203.927220    -0.026696
                            110.523340     0.074398
                             61.345569     0.122627
                             34.404375     0.158172
                             19.094147    -0.396719
                             10.684628    -0.217338
                              5.931463    -0.310675
                              3.230992     1.976280
                              1.730655    -0.902813
                              0.869483    -2.796330
                              0.440589     4.377620
                              0.215859    -2.313900
                              0.091015    -0.327368
                              0.040174     0.867468
                              0.017215    -0.037484
   37.1 A     1  2py   52575799.000000    -0.000002
                       15301659.000000    -0.000003
                        4822461.600000    -0.000008
                        1632045.600000    -0.000015
                         584338.640000    -0.000035
                         219508.320000    -0.000074
                          86085.039000    -0.000170
                          35172.956000    -0.000379
                          14975.745000    -0.000932
                           6652.821900    -0.002134
                           3084.270200    -0.005403
                           1489.211300    -0.011344
                            745.288670    -0.024550
                            384.521300    -0.031081
                            203.927220    -0.026696
                            110.523340     0.074398
                             61.345569     0.122627
                             34.404375     0.158172
                             19.094147    -0.396719
                             10.684628    -0.217338
                              5.931463    -0.310675
                              3.230992     1.976280
                              1.730655    -0.902813
                              0.869483    -2.796330
                              0.440589     4.377620
                              0.215859    -2.313900
                              0.091015    -0.327368
                              0.040174     0.867468
                              0.017215    -0.037484
   38.1 A     1  2pz   52575799.000000    -0.000002
                       15301659.000000    -0.000003
                        4822461.600000    -0.000008
                        1632045.600000    -0.000015
                         584338.640000    -0.000035
                         219508.320000    -0.000074
                          86085.039000    -0.000170
                          35172.956000    -0.000379
                          14975.745000    -0.000932
                           6652.821900    -0.002134
                           3084.270200    -0.005403
                           1489.211300    -0.011344
                            745.288670    -0.024550
                            384.521300    -0.031081
                            203.927220    -0.026696
                            110.523340     0.074398
                             61.345569     0.122627
                             34.404375     0.158172
                             19.094147    -0.396719
                             10.684628    -0.217338
                              5.931463    -0.310675
                              3.230992     1.976280
                              1.730655    -0.902813
                              0.869483    -2.796330
                              0.440589     4.377620
                              0.215859    -2.313900
                              0.091015    -0.327368
                              0.040174     0.867468
                              0.017215    -0.037484
   39.1 A     1  2px   52575799.000000     0.000000
                       15301659.000000     0.000000
                        4822461.600000     0.000000
                        1632045.600000     0.000000
                         584338.640000     0.000000
                         219508.320000     0.000000
                          86085.039000     0.000000
                          35172.956000     0.000000
                          14975.745000     0.000000
                           6652.821900     0.000000
                           3084.270200     0.000000
                           1489.211300     0.000000
                            745.288670     0.000000
                            384.521300     0.000000
                            203.927220     0.000000
                            110.523340     0.000000
                             61.345569     0.000000
                             34.404375     0.000000
                             19.094147     0.000000
                             10.684628     0.000000
                              5.931463     0.000000
                              3.230992     0.000000
                              1.730655     0.000000
                              0.869483     0.000000
                              0.440589     0.000000
                              0.215859     0.000000
                              0.091015     0.000000
                              0.040174     0.000000
                              0.017215     1.000000
   40.1 A     1  2py   52575799.000000     0.000000
                       15301659.000000     0.000000
                        4822461.600000     0.000000
                        1632045.600000     0.000000
                         584338.640000     0.000000
                         219508.320000     0.000000
                          86085.039000     0.000000
                          35172.956000     0.000000
                          14975.745000     0.000000
                           6652.821900     0.000000
                           3084.270200     0.000000
                           1489.211300     0.000000
                            745.288670     0.000000
                            384.521300     0.000000
                            203.927220     0.000000
                            110.523340     0.000000
                             61.345569     0.000000
                             34.404375     0.000000
                             19.094147     0.000000
                             10.684628     0.000000
                              5.931463     0.000000
                              3.230992     0.000000
                              1.730655     0.000000
                              0.869483     0.000000
                              0.440589     0.000000
                              0.215859     0.000000
                              0.091015     0.000000
                              0.040174     0.000000
                              0.017215     1.000000
   41.1 A     1  2pz   52575799.000000     0.000000
                       15301659.000000     0.000000
                        4822461.600000     0.000000
                        1632045.600000     0.000000
                         584338.640000     0.000000
                         219508.320000     0.000000
                          86085.039000     0.000000
                          35172.956000     0.000000
                          14975.745000     0.000000
                           6652.821900     0.000000
                           3084.270200     0.000000
                           1489.211300     0.000000
                            745.288670     0.000000
                            384.521300     0.000000
                            203.927220     0.000000
                            110.523340     0.000000
                             61.345569     0.000000
                             34.404375     0.000000
                             19.094147     0.000000
                             10.684628     0.000000
                              5.931463     0.000000
                              3.230992     0.000000
                              1.730655     0.000000
                              0.869483     0.000000
                              0.440589     0.000000
                              0.215859     0.000000
                              0.091015     0.000000
                              0.040174     0.000000
                              0.017215     1.000000
   42.1 A     1  3d0     105911.200000     0.000022
                          24974.572000     0.000139
                           8108.852700     0.000701
                           3150.520500     0.003089
                           1380.647900     0.011984
                            658.188950     0.039719
                            332.909040     0.108866
                            176.023220     0.231711
                             95.780704     0.354943
                             53.337287     0.336108
                             29.864821     0.140614
                             16.526778    -0.033753
                              9.155323    -0.064060
                              4.984876    -0.024103
                              2.636633    -0.002234
                              1.354062     0.000305
                              0.656031     0.000103
                              0.269853     0.000008
                              0.103443     0.000000
                              0.036685     0.000000
   43.1 A     1  3d2-    105911.200000     0.000022
                          24974.572000     0.000139
                           8108.852700     0.000701
                           3150.520500     0.003089
                           1380.647900     0.011984
                            658.188950     0.039719
                            332.909040     0.108866
                            176.023220     0.231711
                             95.780704     0.354943
                             53.337287     0.336108
                             29.864821     0.140614
                             16.526778    -0.033753
                              9.155323    -0.064060
                              4.984876    -0.024103
                              2.636633    -0.002234
                              1.354062     0.000305
                              0.656031     0.000103
                              0.269853     0.000008
                              0.103443     0.000000
                              0.036685     0.000000
   44.1 A     1  3d1+    105911.200000     0.000022
                          24974.572000     0.000139
                           8108.852700     0.000701
                           3150.520500     0.003089
                           1380.647900     0.011984
                            658.188950     0.039719
                            332.909040     0.108866
                            176.023220     0.231711
                             95.780704     0.354943
                             53.337287     0.336108
                             29.864821     0.140614
                             16.526778    -0.033753
                              9.155323    -0.064060
                              4.984876    -0.024103
                              2.636633    -0.002234
                              1.354062     0.000305
                              0.656031     0.000103
                              0.269853     0.000008
                              0.103443     0.000000
                              0.036685     0.000000
   45.1 A     1  3d2+    105911.200000     0.000022
                          24974.572000     0.000139
                           8108.852700     0.000701
                           3150.520500     0.003089
                           1380.647900     0.011984
                            658.188950     0.039719
                            332.909040     0.108866
                            176.023220     0.231711
                             95.780704     0.354943
                             53.337287     0.336108
                             29.864821     0.140614
                             16.526778    -0.033753
                              9.155323    -0.064060
                              4.984876    -0.024103
                              2.636633    -0.002234
                              1.354062     0.000305
                              0.656031     0.000103
                              0.269853     0.000008
                              0.103443     0.000000
                              0.036685     0.000000
   46.1 A     1  3d1-    105911.200000     0.000022
                          24974.572000     0.000139
                           8108.852700     0.000701
                           3150.520500     0.003089
                           1380.647900     0.011984
                            658.188950     0.039719
                            332.909040     0.108866
                            176.023220     0.231711
                             95.780704     0.354943
                             53.337287     0.336108
                             29.864821     0.140614
                             16.526778    -0.033753
                              9.155323    -0.064060
                              4.984876    -0.024103
                              2.636633    -0.002234
                              1.354062     0.000305
                              0.656031     0.000103
                              0.269853     0.000008
                              0.103443     0.000000
                              0.036685     0.000000
   47.1 A     1  3d0     105911.200000    -0.000008
                          24974.572000    -0.000050
                           8108.852700    -0.000255
                           3150.520500    -0.001125
                           1380.647900    -0.004414
                            658.188950    -0.014783
                            332.909040    -0.041535
                            176.023220    -0.089246
                             95.780704    -0.132347
                             53.337287    -0.078124
                             29.864821     0.163122
                             16.526778     0.427754
                              9.155323     0.404335
                              4.984876     0.149854
                              2.636633     0.013530
                              1.354062    -0.001244
                              0.656031    -0.000625
                              0.269853    -0.000007
                              0.103443    -0.000015
                              0.036685     0.000003
   48.1 A     1  3d2-    105911.200000    -0.000008
                          24974.572000    -0.000050
                           8108.852700    -0.000255
                           3150.520500    -0.001125
                           1380.647900    -0.004414
                            658.188950    -0.014783
                            332.909040    -0.041535
                            176.023220    -0.089246
                             95.780704    -0.132347
                             53.337287    -0.078124
                             29.864821     0.163122
                             16.526778     0.427754
                              9.155323     0.404335
                              4.984876     0.149854
                              2.636633     0.013530
                              1.354062    -0.001244
                              0.656031    -0.000625
                              0.269853    -0.000007
                              0.103443    -0.000015
                              0.036685     0.000003
   49.1 A     1  3d1+    105911.200000    -0.000008
                          24974.572000    -0.000050
                           8108.852700    -0.000255
                           3150.520500    -0.001125
                           1380.647900    -0.004414
                            658.188950    -0.014783
                            332.909040    -0.041535
                            176.023220    -0.089246
                             95.780704    -0.132347
                             53.337287    -0.078124
                             29.864821     0.163122
                             16.526778     0.427754
                              9.155323     0.404335
                              4.984876     0.149854
                              2.636633     0.013530
                              1.354062    -0.001244
                              0.656031    -0.000625
                              0.269853    -0.000007
                              0.103443    -0.000015
                              0.036685     0.000003
   50.1 A     1  3d2+    105911.200000    -0.000008
                          24974.572000    -0.000050
                           8108.852700    -0.000255
                           3150.520500    -0.001125
                           1380.647900    -0.004414
                            658.188950    -0.014783
                            332.909040    -0.041535
                            176.023220    -0.089246
                             95.780704    -0.132347
                             53.337287    -0.078124
                             29.864821     0.163122
                             16.526778     0.427754
                              9.155323     0.404335
                              4.984876     0.149854
                              2.636633     0.013530
                              1.354062    -0.001244
                              0.656031    -0.000625
                              0.269853    -0.000007
                              0.103443    -0.000015
                              0.036685     0.000003
   51.1 A     1  3d1-    105911.200000    -0.000008
                          24974.572000    -0.000050
                           8108.852700    -0.000255
                           3150.520500    -0.001125
                           1380.647900    -0.004414
                            658.188950    -0.014783
                            332.909040    -0.041535
                            176.023220    -0.089246
                             95.780704    -0.132347
                             53.337287    -0.078124
                             29.864821     0.163122
                             16.526778     0.427754
                              9.155323     0.404335
                              4.984876     0.149854
                              2.636633     0.013530
                              1.354062    -0.001244
                              0.656031    -0.000625
                              0.269853    -0.000007
                              0.103443    -0.000015
                              0.036685     0.000003
   52.1 A     1  3d0     105911.200000     0.000005
                          24974.572000     0.000031
                           8108.852700     0.000156
                           3150.520500     0.000688
                           1380.647900     0.002701
                            658.188950     0.009017
                            332.909040     0.025307
                            176.023220     0.054170
                             95.780704     0.081016
                             53.337287     0.048863
                             29.864821    -0.090253
                             16.526778    -0.246108
                              9.155323    -0.206252
                              4.984876     0.172281
                              2.636633     0.505499
                              1.354062     0.395618
                              0.656031     0.111498
                              0.269853     0.006248
                              0.103443    -0.000028
                              0.036685    -0.000036
   53.1 A     1  3d2-    105911.200000     0.000005
                          24974.572000     0.000031
                           8108.852700     0.000156
                           3150.520500     0.000688
                           1380.647900     0.002701
                            658.188950     0.009017
                            332.909040     0.025307
                            176.023220     0.054170
                             95.780704     0.081016
                             53.337287     0.048863
                             29.864821    -0.090253
                             16.526778    -0.246108
                              9.155323    -0.206252
                              4.984876     0.172281
                              2.636633     0.505499
                              1.354062     0.395618
                              0.656031     0.111498
                              0.269853     0.006248
                              0.103443    -0.000028
                              0.036685    -0.000036
   54.1 A     1  3d1+    105911.200000     0.000005
                          24974.572000     0.000031
                           8108.852700     0.000156
                           3150.520500     0.000688
                           1380.647900     0.002701
                            658.188950     0.009017
                            332.909040     0.025307
                            176.023220     0.054170
                             95.780704     0.081016
                             53.337287     0.048863
                             29.864821    -0.090253
                             16.526778    -0.246108
                              9.155323    -0.206252
                              4.984876     0.172281
                              2.636633     0.505499
                              1.354062     0.395618
                              0.656031     0.111498
                              0.269853     0.006248
                              0.103443    -0.000028
                              0.036685    -0.000036
   55.1 A     1  3d2+    105911.200000     0.000005
                          24974.572000     0.000031
                           8108.852700     0.000156
                           3150.520500     0.000688
                           1380.647900     0.002701
                            658.188950     0.009017
                            332.909040     0.025307
                            176.023220     0.054170
                             95.780704     0.081016
                             53.337287     0.048863
                             29.864821    -0.090253
                             16.526778    -0.246108
                              9.155323    -0.206252
                              4.984876     0.172281
                              2.636633     0.505499
                              1.354062     0.395618
                              0.656031     0.111498
                              0.269853     0.006248
                              0.103443    -0.000028
                              0.036685    -0.000036
   56.1 A     1  3d1-    105911.200000     0.000005
                          24974.572000     0.000031
                           8108.852700     0.000156
                           3150.520500     0.000688
                           1380.647900     0.002701
                            658.188950     0.009017
                            332.909040     0.025307
                            176.023220     0.054170
                             95.780704     0.081016
                             53.337287     0.048863
                             29.864821    -0.090253
                             16.526778    -0.246108
                              9.155323    -0.206252
                              4.984876     0.172281
                              2.636633     0.505499
                              1.354062     0.395618
                              0.656031     0.111498
                              0.269853     0.006248
                              0.103443    -0.000028
                              0.036685    -0.000036
   57.1 A     1  3d0     105911.200000    -0.000001
                          24974.572000    -0.000009
                           8108.852700    -0.000043
                           3150.520500    -0.000191
                           1380.647900    -0.000748
                            658.188950    -0.002504
                            332.909040    -0.007015
                            176.023220    -0.015060
                             95.780704    -0.022418
                             53.337287    -0.013379
                             29.864821     0.026549
                             16.526778     0.070488
                              9.155323     0.058301
                              4.984876    -0.065821
                              2.636633    -0.177452
                              1.354062    -0.127087
                              0.656031     0.181724
                              0.269853     0.495430
                              0.103443     0.447107
                              0.036685     0.116435
   58.1 A     1  3d2-    105911.200000    -0.000001
                          24974.572000    -0.000009
                           8108.852700    -0.000043
                           3150.520500    -0.000191
                           1380.647900    -0.000748
                            658.188950    -0.002504
                            332.909040    -0.007015
                            176.023220    -0.015060
                             95.780704    -0.022418
                             53.337287    -0.013379
                             29.864821     0.026549
                             16.526778     0.070488
                              9.155323     0.058301
                              4.984876    -0.065821
                              2.636633    -0.177452
                              1.354062    -0.127087
                              0.656031     0.181724
                              0.269853     0.495430
                              0.103443     0.447107
                              0.036685     0.116435
   59.1 A     1  3d1+    105911.200000    -0.000001
                          24974.572000    -0.000009
                           8108.852700    -0.000043
                           3150.520500    -0.000191
                           1380.647900    -0.000748
                            658.188950    -0.002504
                            332.909040    -0.007015
                            176.023220    -0.015060
                             95.780704    -0.022418
                             53.337287    -0.013379
                             29.864821     0.026549
                             16.526778     0.070488
                              9.155323     0.058301
                              4.984876    -0.065821
                              2.636633    -0.177452
                              1.354062    -0.127087
                              0.656031     0.181724
                              0.269853     0.495430
                              0.103443     0.447107
                              0.036685     0.116435
   60.1 A     1  3d2+    105911.200000    -0.000001
                          24974.572000    -0.000009
                           8108.852700    -0.000043
                           3150.520500    -0.000191
                           1380.647900    -0.000748
                            658.188950    -0.002504
                            332.909040    -0.007015
                            176.023220    -0.015060
                             95.780704    -0.022418
                             53.337287    -0.013379
                             29.864821     0.026549
                             16.526778     0.070488
                              9.155323     0.058301
                              4.984876    -0.065821
                              2.636633    -0.177452
[...]
                                   10  1  py   0.34797   10  1  pz  -0.30051
   86.1     2.00000    -0.49635     4  1  px  -0.26388    4  1  pz   0.26006    6  1  px   0.27679    8  1  px   0.50275
                                    8  1  py  -0.40321   10  1  pz  -0.30194
   87.1     2.00000    -0.49623     6  1  py  -0.36006    8  1  px   0.26414    8  1  py   0.25044    8  1  pz   0.54083
                                   10  1  py   0.33313
   88.1     2.00000    -0.36683     2  4  px   0.36278    2  4  py   0.62312    2  4  pz  -0.51108
   89.1     2.00000    -0.33471     2  4  px  -0.55660    2  4  py   0.63859    2  4  pz   0.38359
   90.1     2.00000    -0.33449     2  4  px   0.64027    2  4  pz   0.65524
   91.1     0.00000     0.02012     1  4  s   -0.37562    1  5  s   -1.18696    1  6  s   -4.17845    1  7  s   -5.36296
                                    1 11  s    2.85651    1  5  px   0.55481    1  5  py   0.87184    1  5  pz  -0.70907
                                    1  6  px   1.37582    1  6  py   2.27176    1  6  pz  -1.85307    1 10  px  -0.75218
                                    1 10  py  -1.23796    1 10  pz   0.99834    2  8  s   -1.07065    2  7  py   0.32353
                                    2  7  pz  -0.26269    3  4  s    0.63077    4  5  s    0.71696    4  4  px   0.43342
                                    4  4  py  -0.37741    5  4  s    0.60271    6  5  s    0.69971    6  4  py   0.32908
                                    6  4  pz   0.46078    7  4  s    0.61637    8  5  s    2.10459    8  4  px   0.40003
                                    8  4  py   0.66524    8  4  pz  -0.54527    9  4  s    0.59626   10  5  s    0.64436
                                   10  4  px  -0.43460   10  4  pz  -0.29510
   92.1     0.00000     0.03270     1  5  px  -1.19632    1  5  pz  -1.00732    1  6  px  -2.37193    1  6  py  -0.33820
                                    1  6  pz  -1.99231    1  7  px  -0.41123    1  7  pz  -0.35014    1 10  px   2.22799
                                    1 10  py   0.28900    1 10  pz   1.88330    1  4  d1+ -0.28553    1  8  d1+  0.37982
                                    1  8  d2+  0.30986    2  7  px  -0.27978    2  7  pz  -0.25217    4  5  s   -0.81411
                                    4  4  py   0.48462    4  4  pz   0.52910    5  4  s    0.39626    6  5  s   -1.23152
                                    6  4  px   0.37707    6  4  py  -0.66481    6  4  pz  -0.47218   10  5  s    1.97506
                                   10  4  px  -1.11255   10  4  pz  -0.82721
   93.1     0.00000     0.03281     1  5  px   0.75978    1  5  py  -1.04125    1  5  pz  -0.77439    1  6  px   1.53865
                                    1  6  py  -2.11501    1  6  pz  -1.56047    1  7  py  -0.32640    1  7  pz  -0.25027
                                    1 10  px  -1.45172    1 10  py   2.00218    1 10  pz   1.44966    1  8  d0  -0.35512
                                    1  8  d2- -0.34049    2  7  py  -0.27945    3  4  s    0.33914    3  3  px  -0.27404
                                    4  5  s    1.71544    4  4  px   1.09158    4  4  py  -0.60234    6  5  s   -1.49076
                                    6  4  px  -0.37472    6  4  py  -0.63678    6  4  pz  -0.90945    7  4  s   -0.35083
                                   10  4  py   0.39745   10  4  pz   0.42374
   94.1     0.00000     0.03693     1  6  s   -0.49331    1  7  s   -0.96366    1  5  px   0.38656    1  5  py   0.83066
                                    1  5  pz  -0.68219    1  6  px   0.73114    1  6  py   1.64145    1  6  pz  -1.34985
                                    1  7  py   0.27039    1 10  px  -0.36611    1 10  py  -0.97337    1 10  pz   0.79906
                                    1  4  d2- -0.29846    1  4  d1-  0.40963    1  8  d2- -0.27213    1  8  d1+  0.27803
                                    1  8  d1-  0.37882    2  7  s   -0.43522    2  8  s    1.26003    3  4  s   -0.86143
                                    4  5  s   -0.49729    4  4  px  -0.48724    4  4  py   0.38989    5  4  s   -0.80217
                                    6  5  s   -0.46611    6  4  py  -0.35986    6  4  pz  -0.45173    7  4  s   -0.83174
                                    8  5  s    2.82223    8  3  py   0.25050    8  4  px   0.54879    8  4  py   0.90113
                                    8  4  pz  -0.74372    9  4  s    1.95319   10  5  s   -0.42544   10  4  px   0.44033
                                   10  4  pz   0.27666
   95.1     0.00000     0.05297     1  5  px   0.44870    1  5  py  -0.44656    1  7  px   0.63462    1  7  py  -0.60707
                                    1  7  pz  -0.37451    1 10  px   2.16727    1 10  py  -2.24525    1 10  pz  -1.24055
                                    1  8  d0   0.71513    1  8  d2-  0.72889    1  8  d1+  0.33351    1  8  d1-  0.38043
                                    2  7  px  -0.27157    2  7  py   0.27576    3  3  s    0.86828    3  4  s    3.89058
                                    4  3  px   0.25931    4  3  py  -0.25266    4  4  px   0.48855    4  4  py  -0.70710
                                    5  3  s   -0.25546    5  4  s   -1.27006    6  5  s   -0.27301    6  4  px   0.33753
                                    6  4  py  -0.36206    6  4  pz  -0.51730    7  3  s   -0.58781    7  4  s   -2.79880
                                   10  4  px   0.47316   10  4  py  -0.27189
   96.1     0.00000     0.05352     1  5  px  -0.43208    1  5  pz  -0.46589    1  7  px  -0.64641    1  7  py  -0.25891
                                    1  7  pz  -0.67339    1 10  px  -2.31002    1 10  py  -0.81630    1 10  pz  -2.59288
                                    1  8  d0   0.34598    1  8  d2- -0.25297    1  8  d1+ -0.66000    1  8  d2+ -0.64787
                                    1  8  d1-  0.42383    2  7  px   0.27490    2  7  pz   0.30415    3  4  s   -0.86707
                                    4  4  px  -0.34244    4  4  pz  -0.36294    5  3  s    0.90164    5  4  s    4.04094
                                    6  4  px  -0.29314    6  4  pz  -0.68009    7  3  s   -0.71155    7  4  s   -3.02533
                                   10  3  px  -0.31128   10  4  px  -0.74228   10  4  py  -0.30224   10  4  pz  -0.49606
   97.1     0.00000     0.06058     1  4  s    0.27043    1  5  s    0.86928    1  6  s    3.34300    1  7  s    4.99177
                                    1  8  s   -0.42772    1 11  s   -3.15509    1  6  px  -0.76671    1  6  py  -1.19266
                                    1  6  pz   0.97384    1  7  px   0.41791    1  7  py   0.74170    1  7  pz  -0.60259
                                    1 10  px   1.71559    1 10  py   2.77312    1 10  pz  -2.25686    2  5  s   -0.30590
                                    2  7  s    0.87121    2  8  s   -2.26790    2  7  py   0.34460    2  7  pz  -0.28452
                                    3  4  s   -0.56959    4  5  s   -0.98099    4  4  px  -0.34655    4  4  py   0.28604
                                    5  4  s   -0.55521    6  5  s   -0.96775    6  4  pz  -0.36807    7  4  s   -0.54188
                                    8  5  s   -2.07080    8  4  px   0.46871    8  4  py   0.66196    8  4  pz  -0.53372
                                    9  3  s    1.28930    9  4  s    3.90019   10  5  s   -0.96690   10  4  px   0.37053
   98.1     0.00000     0.06707     1  6  s    0.43754    1  7  s    0.33155    1  8  s    0.37817    1 11  s    6.75911
                                    1 10  px  -0.69354    1 10  py  -0.41494    1 10  pz   0.35862    1  4  d1-  0.32993
                                    1  2  f2+ -0.26827    2  8  s   -0.28589    3  3  s   -0.55946    3  4  s   -2.34199
                                    4  4  px  -0.36564    4  4  py   0.45768    5  3  s   -0.46229    5  4  s   -1.82126
                                    6  4  pz  -0.52563    7  3  s   -0.51348    7  4  s   -2.08289    8  5  s    0.69233
                                    9  3  s   -0.51830    9  4  s   -2.11480   10  4  px   0.44845
   99.1     0.00000     0.08330     1  5  s   -0.50598    1  6  s   -1.83088    1  7  s   -2.62324    1 11  s   11.73735
                                    1  4  py   0.33376    1  4  pz  -0.27329    1  5  px   1.24478    1  5  py   1.98162
                                    1  5  pz  -1.62266    1  6  px   4.43379    1  6  py   7.15307    1  6  pz  -5.84564
                                    1  7  px  -0.55870    1  7  py  -0.91162    1  7  pz   0.74038    1  8  py   0.26510
                                    1 10  px  -2.63791    1 10  py  -4.07707    1 10  pz   3.32270    1  4  d2-  0.33948
                                    1  4  d1+ -0.25549    1  4  d1- -0.48597    1  8  d2-  1.18587    1  8  d1+ -0.86747
                                    1  8  d2+ -0.64161    1  8  d1- -1.64312    1  6  f1-  0.32801    1  6  f0   0.36168
                                    1  6  f3+ -0.40487    1  6  f2- -0.45810    2  8  s   -7.67972    2  6  px   0.71013
                                    2  6  py   1.20443    2  6  pz  -0.98838    2  7  px   1.29102    2  7  py   2.21991
                                    2  7  pz  -1.82264    2  5  d2- -0.28734    2  5  d1-  0.40770    3  3  s   -0.62089
                                    3  4  s   -1.73257    4  5  s    1.95186    5  3  s   -0.49641    5  4  s   -1.63698
                                    6  5  s    1.81849    7  3  s   -0.56814    7  4  s   -1.70229    8  5  s    2.57491
                                    8  4  py   0.35768    8  4  pz  -0.30765    9  3  s   -0.32563    9  4  s   -4.20466
                                   10  5  s    1.63705
  100.1     0.00000     0.09236     1 11  s    0.40176    1  6  px   0.55861    1  6  py  -0.40416    1  6  pz  -0.39274
                                    1  4  d0   0.27285    1  4  d1+ -0.30299    1  4  d2+  0.45853    1  8  d0   0.36917
                                    1  8  d1+ -0.41315    1  8  d2+  0.59717    1  2  f0   0.34107    1  2  f3+  0.46392
                                    1  2  f2+ -0.31474    2  7  px  -0.46472    2  7  py   0.51546    2  7  pz   0.26567
                                    3  3  s   -0.31847    4  5  s    0.52148    4  4  py   0.41631    6  5  s   -0.26284
                                    6  4  pz   0.26796


 HOMO     90.1    -0.334494 =      -9.1021eV
 LUMO     91.1     0.020115 =       0.5474eV
 LUMO-HOMO         0.354609 =       9.6494eV

 Orbitals saved in record  2100.2


 **********************************************************************************************************************************
 DATASETS  * FILE   NREC   LENGTH (MB)   RECORD NAMES
              1      22       52.21       500      610      700      900      950      970     1000      129      960     1700   
                                          VAR    BASINP    GEOM    SYMINP    ZMAT    AOBASIS   BASIS     P2S    ABASIS    OPER   
                                         1101     1401     1411     1412     1650     1100     1400     1410     1200     1210   
                                          SR      EKINR    POTR     PVPR    MOLCAS      S      EKIN      POT      H0       H01  
                                         1080     1600   
                                         AOSYM     SMH  

              2       6       16.04       500      610      700     1000      520     2100   
                                          VAR    BASINP    GEOM     BASIS   MCVARS     RHF  

 PROGRAMS   *        TOTAL    HF-SCF       INT      FILE
 CPU TIMES  *       694.01    219.05    474.71      0.01
 REAL TIME  *       904.32 SEC
 DISK USED  *        85.98 MB (local),      101.63 GB (total)
 GA USED    *         0.01 MB       (max)       0.00 MB       (current)
 **********************************************************************************************************************************


 PROGRAM * CCSD (Closed-shell coupled cluster)     Authors: C. Hampel, H.-J. Werner, 1991, M. Deegan, P.J. Knowles, 1992


 Convergence thresholds:  THRVAR = 1.00D-08  THRDEN = 1.00D-06

 CCSD(T)     terms to be evaluated (factor= 1.000)


 Number of core orbitals:          61 (  61 )
 Number of closed-shell orbitals:  29 (  29 )
 Number of external orbitals:     415 ( 415 )

 Molecular orbitals read from record     2100.2  Type=RHF/CANONICAL  

 Number of N-1 electron functions:              29
 Number of N-2 electron functions:             435
 Number of singly external CSFs:             12035
 Number of doubly external CSFs:          72426630
 Total number of CSFs:                    72438666

 Length of J-op  integral file:               0.00 MB
 Length of K-op  integral file:              17.51 MB
 Length of 3-ext integral record:             0.00 MB

 Integral transformation finished. Total CPU: 979.91 sec, npass=  1  Memory used:2117.31 MW

 Reference energy:                 -34591.02616145

 MP2 singlet pair energy:              -0.97416658
 MP2 triplet pair energy:              -0.69064943
 MP2 correlation energy:               -1.66481600
 MP2 total energy:                 -34592.69097746

 SCS-MP2 correlation energy:           -1.59873732   (PS=  1.200000  PT=  0.333333)
 SCS-MP2 total energy:             -34592.62489877

 ITER.      SQ.NORM     CORR.ENERGY   TOTAL ENERGY   ENERGY CHANGE        DEN1      VAR(S)    VAR(P)  DIIS     TIME  TIME/IT
   1      1.45566871    -1.66786124-34592.69402269    -0.00304523     0.06092151  0.30D-01  0.12D-01  1  1  2311.88   637.62
   2      1.48723871    -1.65825364-34592.68441509     0.00960760    -0.04305335  0.44D-03  0.23D-02  2  2  2940.06   637.80
   3      1.50947457    -1.66068825-34592.68684971    -0.00243462    -0.00547659  0.14D-02  0.16D-03  3  3  3587.21   643.94
   4      1.52253839    -1.65939115-34592.68555261     0.00129710    -0.00376015  0.24D-03  0.45D-04  4  4  4233.98   647.05
   5      1.53322120    -1.65867023-34592.68483168     0.00072093    -0.00179749  0.59D-04  0.62D-05  5  5  4975.36   668.47
   6      1.53681658    -1.65848292-34592.68464437     0.00018731    -0.00023348  0.97D-05  0.26D-05  6  6  5950.67   722.47
   7      1.53865228    -1.65834756-34592.68450901     0.00013536    -0.00005422  0.29D-05  0.42D-06  6  1  6782.16   740.03
   8      1.53927382    -1.65832668-34592.68448813     0.00002088    -0.00007228  0.62D-06  0.16D-06  6  2  7607.25   752.44
   9      1.53945224    -1.65833349-34592.68449494    -0.00000681     0.00001095  0.21D-06  0.33D-07  6  4  8565.24   778.23
  10      1.53953758    -1.65833471-34592.68449617    -0.00000122    -0.00000245  0.55D-07  0.10D-07  6  3  9670.33   812.79
  11      1.53958961    -1.65833128-34592.68449274     0.00000343    -0.00000816  0.15D-07  0.34D-08  6  5 10510.55   816.58
  12      1.53960119    -1.65833408-34592.68449554    -0.00000280     0.00000607  0.46D-08  0.92D-09  6  6 11322.64   817.37
  13      1.53960644    -1.65833275-34592.68449420     0.00000133    -0.00000050  0.64D-09  0.21D-09  6  1 12339.17   834.58
  14      1.53960474    -1.65833381-34592.68449526    -0.00000106     0.00000135  0.17D-09  0.38D-10  6  2 13375.27   849.95
  15      1.53960189    -1.65833392-34592.68449537    -0.00000011     0.00000036  0.53D-10  0.12D-10  6  3 14151.37   846.02
  16      1.53960038    -1.65833410-34592.68449556    -0.00000019     0.00000016  0.16D-10  0.32D-11  6  4 15059.02   851.08

 Norm of t1 vector:      0.24936887      S-energy:    -0.00000021      T1 diagnostic:  0.02315332
                                                                       D1 diagnostic:  0.07802706
                                                                       D2 diagnostic:  0.15081685 (internal)

   CPU time for triples:   2532.71 sec for i =  1 -  6 / 29 (~   1.1 % done)
   CPU time for triples:   3143.37 sec for i =  7 - 16 / 29 (~  17.9 % done)
   CPU time for triples:   2404.42 sec for i = 17 - 20 / 29 (~  34.0 % done)
   CPU time for triples:   2413.28 sec for i = 21 - 22 / 29 (~  44.8 % done)
   CPU time for triples:   2409.72 sec for i = 23 - 24 / 29 (~  57.7 % done)
   CPU time for triples:   2415.99 sec for i = 25 - 26 / 29 (~  72.8 % done)
   CPU time for triples:   1804.60 sec for i = 27 - 27 / 29 (~  81.2 % done)
   CPU time for triples:   3542.70 sec for i = 28 - 29 / 29 (  100.0 % done)

 Total CPU time for triples:  20670.83 sec


 RESULTS
 =======

  Reference energy                   -34591.0261614522    

  Correlated core orbitals:            62.1      63.1      64.1      65.1      66.1
  Orbital energies:                    -2.2555   -2.2218   -2.2208   -2.2207   -2.2188

  CCSD core-core energy                -0.026257390023
  CCSD core-valence energy             -0.104167838748
  CCSD valence correlation energy      -1.527908875894

  CCSD singlet pair energy             -1.044756592014
  CCSD triplet pair energy             -0.613577301600
  CCSD correlation energy              -1.658334104664

  Triples (T) contribution             -0.081580067989
  Total correlation energy             -1.739914172653

  CCSD total energy                  -34592.6844955569    
  CCSD[T] energy                     -34592.7779827460    
  CCSD-T energy                      -34592.7621455753    
 !CCSD(T) total energy               -34592.7660756249    

 Timing summary (sec):

 STEP                 CPU(USER)    SYS     CPU(TOT)    WALL
 Transformation        984.66     42.41   1027.07   1030.66
 CCSD iterations     14098.34    218.74  14317.08  13641.07
 Triples             20670.83    223.37  20894.20  20890.45

 Program statistics:

 Available memory in ccsd:              2499996546
 Min. memory needed in ccsd:             165502844
 Max. memory used in ccsd:               233037029
 Max. memory used in cckext:             224975140 (16 integral passes)



 **********************************************************************************************************************************
 DATASETS  * FILE   NREC   LENGTH (MB)   RECORD NAMES
              1      23     9252.40       500      610      700      900      950      970     1000      129      960     1700   
                                          VAR    BASINP    GEOM    SYMINP    ZMAT    AOBASIS   BASIS     P2S    ABASIS    OPER   
                                         1101     1401     1411     1412     1650     1100     1400     1410     1200     1210   
                                          SR      EKINR    POTR     PVPR    MOLCAS      S      EKIN      POT      H0       H01  
                                         1080     1600     1380   
                                         AOSYM     SMH     JKOP   

              2       6       16.04       500      610      700     1000      520     2100   
                                          VAR    BASINP    GEOM     BASIS   MCVARS     RHF  

 PROGRAMS   *        TOTAL   CCSD(T)    HF-SCF       INT      FILE
 CPU TIMES  *     35753.81  35059.44    219.05    474.71      0.01
 REAL TIME  *     36472.46 SEC
 DISK USED  *        15.75 GB (local),      180.07 GB (total)
 SF USED    *        17.16 GB
 GA USED    *         0.01 MB       (max)       0.00 MB       (current)
 **********************************************************************************************************************************
 SETTING ENERGY_HF(1)   =    -34591.02616145  AU                              
 SETTING CORR_MP2(1)    =        -1.66481600  AU                              
 SETTING CORR_CCSDT(1)  =        -1.73991417  AU                              

 CCSD(T)/PA=CC-PVTZ-DK,O=AUG-CC-PVTZ-DK,H=AUG-CC-PVTZ-DK,I=AUG-CC-PVTZ-DK energy= -34592.766075624895

         CCSD(T)          HF-SCF
 -34592.76607562 -34591.02616145
 **********************************************************************************************************************************
 Molpro calculation terminated
