
 Working directory              : /state/partition2/shaaban/971655.phlam-s-sakura/molpro.Gki3rvaMIg/
 Global scratch directory       : /state/partition2/shaaban/971655.phlam-s-sakura/molpro.Gki3rvaMIg/
 Wavefunction directory         : /home/shaaban/wfu/
 Main file repository           : /state/partition2/shaaban/971655.phlam-s-sakura/molpro.Gki3rvaMIg/

 id        : lill

 Nodes       nprocs
 u-0-13.local    8
 GA implementation: MPI file
 GA implementation (serial work in mppx): MPI file

 Using customized tuning parameters: mindgm=1; mindgv=20; mindgc=4; mindgr=1; noblas=0; minvec=7
 default implementation of scratch files=sf  


 Variables initialized (1025), CPU time= 0.01 sec
 ***,Pa(OH)4(C2O4) - MP2 and CCSD(T)
 memory,5000, m;
 file, 1, pa_oh4_c2o4.ccsd-tx.int, new;
 file, 2, pa_oh4_c2o4.ccsd-tx.wfu, new;
 
 gprint, basis;
 gprint, orbital=10;
 
 nosym;
 
 geomtyp=xyz;
 
 geometry={
 Including file /home/shaaban/molpro/PhD/oxalate/pa_oh4_c2o4/pa_oh4_c2o4-B21-solvent.xyz
 }
 
 charge=-1;
 
                                                                                 ! Select X2C SR Hamiltonian
 SET,DKHO=101
 
                                                                                 ! Calculation with VTZ basis set
 basis={
 Pa=cc-pVTZ-X2C;
 O=aug-cc-pVTZ-X2C;
 H=aug-cc-pVTZ-X2C;
 C=aug-cc-pVTZ-X2C;
 }
 
                                                                                 ! Hartree-Fock calculation
 {hf;}
 
                                                                                 ! MP2 and CCSD(T) calculation
 {ccsd(t);}
 
                                                                  ! Save HF energy and CCSD(T) correlation energy for VTZ basis set
 energy_hf(1) = energr(1);
 corr_mp2(1) = EMP2-energr(1);
 corr_ccsdt(1) = ENERGT(1)-energr(1);
 
 Commands initialized (840), CPU time= 0.01 sec, 684 directives.
 Default parameters read. Elapsed time= 0.30 sec

 Checking input...
 Passed
1


                                         ***  PROGRAM SYSTEM MOLPRO  ***
                                       Copyright, TTI GmbH Stuttgart, 2015
                                    Version 2022.3 linked Wed Nov 30 12:40:34 2022


 **********************************************************************************************************************************
 LABEL *   Pa(OH)- MP2 an)                                                               
  64 bit mpp version                                                                     DATE: 22-Jun-23          TIME: 17:27:37  
 **********************************************************************************************************************************

 SHA1:             e31ec9a5ea85254ab76f59d122cbdd51c71cf98b
 **********************************************************************************************************************************

 Memory per process:      5000 MW
 Total memory per node:  40000 MW

 GA preallocation disabled
 GA check disabled

 Variable memory set to 5000.0 MW



 Permanent file  1  pa_oh4_c2o4.ccsd-tx.int          assigned.  Implementation=df  
 Permanent file  2  pa_oh4_c2o4.ccsd-tx.wfu          assigned.  Implementation=df  



 **********************************************************************************************************************************
 DATASETS  * FILE   NREC   LENGTH (MB)   RECORD NAMES
              1       1        0.03       500   
                                          VAR  

              2       1        0.03       500   
                                          VAR  

 PROGRAMS   *        TOTAL      FILE
 CPU TIMES  *         0.21      0.02
 REAL TIME  *         0.95 SEC
 DISK USED  *         0.10 MB (local),        0.81 MB (total)
 **********************************************************************************************************************************


 SETTING GEOMTYP        =    XYZ
 ZSYMEL=NOSYM

 SETTING CHARGE         =        -1.00000000                                  
 SETTING DKHO           =       101.00000000                                  
 SETTING BASIS          =    PA=CC-PVTZ-X2C,O=AUG-CC-PVTZ-X2C,H=AUG-CC-PVTZ-X2C,C=AUG-CC-PVTZ-X2C


 Recomputing integrals since basis changed


 Using spherical harmonics

 Library entry PA     S cc-pVTZ-X2C          selected for orbital group  1
 Library entry PA     P cc-pVTZ-X2C          selected for orbital group  1
 Library entry PA     D cc-pVTZ-X2C          selected for orbital group  1
 Library entry PA     F cc-pVTZ-X2C          selected for orbital group  1
 Library entry PA     G cc-pVTZ-X2C          selected for orbital group  1
 Library entry PA     H cc-pVTZ-X2C          selected for orbital group  1
 Library entry O      S aug-cc-pVTZ-X2C      selected for orbital group  2
 Library entry O      P aug-cc-pVTZ-X2C      selected for orbital group  2
 Library entry O      D aug-cc-pVTZ-X2C      selected for orbital group  2
 Library entry O      F aug-cc-pVTZ-X2C      selected for orbital group  2
 Library entry H      S aug-cc-pVTZ-X2C      selected for orbital group  3
 Library entry H      P aug-cc-pVTZ-X2C      selected for orbital group  3
 Library entry H      D aug-cc-pVTZ-X2C      selected for orbital group  3
 Library entry C      S aug-cc-pVTZ-X2C      selected for orbital group 11
 Library entry C      P aug-cc-pVTZ-X2C      selected for orbital group 11
 Library entry C      D aug-cc-pVTZ-X2C      selected for orbital group 11
 Library entry C      F aug-cc-pVTZ-X2C      selected for orbital group 11


 PROGRAM * SEWARD (Integral evaluation for generally contracted gaussian basis sets)     Author: Roland Lindh, 1990

 Geometry written to block  1 of record 700


 Point group  C1  



 ATOMIC COORDINATES

 NR  ATOM    CHARGE       X              Y              Z

   1  PA     91.00    1.247082921   -0.426362148   -0.706108039
   2  O       8.00    2.192222372    2.443766032   -3.354439198
   3  H       1.00    1.644557761    2.928438012   -5.024180648
   4  O       8.00   -1.392018690    2.013765838    1.153086352
   5  H       1.00   -2.059550943    3.677897048    0.833152081
   6  O       8.00   -1.074403005   -2.209411467   -3.485890714
   7  H       1.00   -2.247586308   -3.594516367   -3.620481045
   8  O       8.00    0.534139050   -3.308754273    1.997942687
   9  H       1.00   -0.732336977   -3.635509457    3.267708225
  10  O       8.00    4.785732242    0.866349079    1.616862475
  11  O       8.00    4.936730280   -2.582971627   -1.865877132
  12  C       6.00    7.032256730   -0.026460077    1.233768402
  13  C       6.00    7.120979515   -2.121893265   -0.862455141
  14  O       8.00    8.951779485    0.626575688    2.332789363
  15  O       8.00    9.107528857   -3.154099990   -1.416692155

 Bond lengths in Bohr (Angstrom)

 1-2  4.018032141  1-3  5.482556104  1-4  4.046688236  1-5  5.490727891  1-6  4.036799908
     ( 2.126251041)     ( 2.901243748)     ( 2.141415194)     ( 2.905568071)     ( 2.136182516)

  1- 7  5.544680711   1- 8  4.016013403   1- 9  5.477950828   1-10  4.425983884   1-11  4.428264494
       ( 2.934118674)       ( 2.125182771)       ( 2.898806741)       ( 2.342129807)       ( 2.343336654)

  1-12  6.114840822   1-13  6.115711846   2- 3  1.822876838   4- 5  1.821342892   6- 7  1.820161862
       ( 3.235834411)       ( 3.236295338)       ( 0.964624881)       ( 0.963813152)       ( 0.963188177)

  8- 9  1.822919361  10-12  2.447599136  11-13  2.447528073  12-13  2.965276567  12-14  2.306267632
       ( 0.964647383)       ( 1.295213684)       ( 1.295176079)       ( 1.569156783)       ( 1.220424273)

 13-15  2.306297395
       ( 1.220440023)

 Bond angles

  1-2-3  136.30220947   1-3-2   30.41838484   1-4-5  135.17500136   1-5-4   31.30182505

  1-6-7  139.26271358   1-7-6   28.36708320   1-8-9  136.13628032   1-9-8   30.53166293

  1-10-12  123.03474458   1-11-13  122.98766829   1-12-10   37.35841571   1-12-13   75.98524305

  1-12-14  163.16248952   1-13-11   37.39809525   1-13-12   75.95258705   1-13-15  163.24109694

  2-1-3   13.27940570   2-1-4   91.46112476   2-1-5   78.02358125   2-1-6   89.82310670

  2- 1- 7  102.12026238   2- 1- 8  176.58924462   2- 1- 9  168.99028121   2- 1-10   87.09020331

  2- 1-11   88.81187945   2- 1-12   86.55095140   2- 1-13   87.43592464   3- 1- 4   92.30154898

  3-1-5   78.87576015   3-1-6   76.68047248   3-1-7   88.93143755   3-1-8  169.22078186

  3- 1- 9  162.94253480   3- 1-10  100.17686723   3- 1-11   91.79501262   3- 1-12   98.12031335

  3- 1-13   94.58161453   4- 1- 5   13.52317359   4- 1- 6  101.98569584   4- 1- 7  100.07793590

  4- 1- 8   90.43900112   4- 1- 9   77.54415779   4- 1-10   95.97894913   4- 1-11  163.21122195

  4- 1-12  115.58290915   4- 1-13  143.63897545   5- 1- 6  100.18824217   5- 1- 7  101.23832952

  5- 1- 8  103.93526393   5- 1- 9   90.97006220   5- 1-10   96.66302205   5- 1-11  159.92246557

  5- 1-12  115.59040270   5- 1-13  142.44904204   6- 1- 7   12.37020322   6- 1- 8   92.55301582

  6- 1- 9   91.88939393   6- 1-10  161.84393600   6- 1-11   94.80125672   6- 1-12  142.31826171

  6- 1-13  114.34817267   7- 1- 8   80.32371701   7- 1- 9   79.56104078   7- 1-10  161.20373340

  7- 1-11   96.27015000   7- 1-12  143.16919033   7- 1-13  115.69012136   8- 1- 9   13.33205675

  8- 1-10   89.89533177   8- 1-11   88.55131331   8- 1-12   90.07385464   8- 1-13   89.35459775

  9- 1-10   94.54658035   9- 1-11  101.87376337   9- 1-12   98.62934978   9- 1-13  101.72323124

 10- 1-11   67.26562048  10- 1-12   19.60683971  10- 1-13   47.66133178  10-12-13  113.32060638

 10-12-14  125.87775568  11- 1-12   47.67399584  11- 1-13   19.61423645  11-13-12  113.34343996

 11-13-15  125.86423127  12- 1-13   28.06216990  12-13-15  120.79232827  13-12-14  120.80158543


 BASIS DATA

   Nr Sym  Nuc  Type         Exponents   Contraction coefficients

    1.1 A     1  1s    57606659.000000     0.002669    0.000875   -0.001011   -0.000162    0.000138   -0.000062
                                           0.000029    0.000051   -0.000067   -0.000085    0.000000
    2.1 A              15333099.000000     0.001763    0.000577   -0.000669   -0.000107    0.000091   -0.000041
                                           0.000019    0.000034   -0.000045   -0.000056    0.000000
    3.1 A               5244434.800000     0.005688    0.001860   -0.002159   -0.000346    0.000294   -0.000133
                                           0.000061    0.000110   -0.000144   -0.000182    0.000000
    4.1 A               1993947.300000     0.005833    0.001897   -0.002226   -0.000357    0.000304   -0.000137
                                           0.000063    0.000114   -0.000148   -0.000188    0.000000
    5.1 A                831464.670000     0.012471    0.004046   -0.004768   -0.000766    0.000651   -0.000294
                                           0.000135    0.000243   -0.000318   -0.000402    0.000000
    6.1 A                367473.800000     0.015337    0.004923   -0.005922   -0.000954    0.000810   -0.000366
                                           0.000168    0.000303   -0.000396   -0.000502    0.000000
    7.1 A                170948.980000     0.027802    0.008860   -0.010807   -0.001745    0.001481   -0.000669
                                           0.000307    0.000553   -0.000723   -0.000913    0.000000
    8.1 A                 82498.208000     0.037893    0.011845   -0.014983   -0.002432    0.002060   -0.000931
                                           0.000428    0.000771   -0.001008   -0.001281    0.000000
    9.1 A                 41068.557000     0.063446    0.019489   -0.025472   -0.004156    0.003514   -0.001588
                                           0.000730    0.001312   -0.001713   -0.002158    0.000000
   10.1 A                 20931.097000     0.090970    0.026964   -0.037612   -0.006192    0.005220   -0.002360
                                           0.001084    0.001959   -0.002562   -0.003271    0.000000
   11.1 A                 10881.858000     0.141353    0.040137   -0.060450   -0.010069    0.008456   -0.003823
                                           0.001756    0.003150   -0.004109   -0.005142    0.000000
                           5751.850200     0.192150    0.050328   -0.087023   -0.014758    0.012320   -0.005570
                                           0.002559    0.004641   -0.006081   -0.007843    0.000000
                           3085.413800     0.245625    0.057494   -0.119370   -0.020746    0.017180   -0.007769
                                           0.003568    0.006365   -0.008281   -0.010186    0.000000
                           1676.302600     0.236828    0.048791   -0.122988   -0.021795    0.017936   -0.008112
                                           0.003728    0.006861   -0.009046   -0.012129    0.000000
                            920.364860     0.144288    0.051386   -0.045258   -0.005640    0.005268   -0.002373
                                           0.001085    0.001652   -0.001974   -0.001042    0.000000
                            507.302700    -0.025759    0.115725    0.203246    0.056561   -0.041187    0.018724
                                          -0.008598   -0.014902    0.019190    0.021482    0.000000
                            285.301180    -0.127248    0.207489    0.548666    0.172341   -0.122683    0.055908
                                          -0.025737   -0.047910    0.063712    0.088054    0.000000
                            162.083520    -0.106345    0.166212    0.606264    0.222723   -0.155054    0.070944
                                          -0.032607   -0.056240    0.072273    0.078654    0.000000
                             92.502257    -0.075897    0.111536    0.036795   -0.036386    0.019294   -0.009062
                                           0.004086    0.001475    0.001168    0.030443    0.000000
                             54.996696    -0.159518    0.199400   -0.676887   -0.645265    0.447335   -0.211910
                                           0.098395    0.193270   -0.267108   -0.419400    0.000000
                             32.498055    -0.126680    0.162427   -0.590845   -0.685716    0.477369   -0.227312
                                           0.105023    0.171409   -0.214999   -0.161690    0.000000
                             19.139224    -0.031866    0.038627   -0.102127    0.187644   -0.152132    0.072681
                                          -0.032972   -0.027495    0.028200   -0.136514    0.000000
                             11.382710     0.001867    0.000895    0.103491    0.862021   -0.976205    0.547811
                                          -0.263192   -0.581563    0.872312    1.708580    0.000000
                              6.786052     0.000710   -0.001446    0.057992    0.445035   -0.716251    0.417708
                                          -0.198179   -0.257965    0.233684   -0.803168    0.000000
                              4.149622     0.000624    0.000224    0.007493    0.066545    0.448492   -0.350229
                                           0.170540    0.219139   -0.310498    1.111350    0.000000
                              2.398648    -0.000456    0.000036    0.000333    0.014140    0.872214   -0.849732
                                           0.456257    1.306370   -2.312230   -7.677220    0.000000
                              1.389239     0.000090    0.000196   -0.000539    0.002102    0.319316   -0.431871
                                           0.230358    0.273179    0.312923   10.897300    0.000000
                              0.799685    -0.000092   -0.000045    0.000120    0.000488    0.047531    0.436228
                                          -0.277578   -1.772950    4.829150   -2.756210    0.000000
                              0.427327     0.000032    0.000027   -0.000069   -0.000720    0.030738    0.715435
                                          -0.561943   -0.897998   -3.625440   -6.603630    0.000000
                              0.220940    -0.000014   -0.000008    0.000023   -0.000086    0.010089    0.233487
                                          -0.326569    1.531090   -1.220420    6.760400    0.000000
                              0.086038     0.000004    0.000003   -0.000008   -0.000060    0.001152    0.063336
                                           0.301677    1.025940    2.677810   -2.145480    0.000000
                              0.041219    -0.000002   -0.000001    0.000004   -0.000044    0.001537    0.118995
                                           0.692734   -0.772162   -0.536170   -1.021350    0.000000
                              0.018781     0.000001    0.000000   -0.000001   -0.000024    0.000590    0.043903
                                           0.253879   -0.484754   -0.805222    1.252960    1.000000
   12.1 A     1  2px   52575799.000000     0.000013
                       15301659.000000     0.000017
                        4822461.600000     0.000052
                        1632045.600000     0.000107
                         584338.640000     0.000256
                         219508.320000     0.000572
                          86085.039000     0.001336
                          35172.956000     0.003129
                          14975.745000     0.007503
                           6652.821900     0.017986
                           3084.270200     0.042103
                           1489.211300     0.090969
                            745.288670     0.167976
                            384.521300     0.234709
                            203.927220     0.220200
                            110.523340     0.174708
                             61.345569     0.190642
                             34.404375     0.137246
                             19.094147     0.033402
                             10.684628    -0.000867
                              5.931463    -0.000935
                              3.230992    -0.000009
                              1.730655     0.000164
                              0.869483     0.000022
                              0.440589     0.000009
                              0.215859    -0.000000
                              0.091015     0.000001
                              0.040174    -0.000000
                              0.017215     0.000000
   13.1 A     1  2py   52575799.000000     0.000013
                       15301659.000000     0.000017
                        4822461.600000     0.000052
                        1632045.600000     0.000107
                         584338.640000     0.000256
                         219508.320000     0.000572
                          86085.039000     0.001336
                          35172.956000     0.003129
                          14975.745000     0.007503
                           6652.821900     0.017986
                           3084.270200     0.042103
                           1489.211300     0.090969
                            745.288670     0.167976
                            384.521300     0.234709
                            203.927220     0.220200
                            110.523340     0.174708
                             61.345569     0.190642
                             34.404375     0.137246
                             19.094147     0.033402
                             10.684628    -0.000867
                              5.931463    -0.000935
                              3.230992    -0.000009
                              1.730655     0.000164
                              0.869483     0.000022
                              0.440589     0.000009
                              0.215859    -0.000000
                              0.091015     0.000001
                              0.040174    -0.000000
                              0.017215     0.000000
   14.1 A     1  2pz   52575799.000000     0.000013
                       15301659.000000     0.000017
                        4822461.600000     0.000052
                        1632045.600000     0.000107
                         584338.640000     0.000256
                         219508.320000     0.000572
                          86085.039000     0.001336
                          35172.956000     0.003129
                          14975.745000     0.007503
                           6652.821900     0.017986
                           3084.270200     0.042103
                           1489.211300     0.090969
                            745.288670     0.167976
                            384.521300     0.234709
                            203.927220     0.220200
                            110.523340     0.174708
                             61.345569     0.190642
                             34.404375     0.137246
                             19.094147     0.033402
                             10.684628    -0.000867
                              5.931463    -0.000935
                              3.230992    -0.000009
                              1.730655     0.000164
                              0.869483     0.000022
                              0.440589     0.000009
                              0.215859    -0.000000
                              0.091015     0.000001
                              0.040174    -0.000000
                              0.017215     0.000000
   15.1 A     1  2px   52575799.000000    -0.000015
                       15301659.000000    -0.000020
                        4822461.600000    -0.000063
                        1632045.600000    -0.000128
                         584338.640000    -0.000307
                         219508.320000    -0.000688
                          86085.039000    -0.001611
                          35172.956000    -0.003789
                          14975.745000    -0.009145
                           6652.821900    -0.022135
                           3084.270200    -0.052666
                           1489.211300    -0.116756
                            745.288670    -0.223673
                            384.521300    -0.322150
                            203.927220    -0.236330
                            110.523340     0.145050
                             61.345569     0.527334
                             34.404375     0.400957
                             19.094147     0.019469
                             10.684628    -0.122609
                              5.931463    -0.050931
                              3.230992    -0.002720
                              1.730655     0.002231
                              0.869483     0.000423
                              0.440589     0.000084
                              0.215859     0.000018
                              0.091015     0.000006
                              0.040174    -0.000002
                              0.017215     0.000001
   16.1 A     1  2py   52575799.000000    -0.000015
                       15301659.000000    -0.000020
                        4822461.600000    -0.000063
                        1632045.600000    -0.000128
                         584338.640000    -0.000307
                         219508.320000    -0.000688
                          86085.039000    -0.001611
                          35172.956000    -0.003789
                          14975.745000    -0.009145
                           6652.821900    -0.022135
                           3084.270200    -0.052666
                           1489.211300    -0.116756
                            745.288670    -0.223673
                            384.521300    -0.322150
                            203.927220    -0.236330
                            110.523340     0.145050
                             61.345569     0.527334
                             34.404375     0.400957
                             19.094147     0.019469
                             10.684628    -0.122609
                              5.931463    -0.050931
                              3.230992    -0.002720
                              1.730655     0.002231
                              0.869483     0.000423
                              0.440589     0.000084
                              0.215859     0.000018
                              0.091015     0.000006
                              0.040174    -0.000002
                              0.017215     0.000001
   17.1 A     1  2pz   52575799.000000    -0.000015
                       15301659.000000    -0.000020
                        4822461.600000    -0.000063
                        1632045.600000    -0.000128
                         584338.640000    -0.000307
                         219508.320000    -0.000688
                          86085.039000    -0.001611
                          35172.956000    -0.003789
                          14975.745000    -0.009145
                           6652.821900    -0.022135
                           3084.270200    -0.052666
                           1489.211300    -0.116756
                            745.288670    -0.223673
                            384.521300    -0.322150
                            203.927220    -0.236330
                            110.523340     0.145050
                             61.345569     0.527334
                             34.404375     0.400957
                             19.094147     0.019469
                             10.684628    -0.122609
                              5.931463    -0.050931
                              3.230992    -0.002720
                              1.730655     0.002231
                              0.869483     0.000423
                              0.440589     0.000084
                              0.215859     0.000018
                              0.091015     0.000006
                              0.040174    -0.000002
                              0.017215     0.000001
   18.1 A     1  2px   52575799.000000     0.000002
                       15301659.000000     0.000002
                        4822461.600000     0.000007
                        1632045.600000     0.000015
                         584338.640000     0.000036
                         219508.320000     0.000081
                          86085.039000     0.000191
                          35172.956000     0.000452
                          14975.745000     0.001103
                           6652.821900     0.002719
                           3084.270200     0.006655
                           1489.211300     0.015415
                            745.288670     0.031304
                            384.521300     0.047289
                            203.927220     0.017930
                            110.523340    -0.123036
                             61.345569    -0.327485
                             34.404375    -0.190153
                             19.094147     0.365341
                             10.684628     0.614487
                              5.931463     0.253665
                              3.230992     0.025247
                              1.730655     0.001457
                              0.869483    -0.000189
                              0.440589     0.000178
                              0.215859    -0.000001
                              0.091015     0.000034
                              0.040174    -0.000010
                              0.017215     0.000003
   19.1 A     1  2py   52575799.000000     0.000002
                       15301659.000000     0.000002
                        4822461.600000     0.000007
                        1632045.600000     0.000015
                         584338.640000     0.000036
                         219508.320000     0.000081
                          86085.039000     0.000191
                          35172.956000     0.000452
                          14975.745000     0.001103
                           6652.821900     0.002719
                           3084.270200     0.006655
                           1489.211300     0.015415
                            745.288670     0.031304
                            384.521300     0.047289
                            203.927220     0.017930
                            110.523340    -0.123036
                             61.345569    -0.327485
                             34.404375    -0.190153
                             19.094147     0.365341
                             10.684628     0.614487
                              5.931463     0.253665
                              3.230992     0.025247
                              1.730655     0.001457
                              0.869483    -0.000189
                              0.440589     0.000178
                              0.215859    -0.000001
                              0.091015     0.000034
                              0.040174    -0.000010
                              0.017215     0.000003
   20.1 A     1  2pz   52575799.000000     0.000002
                       15301659.000000     0.000002
                        4822461.600000     0.000007
                        1632045.600000     0.000015
                         584338.640000     0.000036
                         219508.320000     0.000081
                          86085.039000     0.000191
                          35172.956000     0.000452
                          14975.745000     0.001103
                           6652.821900     0.002719
                           3084.270200     0.006655
                           1489.211300     0.015415
                            745.288670     0.031304
                            384.521300     0.047289
                            203.927220     0.017930
                            110.523340    -0.123036
                             61.345569    -0.327485
                             34.404375    -0.190153
                             19.094147     0.365341
                             10.684628     0.614487
                              5.931463     0.253665
                              3.230992     0.025247
                              1.730655     0.001457
                              0.869483    -0.000189
                              0.440589     0.000178
                              0.215859    -0.000001
                              0.091015     0.000034
                              0.040174    -0.000010
                              0.017215     0.000003
   21.1 A     1  2px   52575799.000000    -0.000002
                       15301659.000000    -0.000003
                        4822461.600000    -0.000009
                        1632045.600000    -0.000018
                         584338.640000    -0.000043
                         219508.320000    -0.000097
                          86085.039000    -0.000228
                          35172.956000    -0.000537
                          14975.745000    -0.001302
                           6652.821900    -0.003177
                           3084.270200    -0.007652
                           1489.211300    -0.017311
                            745.288670    -0.034068
                            384.521300    -0.050256
                            203.927220    -0.027762
                            110.523340     0.078094
                             61.345569     0.225253
                             34.404375     0.124053
                             19.094147    -0.273486
                             10.684628    -0.553839
                              5.931463    -0.065277
                              3.230992     0.618524
                              1.730655     0.501044
                              0.869483     0.107343
                              0.440589     0.023201
                              0.215859     0.014691
                              0.091015     0.001511
                              0.040174     0.000132
                              0.017215    -0.000015
   22.1 A     1  2py   52575799.000000    -0.000002
                       15301659.000000    -0.000003
                        4822461.600000    -0.000009
                        1632045.600000    -0.000018
                         584338.640000    -0.000043
                         219508.320000    -0.000097
                          86085.039000    -0.000228
                          35172.956000    -0.000537
                          14975.745000    -0.001302
                           6652.821900    -0.003177
                           3084.270200    -0.007652
                           1489.211300    -0.017311
                            745.288670    -0.034068
                            384.521300    -0.050256
                            203.927220    -0.027762
                            110.523340     0.078094
                             61.345569     0.225253
                             34.404375     0.124053
                             19.094147    -0.273486
                             10.684628    -0.553839
                              5.931463    -0.065277
                              3.230992     0.618524
                              1.730655     0.501044
                              0.869483     0.107343
                              0.440589     0.023201
                              0.215859     0.014691
                              0.091015     0.001511
                              0.040174     0.000132
                              0.017215    -0.000015
   23.1 A     1  2pz   52575799.000000    -0.000002
                       15301659.000000    -0.000003
                        4822461.600000    -0.000009
                        1632045.600000    -0.000018
                         584338.640000    -0.000043
                         219508.320000    -0.000097
                          86085.039000    -0.000228
                          35172.956000    -0.000537
                          14975.745000    -0.001302
                           6652.821900    -0.003177
                           3084.270200    -0.007652
                           1489.211300    -0.017311
                            745.288670    -0.034068
                            384.521300    -0.050256
                            203.927220    -0.027762
                            110.523340     0.078094
                             61.345569     0.225253
                             34.404375     0.124053
                             19.094147    -0.273486
                             10.684628    -0.553839
                              5.931463    -0.065277
                              3.230992     0.618524
                              1.730655     0.501044
                              0.869483     0.107343
                              0.440589     0.023201
                              0.215859     0.014691
                              0.091015     0.001511
                              0.040174     0.000132
                              0.017215    -0.000015
   24.1 A     1  2px   52575799.000000     0.000001
                       15301659.000000     0.000001
                        4822461.600000     0.000004
                        1632045.600000     0.000008
                         584338.640000     0.000019
                         219508.320000     0.000043
                          86085.039000     0.000102
                          35172.956000     0.000240
                          14975.745000     0.000583
                           6652.821900     0.001422
                           3084.270200     0.003426
                           1489.211300     0.007745
                            745.288670     0.015249
                            384.521300     0.022470
                            203.927220     0.012451
                            110.523340    -0.035134
                             61.345569    -0.101385
                             34.404375    -0.055104
                             19.094147     0.131617
                             10.684628     0.274237
                              5.931463     0.008683
                              3.230992    -0.421618
                              1.730655    -0.381893
                              0.869483     0.226214
                              0.440589     0.602150
                              0.215859     0.367232
                              0.091015     0.055939
                              0.040174    -0.001129
                              0.017215     0.001121
   25.1 A     1  2py   52575799.000000     0.000001
                       15301659.000000     0.000001
                        4822461.600000     0.000004
                        1632045.600000     0.000008
                         584338.640000     0.000019
                         219508.320000     0.000043
                          86085.039000     0.000102
                          35172.956000     0.000240
                          14975.745000     0.000583
                           6652.821900     0.001422
                           3084.270200     0.003426
                           1489.211300     0.007745
                            745.288670     0.015249
                            384.521300     0.022470
                            203.927220     0.012451
                            110.523340    -0.035134
                             61.345569    -0.101385
                             34.404375    -0.055104
                             19.094147     0.131617
                             10.684628     0.274237
                              5.931463     0.008683
                              3.230992    -0.421618
                              1.730655    -0.381893
                              0.869483     0.226214
                              0.440589     0.602150
                              0.215859     0.367232
                              0.091015     0.055939
                              0.040174    -0.001129
                              0.017215     0.001121
   26.1 A     1  2pz   52575799.000000     0.000001
                       15301659.000000     0.000001
                        4822461.600000     0.000004
                        1632045.600000     0.000008
                         584338.640000     0.000019
                         219508.320000     0.000043
                          86085.039000     0.000102
                          35172.956000     0.000240
                          14975.745000     0.000583
                           6652.821900     0.001422
                           3084.270200     0.003426
                           1489.211300     0.007745
                            745.288670     0.015249
                            384.521300     0.022470
                            203.927220     0.012451
                            110.523340    -0.035134
                             61.345569    -0.101385
                             34.404375    -0.055104
                             19.094147     0.131617
                             10.684628     0.274237
                              5.931463     0.008683
                              3.230992    -0.421618
                              1.730655    -0.381893
                              0.869483     0.226214
                              0.440589     0.602150
                              0.215859     0.367232
                              0.091015     0.055939
                              0.040174    -0.001129
                              0.017215     0.001121
   27.1 A     1  2px   52575799.000000    -0.000000
                       15301659.000000    -0.000000
                        4822461.600000    -0.000001
                        1632045.600000    -0.000002
                         584338.640000    -0.000005
                         219508.320000    -0.000010
                          86085.039000    -0.000024
                          35172.956000    -0.000058
                          14975.745000    -0.000140
                           6652.821900    -0.000342
                           3084.270200    -0.000823
                           1489.211300    -0.001861
                            745.288670    -0.003664
                            384.521300    -0.005398
                            203.927220    -0.002991
                            110.523340     0.008482
                             61.345569     0.024454
                             34.404375     0.013272
                             19.094147    -0.032305
                             10.684628    -0.067432
                              5.931463    -0.001366
                              3.230992     0.110673
                              1.730655     0.103187
                              0.869483    -0.077840
                              0.440589    -0.217735
                              0.215859    -0.188345
                              0.091015     0.201020
                              0.040174     0.637069
                              0.017215     0.326669
   28.1 A     1  2py   52575799.000000    -0.000000
                       15301659.000000    -0.000000
                        4822461.600000    -0.000001
                        1632045.600000    -0.000002
                         584338.640000    -0.000005
                         219508.320000    -0.000010
                          86085.039000    -0.000024
                          35172.956000    -0.000058
                          14975.745000    -0.000140
                           6652.821900    -0.000342
                           3084.270200    -0.000823
                           1489.211300    -0.001861
                            745.288670    -0.003664
                            384.521300    -0.005398
                            203.927220    -0.002991
                            110.523340     0.008482
                             61.345569     0.024454
                             34.404375     0.013272
                             19.094147    -0.032305
                             10.684628    -0.067432
                              5.931463    -0.001366
                              3.230992     0.110673
                              1.730655     0.103187
                              0.869483    -0.077840
                              0.440589    -0.217735
                              0.215859    -0.188345
                              0.091015     0.201020
                              0.040174     0.637069
                              0.017215     0.326669
   29.1 A     1  2pz   52575799.000000    -0.000000
                       15301659.000000    -0.000000
                        4822461.600000    -0.000001
                        1632045.600000    -0.000002
                         584338.640000    -0.000005
                         219508.320000    -0.000010
                          86085.039000    -0.000024
                          35172.956000    -0.000058
                          14975.745000    -0.000140
                           6652.821900    -0.000342
                           3084.270200    -0.000823
                           1489.211300    -0.001861
                            745.288670    -0.003664
                            384.521300    -0.005398
                            203.927220    -0.002991
                            110.523340     0.008482
                             61.345569     0.024454
                             34.404375     0.013272
                             19.094147    -0.032305
                             10.684628    -0.067432
                              5.931463    -0.001366
                              3.230992     0.110673
                              1.730655     0.103187
                              0.869483    -0.077840
                              0.440589    -0.217735
                              0.215859    -0.188345
                              0.091015     0.201020
                              0.040174     0.637069
                              0.017215     0.326669
   30.1 A     1  2px   52575799.000000    -0.000001
                       15301659.000000    -0.000001
                        4822461.600000    -0.000003
                        1632045.600000    -0.000005
                         584338.640000    -0.000013
                         219508.320000    -0.000028
                          86085.039000    -0.000066
                          35172.956000    -0.000156
                          14975.745000    -0.000379
                           6652.821900    -0.000925
                           3084.270200    -0.002224
                           1489.211300    -0.005040
                            745.288670    -0.009895
                            384.521300    -0.014653
                            203.927220    -0.007970
                            110.523340     0.022757
                             61.345569     0.067049
                             34.404375     0.034635
                             19.094147    -0.086605
                             10.684628    -0.190567
                              5.931463     0.011210
                              3.230992     0.295370
                              1.730655     0.357708
                              0.869483    -0.483437
                              0.440589    -0.603385
                              0.215859     0.215887
                              0.091015     0.715465
                              0.040174     0.271767
                              0.017215     0.004114
   31.1 A     1  2py   52575799.000000    -0.000001
                       15301659.000000    -0.000001
                        4822461.600000    -0.000003
                        1632045.600000    -0.000005
                         584338.640000    -0.000013
                         219508.320000    -0.000028
                          86085.039000    -0.000066
                          35172.956000    -0.000156
                          14975.745000    -0.000379
                           6652.821900    -0.000925
                           3084.270200    -0.002224
                           1489.211300    -0.005040
                            745.288670    -0.009895
                            384.521300    -0.014653
                            203.927220    -0.007970
                            110.523340     0.022757
                             61.345569     0.067049
                             34.404375     0.034635
                             19.094147    -0.086605
                             10.684628    -0.190567
                              5.931463     0.011210
                              3.230992     0.295370
                              1.730655     0.357708
                              0.869483    -0.483437
                              0.440589    -0.603385
                              0.215859     0.215887
                              0.091015     0.715465
                              0.040174     0.271767
                              0.017215     0.004114
   32.1 A     1  2pz   52575799.000000    -0.000001
                       15301659.000000    -0.000001
                        4822461.600000    -0.000003
                        1632045.600000    -0.000005
                         584338.640000    -0.000013
                         219508.320000    -0.000028
                          86085.039000    -0.000066
                          35172.956000    -0.000156
                          14975.745000    -0.000379
                           6652.821900    -0.000925
                           3084.270200    -0.002224
                           1489.211300    -0.005040
                            745.288670    -0.009895
                            384.521300    -0.014653
                            203.927220    -0.007970
                            110.523340     0.022757
                             61.345569     0.067049
                             34.404375     0.034635
                             19.094147    -0.086605
                             10.684628    -0.190567
                              5.931463     0.011210
                              3.230992     0.295370
                              1.730655     0.357708
                              0.869483    -0.483437
                              0.440589    -0.603385
                              0.215859     0.215887
                              0.091015     0.715465
                              0.040174     0.271767
                              0.017215     0.004114
   33.1 A     1  2px   52575799.000000    -0.000001
                       15301659.000000    -0.000001
                        4822461.600000    -0.000004
                        1632045.600000    -0.000009
                         584338.640000    -0.000021
                         219508.320000    -0.000047
                          86085.039000    -0.000111
                          35172.956000    -0.000263
                          14975.745000    -0.000636
                           6652.821900    -0.001554
                           3084.270200    -0.003739
                           1489.211300    -0.008475
                            745.288670    -0.016642
                            384.521300    -0.024644
                            203.927220    -0.013367
                            110.523340     0.038637
                             61.345569     0.114090
                             34.404375     0.057493
                             19.094147    -0.152735
                             10.684628    -0.335275
                              5.931463     0.054116
                              3.230992     0.556566
                              1.730655     0.705542
                              0.869483    -1.835570
                              0.440589    -0.012121
                              0.215859     1.665730
                              0.091015    -0.585220
                              0.040174    -0.541179
                              0.017215     0.007323
   34.1 A     1  2py   52575799.000000    -0.000001
                       15301659.000000    -0.000001
                        4822461.600000    -0.000004
                        1632045.600000    -0.000009
                         584338.640000    -0.000021
                         219508.320000    -0.000047
                          86085.039000    -0.000111
                          35172.956000    -0.000263
                          14975.745000    -0.000636
                           6652.821900    -0.001554
                           3084.270200    -0.003739
                           1489.211300    -0.008475
                            745.288670    -0.016642
                            384.521300    -0.024644
                            203.927220    -0.013367
                            110.523340     0.038637
                             61.345569     0.114090
                             34.404375     0.057493
                             19.094147    -0.152735
                             10.684628    -0.335275
                              5.931463     0.054116
                              3.230992     0.556566
                              1.730655     0.705542
                              0.869483    -1.835570
                              0.440589    -0.012121
                              0.215859     1.665730
                              0.091015    -0.585220
                              0.040174    -0.541179
                              0.017215     0.007323
   35.1 A     1  2pz   52575799.000000    -0.000001
                       15301659.000000    -0.000001
                        4822461.600000    -0.000004
                        1632045.600000    -0.000009
                         584338.640000    -0.000021
                         219508.320000    -0.000047
                          86085.039000    -0.000111
                          35172.956000    -0.000263
                          14975.745000    -0.000636
                           6652.821900    -0.001554
                           3084.270200    -0.003739
                           1489.211300    -0.008475
                            745.288670    -0.016642
                            384.521300    -0.024644
                            203.927220    -0.013367
                            110.523340     0.038637
                             61.345569     0.114090
                             34.404375     0.057493
                             19.094147    -0.152735
                             10.684628    -0.335275
                              5.931463     0.054116
                              3.230992     0.556566
                              1.730655     0.705542
                              0.869483    -1.835570
                              0.440589    -0.012121
                              0.215859     1.665730
                              0.091015    -0.585220
                              0.040174    -0.541179
                              0.017215     0.007323
   36.1 A     1  2px   52575799.000000    -0.000001
                       15301659.000000    -0.000002
                        4822461.600000    -0.000006
                        1632045.600000    -0.000012
                         584338.640000    -0.000030
                         219508.320000    -0.000066
                          86085.039000    -0.000157
                          35172.956000    -0.000360
                          14975.745000    -0.000908
                           6652.821900    -0.002110
                           3084.270200    -0.005394
                           1489.211300    -0.011352
                            745.288670    -0.024563
                            384.521300    -0.031084
                            203.927220    -0.026677
                            110.523340     0.074398
                             61.345569     0.122621
                             34.404375     0.158055
                             19.094147    -0.396610
                             10.684628    -0.217370
                              5.931463    -0.310283
                              3.230992     1.975310
                              1.730655    -0.901781
                              0.869483    -2.796670
                              0.440589     4.376690
                              0.215859    -2.312120
                              0.091015    -0.328877
                              0.040174     0.867979
                              0.017215    -0.037454
   37.1 A     1  2py   52575799.000000    -0.000001
                       15301659.000000    -0.000002
                        4822461.600000    -0.000006
                        1632045.600000    -0.000012
                         584338.640000    -0.000030
                         219508.320000    -0.000066
                          86085.039000    -0.000157
                          35172.956000    -0.000360
                          14975.745000    -0.000908
                           6652.821900    -0.002110
                           3084.270200    -0.005394
                           1489.211300    -0.011352
                            745.288670    -0.024563
                            384.521300    -0.031084
                            203.927220    -0.026677
                            110.523340     0.074398
                             61.345569     0.122621
                             34.404375     0.158055
                             19.094147    -0.396610
                             10.684628    -0.217370
                              5.931463    -0.310283
                              3.230992     1.975310
                              1.730655    -0.901781
                              0.869483    -2.796670
                              0.440589     4.376690
                              0.215859    -2.312120
                              0.091015    -0.328877
                              0.040174     0.867979
                              0.017215    -0.037454
   38.1 A     1  2pz   52575799.000000    -0.000001
                       15301659.000000    -0.000002
                        4822461.600000    -0.000006
                        1632045.600000    -0.000012
                         584338.640000    -0.000030
                         219508.320000    -0.000066
                          86085.039000    -0.000157
                          35172.956000    -0.000360
                          14975.745000    -0.000908
                           6652.821900    -0.002110
                           3084.270200    -0.005394
                           1489.211300    -0.011352
                            745.288670    -0.024563
                            384.521300    -0.031084
                            203.927220    -0.026677
                            110.523340     0.074398
                             61.345569     0.122621
                             34.404375     0.158055
                             19.094147    -0.396610
                             10.684628    -0.217370
                              5.931463    -0.310283
                              3.230992     1.975310
                              1.730655    -0.901781
                              0.869483    -2.796670
                              0.440589     4.376690
                              0.215859    -2.312120
                              0.091015    -0.328877
                              0.040174     0.867979
                              0.017215    -0.037454
   39.1 A     1  2px   52575799.000000     0.000000
                       15301659.000000     0.000000
                        4822461.600000     0.000000
                        1632045.600000     0.000000
                         584338.640000     0.000000
                         219508.320000     0.000000
                          86085.039000     0.000000
                          35172.956000     0.000000
                          14975.745000     0.000000
                           6652.821900     0.000000
                           3084.270200     0.000000
                           1489.211300     0.000000
                            745.288670     0.000000
                            384.521300     0.000000
                            203.927220     0.000000
                            110.523340     0.000000
                             61.345569     0.000000
                             34.404375     0.000000
                             19.094147     0.000000
                             10.684628     0.000000
                              5.931463     0.000000
                              3.230992     0.000000
                              1.730655     0.000000
                              0.869483     0.000000
                              0.440589     0.000000
                              0.215859     0.000000
                              0.091015     0.000000
                              0.040174     0.000000
                              0.017215     1.000000
   40.1 A     1  2py   52575799.000000     0.000000
                       15301659.000000     0.000000
                        4822461.600000     0.000000
                        1632045.600000     0.000000
                         584338.640000     0.000000
                         219508.320000     0.000000
                          86085.039000     0.000000
                          35172.956000     0.000000
                          14975.745000     0.000000
                           6652.821900     0.000000
                           3084.270200     0.000000
                           1489.211300     0.000000
                            745.288670     0.000000
                            384.521300     0.000000
                            203.927220     0.000000
                            110.523340     0.000000
                             61.345569     0.000000
                             34.404375     0.000000
                             19.094147     0.000000
                             10.684628     0.000000
                              5.931463     0.000000
                              3.230992     0.000000
                              1.730655     0.000000
                              0.869483     0.000000
                              0.440589     0.000000
                              0.215859     0.000000
                              0.091015     0.000000
                              0.040174     0.000000
                              0.017215     1.000000
   41.1 A     1  2pz   52575799.000000     0.000000
                       15301659.000000     0.000000
                        4822461.600000     0.000000
                        1632045.600000     0.000000
                         584338.640000     0.000000
                         219508.320000     0.000000
                          86085.039000     0.000000
                          35172.956000     0.000000
                          14975.745000     0.000000
                           6652.821900     0.000000
                           3084.270200     0.000000
                           1489.211300     0.000000
                            745.288670     0.000000
                            384.521300     0.000000
                            203.927220     0.000000
                            110.523340     0.000000
                             61.345569     0.000000
                             34.404375     0.000000
                             19.094147     0.000000
                             10.684628     0.000000
                              5.931463     0.000000
                              3.230992     0.000000
                              1.730655     0.000000
                              0.869483     0.000000
                              0.440589     0.000000
                              0.215859     0.000000
                              0.091015     0.000000
                              0.040174     0.000000
                              0.017215     1.000000
   42.1 A     1  3d0     105911.200000     0.000020
                          24974.572000     0.000129
                           8108.852700     0.000677
                           3150.520500     0.003052
                           1380.647900     0.011950
                            658.188950     0.039706
                            332.909040     0.108875
                            176.023220     0.231727
                             95.780704     0.354949
                             53.337287     0.336096
                             29.864821     0.140603
                             16.526778    -0.033742
                              9.155323    -0.064042
                              4.984876    -0.024095
                              2.636633    -0.002233
                              1.354062     0.000305
                              0.656031     0.000103
                              0.269853     0.000008
                              0.103443     0.000000
                              0.036685     0.000000
   43.1 A     1  3d2-    105911.200000     0.000020
                          24974.572000     0.000129
                           8108.852700     0.000677
                           3150.520500     0.003052
                           1380.647900     0.011950
                            658.188950     0.039706
                            332.909040     0.108875
                            176.023220     0.231727
                             95.780704     0.354949
                             53.337287     0.336096
                             29.864821     0.140603
                             16.526778    -0.033742
                              9.155323    -0.064042
                              4.984876    -0.024095
                              2.636633    -0.002233
                              1.354062     0.000305
                              0.656031     0.000103
                              0.269853     0.000008
                              0.103443     0.000000
                              0.036685     0.000000
   44.1 A     1  3d1+    105911.200000     0.000020
                          24974.572000     0.000129
                           8108.852700     0.000677
                           3150.520500     0.003052
                           1380.647900     0.011950
                            658.188950     0.039706
                            332.909040     0.108875
                            176.023220     0.231727
                             95.780704     0.354949
                             53.337287     0.336096
                             29.864821     0.140603
                             16.526778    -0.033742
                              9.155323    -0.064042
                              4.984876    -0.024095
                              2.636633    -0.002233
                              1.354062     0.000305
                              0.656031     0.000103
                              0.269853     0.000008
                              0.103443     0.000000
                              0.036685     0.000000
   45.1 A     1  3d2+    105911.200000     0.000020
                          24974.572000     0.000129
                           8108.852700     0.000677
                           3150.520500     0.003052
                           1380.647900     0.011950
                            658.188950     0.039706
                            332.909040     0.108875
                            176.023220     0.231727
                             95.780704     0.354949
                             53.337287     0.336096
                             29.864821     0.140603
                             16.526778    -0.033742
                              9.155323    -0.064042
                              4.984876    -0.024095
                              2.636633    -0.002233
                              1.354062     0.000305
                              0.656031     0.000103
                              0.269853     0.000008
                              0.103443     0.000000
                              0.036685     0.000000
   46.1 A     1  3d1-    105911.200000     0.000020
                          24974.572000     0.000129
                           8108.852700     0.000677
                           3150.520500     0.003052
                           1380.647900     0.011950
                            658.188950     0.039706
                            332.909040     0.108875
                            176.023220     0.231727
                             95.780704     0.354949
                             53.337287     0.336096
                             29.864821     0.140603
                             16.526778    -0.033742
                              9.155323    -0.064042
                              4.984876    -0.024095
                              2.636633    -0.002233
                              1.354062     0.000305
                              0.656031     0.000103
                              0.269853     0.000008
                              0.103443     0.000000
                              0.036685     0.000000
   47.1 A     1  3d0     105911.200000    -0.000007
                          24974.572000    -0.000047
                           8108.852700    -0.000246
                           3150.520500    -0.001113
                           1380.647900    -0.004403
                            658.188950    -0.014782
                            332.909040    -0.041545
                            176.023220    -0.089264
                             95.780704    -0.132364
                             53.337287    -0.078125
                             29.864821     0.163137
                             16.526778     0.427766
                              9.155323     0.404323
                              4.984876     0.149842
                              2.636633     0.013528
                              1.354062    -0.001244
                              0.656031    -0.000625
                              0.269853    -0.000007
                              0.103443    -0.000015
                              0.036685     0.000003
   48.1 A     1  3d2-    105911.200000    -0.000007
                          24974.572000    -0.000047
                           8108.852700    -0.000246
                           3150.520500    -0.001113
                           1380.647900    -0.004403
                            658.188950    -0.014782
                            332.909040    -0.041545
                            176.023220    -0.089264
                             95.780704    -0.132364
                             53.337287    -0.078125
                             29.864821     0.163137
                             16.526778     0.427766
                              9.155323     0.404323
                              4.984876     0.149842
                              2.636633     0.013528
                              1.354062    -0.001244
                              0.656031    -0.000625
                              0.269853    -0.000007
                              0.103443    -0.000015
                              0.036685     0.000003
   49.1 A     1  3d1+    105911.200000    -0.000007
                          24974.572000    -0.000047
                           8108.852700    -0.000246
                           3150.520500    -0.001113
                           1380.647900    -0.004403
                            658.188950    -0.014782
                            332.909040    -0.041545
                            176.023220    -0.089264
                             95.780704    -0.132364
                             53.337287    -0.078125
                             29.864821     0.163137
                             16.526778     0.427766
                              9.155323     0.404323
                              4.984876     0.149842
                              2.636633     0.013528
                              1.354062    -0.001244
                              0.656031    -0.000625
                              0.269853    -0.000007
                              0.103443    -0.000015
                              0.036685     0.000003
   50.1 A     1  3d2+    105911.200000    -0.000007
                          24974.572000    -0.000047
                           8108.852700    -0.000246
                           3150.520500    -0.001113
                           1380.647900    -0.004403
                            658.188950    -0.014782
                            332.909040    -0.041545
                            176.023220    -0.089264
                             95.780704    -0.132364
                             53.337287    -0.078125
                             29.864821     0.163137
                             16.526778     0.427766
                              9.155323     0.404323
                              4.984876     0.149842
                              2.636633     0.013528
                              1.354062    -0.001244
                              0.656031    -0.000625
                              0.269853    -0.000007
                              0.103443    -0.000015
                              0.036685     0.000003
   51.1 A     1  3d1-    105911.200000    -0.000007
                          24974.572000    -0.000047
                           8108.852700    -0.000246
                           3150.520500    -0.001113
                           1380.647900    -0.004403
                            658.188950    -0.014782
                            332.909040    -0.041545
                            176.023220    -0.089264
                             95.780704    -0.132364
                             53.337287    -0.078125
                             29.864821     0.163137
                             16.526778     0.427766
                              9.155323     0.404323
                              4.984876     0.149842
                              2.636633     0.013528
                              1.354062    -0.001244
                              0.656031    -0.000625
                              0.269853    -0.000007
                              0.103443    -0.000015
                              0.036685     0.000003
   52.1 A     1  3d0     105911.200000     0.000004
                          24974.572000     0.000029
                           8108.852700     0.000151
                           3150.520500     0.000680
                           1380.647900     0.002694
                            658.188950     0.009015
                            332.909040     0.025311
                            176.023220     0.054175
                             95.780704     0.081018
                             53.337287     0.048855
                             29.864821    -0.090265
                             16.526778    -0.246113
                              9.155323    -0.206236
                              4.984876     0.172306
                              2.636633     0.505507
                              1.354062     0.395599
                              0.656031     0.111489
                              0.269853     0.006247
                              0.103443    -0.000029
                              0.036685    -0.000036
   53.1 A     1  3d2-    105911.200000     0.000004
                          24974.572000     0.000029
                           8108.852700     0.000151
                           3150.520500     0.000680
                           1380.647900     0.002694
                            658.188950     0.009015
                            332.909040     0.025311
                            176.023220     0.054175
                             95.780704     0.081018
                             53.337287     0.048855
                             29.864821    -0.090265
                             16.526778    -0.246113
                              9.155323    -0.206236
                              4.984876     0.172306
                              2.636633     0.505507
                              1.354062     0.395599
                              0.656031     0.111489
                              0.269853     0.006247
                              0.103443    -0.000029
                              0.036685    -0.000036
   54.1 A     1  3d1+    105911.200000     0.000004
                          24974.572000     0.000029
                           8108.852700     0.000151
                           3150.520500     0.000680
                           1380.647900     0.002694
                            658.188950     0.009015
                            332.909040     0.025311
                            176.023220     0.054175
                             95.780704     0.081018
                             53.337287     0.048855
                             29.864821    -0.090265
                             16.526778    -0.246113
                              9.155323    -0.206236
                              4.984876     0.172306
                              2.636633     0.505507
                              1.354062     0.395599
                              0.656031     0.111489
                              0.269853     0.006247
                              0.103443    -0.000029
                              0.036685    -0.000036
   55.1 A     1  3d2+    105911.200000     0.000004
                          24974.572000     0.000029
                           8108.852700     0.000151
                           3150.520500     0.000680
                           1380.647900     0.002694
                            658.188950     0.009015
                            332.909040     0.025311
                            176.023220     0.054175
                             95.780704     0.081018
                             53.337287     0.048855
                             29.864821    -0.090265
                             16.526778    -0.246113
                              9.155323    -0.206236
                              4.984876     0.172306
                              2.636633     0.505507
                              1.354062     0.395599
                              0.656031     0.111489
                              0.269853     0.006247
                              0.103443    -0.000029
                              0.036685    -0.000036
   56.1 A     1  3d1-    105911.200000     0.000004
                          24974.572000     0.000029
                           8108.852700     0.000151
                           3150.520500     0.000680
                           1380.647900     0.002694
                            658.188950     0.009015
                            332.909040     0.025311
                            176.023220     0.054175
                             95.780704     0.081018
                             53.337287     0.048855
                             29.864821    -0.090265
                             16.526778    -0.246113
                              9.155323    -0.206236
                              4.984876     0.172306
                              2.636633     0.505507
                              1.354062     0.395599
                              0.656031     0.111489
                              0.269853     0.006247
                              0.103443    -0.000029
                              0.036685    -0.000036
   57.1 A     1  3d0     105911.200000    -0.000001
                          24974.572000    -0.000008
                           8108.852700    -0.000042
                           3150.520500    -0.000189
                           1380.647900    -0.000746
                            658.188950    -0.002504
                            332.909040    -0.007016
                            176.023220    -0.015063
                             95.780704    -0.022420
                             53.337287    -0.013378
                             29.864821     0.026555
                             16.526778     0.070496
                              9.155323     0.058301
                              4.984876    -0.065834
                              2.636633    -0.177473
                              1.354062    -0.127085
                              0.656031     0.181760
                              0.269853     0.495490
                              0.103443     0.447072
                              0.036685     0.116353
   58.1 A     1  3d2-    105911.200000    -0.000001
                          24974.572000    -0.000008
                           8108.852700    -0.000042
                           3150.520500    -0.000189
                           1380.647900    -0.000746
                            658.188950    -0.002504
                            332.909040    -0.007016
                            176.023220    -0.015063
                             95.780704    -0.022420
                             53.337287    -0.013378
                             29.864821     0.026555
                             16.526778     0.070496
                              9.155323     0.058301
                              4.984876    -0.065834
                              2.636633    -0.177473
                              1.354062    -0.127085
                              0.656031     0.181760
                              0.269853     0.495490
                              0.103443     0.447072
                              0.036685     0.116353
   59.1 A     1  3d1+    105911.200000    -0.000001
                          24974.572000    -0.000008
                           8108.852700    -0.000042
                           3150.520500    -0.000189
[...]
                                    1  8  d0  -0.36522    1  8  d2- -1.32304    1  8  d1+ -0.81603    1  6  f0   0.25935
                                    1  6  f3- -0.34735    2  5  s    0.74200    2  4  py  -0.30905    2  4  pz   0.45843
                                    3  4  s    0.40388    4  5  s    1.08707    4  4  px  -0.36607    4  4  py   0.91143
                                    5  3  s   -1.16944    5  4  s   -4.57720    6  5  s   -1.21441    6  4  px   0.68183
                                    6  4  py   0.77520    7  3  s    1.13390    7  4  s    4.43109    8  5  s   -0.72656
                                    8  4  px  -0.36600    8  4  pz   0.37096   10  5  s    2.27595   10  4  px  -0.72155
                                   10  4  py   0.41379   11  5  s   -2.31989   11  4  px   0.70744   11  4  py   0.26315
                                   12  5  s    7.72582   12  4  px   0.77613   12  4  py  -1.90752   12  4  pz  -1.52285
                                   12  3  d2-  0.30657   12  3  d1+  0.39112   13  5  s   -7.68763   13  4  px  -0.68912
                                   13  4  py  -1.70662   13  4  pz  -1.80739   13  3  d2-  0.40397   13  3  d1+  0.28776
                                   14  5  s   -1.49275   14  4  py   0.29059   14  4  pz   0.25788   15  5  s    1.52601
                                   15  4  py   0.29243   15  4  pz   0.26014
   93.1     0.00000     0.15735     1  6  s    0.51755    1  7  s    0.74458    1 11  s   -3.15813    1  5  px  -0.42415
                                    1  5  pz   0.42069    1  6  px  -2.74161    1  6  py  -0.61692    1  6  pz   2.27876
                                    1  7  px   0.86871    1  7  py   0.51296    1  7  pz  -0.58951    1 10  px   2.85565
                                    1 10  py   4.58167    1 10  pz  -6.34036    1  8  d2+ -0.34998    2  4  s    0.48554
                                    2  5  s    3.08260    2  3  pz  -0.45121    2  4  pz  -1.21225    3  2  s   -0.34279
                                    3  3  s   -2.18205    3  4  s   -6.03436    3  3  px  -0.26861    3  3  pz  -0.50695
                                    4  5  s   -1.20153    5  3  s    0.52738    5  4  s    0.57538    7  4  s    0.81619
                                    8  4  s   -0.52690    8  5  s   -3.46286    8  3  px   0.28441    8  3  pz  -0.37101
                                    8  4  px   0.85277    8  4  pz  -1.11473    9  2  s    0.33527    9  3  s    2.37417
                                    9  4  s    7.11449    9  3  px   0.49544    9  3  pz  -0.39682   10  5  s   -0.31620
                                   10  4  px  -0.33496   11  5  s   -0.27512   11  4  pz  -0.30315   12  4  s    0.27435
                                   12  4  px  -0.51640   12  4  pz   0.44634   13  5  s    1.84826   13  4  pz   0.47561
                                   15  5  s   -0.43417
   94.1     0.00000     0.16154     1  5  s   -0.69202    1  6  s   -2.63305    1  7  s   -3.88404    1  8  s    0.34793
                                    1 11  s   21.74054    1  4  px   0.45585    1  5  px   2.81520    1  5  py  -0.27906
                                    1  5  pz   0.46588    1  6  px  14.29767    1  6  py  -1.78435    1  6  pz   2.45300
                                    1  7  px  -3.72268    1  7  py   0.55775    1  7  pz  -0.66002    1  8  px   1.02443
                                    1 10  px  -6.11456    1 10  py   1.63648    1 10  pz  -2.20893    1  8  d0  -0.79746
                                    1  8  d2- -0.51101    1  8  d1+  0.38322    1  8  d2+  1.74745    1  8  d1- -0.36792
                                    1  6  f2-  0.46640    2  4  s    0.26213    2  5  s    1.61895    2  4  px  -0.69343
                                    2  4  pz  -0.62389    3  3  s   -1.04326    3  4  s   -4.88831    3  3  pz  -0.26081
                                    4  4  s    0.36495    4  5  s    3.58901    4  3  py   0.30670    4  4  py   0.61135
                                    5  2  s   -0.26789    5  3  s   -1.42341    5  4  s   -4.64380    5  3  py   0.36895
                                    6  4  s    0.39093    6  5  s    4.02502    6  3  py  -0.26892    6  4  py  -0.59663
                                    6  4  pz   0.25507    7  2  s   -0.29370    7  3  s   -1.62442    7  4  s   -4.47267
                                    7  3  px  -0.27543    7  3  py  -0.36115    8  5  s    0.91980    8  4  px  -0.81106
                                    9  3  s   -0.42891    9  4  s   -2.59384   10  5  s    1.35718   10  4  px   1.26324
                                   10  4  py  -0.26481   10  4  pz  -0.30821   11  5  s    1.53641   11  4  px   1.32479
                                   11  4  pz   0.68504   12  4  s   -1.04094   12  5  s   -7.93645   12  3  py  -0.32339
                                   12  3  pz  -0.34469   12  4  px   1.96159   12  4  py  -0.75479   12  3  d1- -0.25622
                                   13  4  s   -1.04510   13  5  s   -9.16562   13  3  py   0.43123   13  3  pz   0.42202
                                   13  4  px   2.41446   13  4  pz   0.52436   14  5  s    1.96194   14  4  px  -0.83976
                                   15  5  s    2.14833   15  4  px  -0.94679
   95.1     0.00000     0.18384     1  6  s    0.28607    1  7  s    0.37751    1 11  s    0.50814    1  4  py   0.32318
                                    1  5  py   1.96608    1  5  pz   1.11763    1  6  px   0.74365    1  6  py   8.91007
                                    1  6  pz   6.13622    1  7  py  -2.00110    1  7  pz  -1.72949    1  8  py   0.56704
                                    1  8  pz   0.47852    1 10  py  -4.88040    1 10  pz  -4.08934    1  4  d2- -0.39568
                                    1  5  d2-  0.26247    1  8  d0   0.78352    1  8  d2-  1.90480    1  8  d1+  3.59296
                                    1  8  d1- -0.27283    1  6  f1-  0.33644    1  6  f0  -0.27560    2  5  s   -0.54263
                                    2  4  px   0.42503    3  4  s   -0.87767    4  4  px  -0.80626    4  4  py  -0.30088
                                    4  4  pz   0.45746    5  4  s    1.76105    6  4  px   0.77301    6  4  py  -0.49450
                                    6  4  pz   0.51494    7  4  s   -2.05799    8  5  s    0.33106    8  4  px  -0.45094
                                    9  4  s    0.65541   10  4  s    0.62653   10  5  s    6.91242   10  4  px   2.88807
                                   10  4  py  -1.55070   10  4  pz  -1.09017   11  4  s   -0.64089   11  5  s   -7.13493
                                   11  4  px  -2.57424   11  4  py  -0.97231   11  4  pz  -2.19709   12  4  s   -0.72171
                                   12  5  s  -40.71280   12  3  py  -1.77371   12  3  pz  -1.83859   12  4  px   4.83542
                                   12  4  py   5.52230   12  4  pz   6.64413   12  3  d0   0.64374   12  3  d2-  0.54968
                                   12  3  d2+ -0.93610   13  4  s    0.95704   13  5  s   39.80413   13  3  py  -1.75754
                                   13  3  pz  -1.83100   13  4  px  -5.04112   13  4  py   6.56494   13  4  pz   5.33725
                                   13  3  d0  -0.46943   13  3  d2-  0.30842   13  3  d1+  0.69210   13  3  d2+  0.97151
                                   14  4  s    0.54657   14  5  s    5.15005   14  4  px  -1.32000   14  4  py  -1.34297
                                   14  4  pz  -1.66566   15  4  s   -0.53521   15  5  s   -4.89317   15  4  px   1.31389
                                   15  4  py  -1.62742   15  4  pz  -1.28478
   96.1     0.00000     0.19410     1  4  s   -0.33399    1  5  s   -1.07509    1  6  s   -4.13403    1  7  s   -6.09042
                                    1  8  s    0.49313    1  9  s    0.27460    1 11  s    0.62561    1  4  px  -0.27076
                                    1  5  px  -1.50905    1  5  py   0.35402    1  5  pz  -0.44163    1  6  px  -4.58615
                                    1  6  py   1.20182    1  6  pz  -1.18193    1  7  px   0.34443    1 10  px   1.33446
                                    1 10  py  -0.41998    1  4  d0   0.56654    1  4  d1-  0.48126    1  5  d0  -0.38125
                                    1  5  d1- -0.28465    1  8  d0   3.26151    1  8  d2- -0.48152    1  8  d1+ -0.45315
                                    1  8  d2+ -0.64621    1  8  d1-  1.33758    1  6  f2-  0.33896    2  5  s    1.44064
                                    2  4  px   0.47417    2  4  py   0.30884    2  4  pz   0.81540    4  5  s   -1.03742
                                    4  4  px  -0.79284    4  4  pz  -0.97899    5  3  s    0.46836    5  4  s    0.40310
                                    5  3  px   0.35716    6  5  s   -1.27512    6  4  px  -1.09380    6  4  pz   0.80201
                                    7  2  s    0.29484    7  3  s    0.62821    7  3  px   0.41509    8  4  s    0.25038
                                    8  5  s    1.93943    8  4  py  -0.35864    8  4  pz  -0.70326    9  4  s    0.51332
                                   10  5  s    1.71714   10  4  px   0.45471   10  4  py   0.34492   10  4  pz  -2.27878
                                   11  5  s    0.65195   11  4  px  -0.49444   11  4  py  -0.38699   11  4  pz   1.92057
                                   12  4  s   -1.29844   12  5  s    1.30867   12  3  py  -0.33074   12  4  px  -1.36888
                                   12  4  pz   1.82409   12  3  d0   0.35928   12  3  d2-  0.32355   12  3  d1-  0.34570
                                   13  4  s   -1.24578   13  5  s    4.67408   13  3  px   0.26675   13  4  px  -0.72998
                                   13  4  py   1.19728   13  4  pz  -1.43258   13  3  d0   0.32651   13  3  d2- -0.28878
                                   14  5  s   -0.40591   14  4  px   0.39675   14  4  pz  -0.36059   15  5  s   -0.51331
                                   15  4  px   0.26233   15  4  pz   0.30584


 HOMO     86.1    -0.260669 =      -7.0932eV
 LUMO     87.1     0.101114 =       2.7515eV
 LUMO-HOMO         0.361784 =       9.8446eV

 Orbitals saved in record  2100.2


 **********************************************************************************************************************************
 DATASETS  * FILE   NREC   LENGTH (MB)   RECORD NAMES
              1      22       68.64       500      610      700      900      950      970     1000      129      960     1700   
                                          VAR    BASINP    GEOM    SYMINP    ZMAT    AOBASIS   BASIS     P2S    ABASIS    OPER   
                                         1101     1401     1411     1412     1650     1100     1400     1410     1200     1210   
                                          SR      EKINR    POTR     PVPR    MOLCAS      S      EKIN      POT      H0       H01  
                                         1080     1600   
                                         AOSYM     SMH  

              2       6       19.98       500      610      700     1000      520     2100   
                                          VAR    BASINP    GEOM     BASIS   MCVARS     RHF  

 PROGRAMS   *        TOTAL    HF-SCF       INT      FILE
 CPU TIMES  *      2862.90   1639.07   1223.62      0.02
 REAL TIME  *      3133.64 SEC
 DISK USED  *       123.76 MB (local),      351.55 GB (total)
 GA USED    *         0.01 MB       (max)       0.00 MB       (current)
 **********************************************************************************************************************************


 PROGRAM * CCSD (Closed-shell coupled cluster)     Authors: C. Hampel, H.-J. Werner, 1991, M. Deegan, P.J. Knowles, 1992


 Convergence thresholds:  THRVAR = 1.00D-08  THRDEN = 1.00D-06

 CCSD(T)     terms to be evaluated (factor= 1.000)


 Number of core orbitals:          49 (  49 )
 Number of closed-shell orbitals:  37 (  37 )
 Number of external orbitals:     627 ( 627 )

 Molecular orbitals read from record     2100.2  Type=RHF/CANONICAL  

 Number of N-1 electron functions:              37
 Number of N-2 electron functions:             703
 Number of singly external CSFs:             23199
 Number of doubly external CSFs:         269108400
 Total number of CSFs:                   269131600

 Length of J-op  integral file:               0.00 MB
 Length of K-op  integral file:              34.91 MB
 Length of 3-ext integral record:             0.00 MB

 For full I/O caching in triples, increase memory by 5341.96 Mwords to 10342.01 Mwords.

 Multipassing necessary in transformation. To avoid, increase memory by 2466.96 Mwords.

 Integral transformation finished. Total CPU:6458.30 sec, npass=  2  Memory used:4802.44 MW

 Reference energy:                 -27899.16149025

 MP2 singlet pair energy:              -1.61487084
 MP2 triplet pair energy:              -1.09940365
 MP2 correlation energy:               -2.71427449
 MP2 total energy:                 -27901.87576474

 SCS-MP2 correlation energy:           -2.62191839   (PS=  1.200000  PT=  0.333333)
 SCS-MP2 total energy:             -27901.78340864

 ITER.      SQ.NORM     CORR.ENERGY   TOTAL ENERGY   ENERGY CHANGE        DEN1      VAR(S)    VAR(P)  DIIS     TIME  TIME/IT
   1      1.67203002    -2.69872705-27901.86021730     0.01554744     0.11318053  0.39D-01  0.18D-01  1  1  9848.18  3413.19
   2      1.72365254    -2.68721236-27901.84870261     0.01151468    -0.06912355  0.61D-03  0.29D-02  2  2 14526.43  4161.67
   3      1.75387134    -2.69001993-27901.85151019    -0.00280757    -0.00882158  0.16D-02  0.22D-03  3  3 18060.40  4021.47
   4      1.76970330    -2.68827689-27901.84976714     0.00174304    -0.00532889  0.22D-03  0.53D-04  4  4 22164.69  4096.72
   5      1.78140313    -2.68763700-27901.84912725     0.00063990    -0.00244794  0.55D-04  0.80D-05  5  5 25878.89  4065.00
   6      1.78504371    -2.68745350-27901.84894375     0.00018350    -0.00035332  0.95D-05  0.26D-05  6  6 29808.89  4072.26
   7      1.78688194    -2.68726369-27901.84875394     0.00018981    -0.00019649  0.27D-05  0.88D-06  6  3 33310.74  4022.89
   8      1.78717675    -2.68730595-27901.84879620    -0.00004226     0.00012054  0.75D-06  0.14D-06  6  1 36730.67  3972.07
   9      1.78738018    -2.68730322-27901.84879347     0.00000273    -0.00003650  0.13D-06  0.50D-07  6  2 40262.45  3943.92
  10      1.78746613    -2.68729060-27901.84878085     0.00001262    -0.00000802  0.58D-07  0.14D-07  6  4 44044.93  3946.84
  11      1.78744030    -2.68730064-27901.84879089    -0.00001004     0.00000689  0.14D-07  0.43D-08  6  5 48222.31  3984.11
  12      1.78747385    -2.68729683-27901.84878708     0.00000382    -0.00000921  0.38D-08  0.11D-08  6  6 51545.04  3944.07
  13      1.78747776    -2.68729682-27901.84878707     0.00000001    -0.00000096  0.16D-08  0.32D-09  6  3 55139.99  3933.40
  14      1.78749002    -2.68729598-27901.84878623     0.00000084    -0.00000142  0.35D-09  0.12D-09  6  1 58807.16  3929.77

 Norm of t1 vector:      0.27538964      S-energy:    -0.00000202      T1 diagnostic:  0.02263689
                                                                       D1 diagnostic:  0.06982019
                                                                       D2 diagnostic:  0.17393529 (external, symmetry=1)

   CPU time for triples:   4921.44 sec for i =  1 - 16 / 37 (~   8.8 % done)
   CPU time for triples:  14608.44 sec for i = 17 - 17 / 37 (~  10.5 % done)
   CPU time for triples:  17426.47 sec for i = 18 - 20 / 37 (~  16.7 % done)
   CPU time for triples:   2602.49 sec for i = 21 - 21 / 37 (~  19.2 % done)
   CPU time for triples:   2600.25 sec for i = 22 - 24 / 37 (~  28.3 % done)
   CPU time for triples:  18059.49 sec for i = 25 - 25 / 37 (~  31.9 % done)
   CPU time for triples:   7064.41 sec for i = 26 - 27 / 37 (~  39.8 % done)
   CPU time for triples:  13899.48 sec for i = 28 - 28 / 37 (~  44.3 % done)
   CPU time for triples:   8072.51 sec for i = 29 - 29 / 37 (~  49.1 % done)
   CPU time for triples:   2270.52 sec for i = 30 - 30 / 37 (~  54.2 % done)
   CPU time for triples:  10173.80 sec for i = 31 - 31 / 37 (~  59.6 % done)
   CPU time for triples:  10334.57 sec for i = 32 - 32 / 37 (~  65.4 % done)
   CPU time for triples:   9538.58 sec for i = 33 - 33 / 37 (~  71.5 % done)
   CPU time for triples:  10337.90 sec for i = 34 - 34 / 37 (~  78.1 % done)
   CPU time for triples:  15065.01 sec for i = 35 - 35 / 37 (~  85.0 % done)
   CPU time for triples:   9953.69 sec for i = 36 - 36 / 37 (~  92.3 % done)
   CPU time for triples:  12172.25 sec for i = 37 - 37 / 37 (  100.0 % done)

 Total CPU time for triples: 169158.73 sec


 RESULTS
 =======

  Reference energy                   -27899.1614902506    
  CCSD singlet pair energy             -1.722821641347
  CCSD triplet pair energy             -0.964472310793
  CCSD correlation energy              -2.687295975416

  Triples (T) contribution             -0.134247770673
  Total correlation energy             -2.821543746089

  CCSD total energy                  -27901.8487862260    
  CCSD[T] energy                     -27901.9972887249    
  CCSD-T energy                      -27901.9779978391    
 !CCSD(T) total energy               -27901.9830339967    

 Timing summary (sec):

 STEP                 CPU(USER)    SYS     CPU(TOT)    WALL
 Transformation       6471.57    304.24   6775.81   6868.22
 CCSD iterations     52429.18    687.88  53117.06  55105.41
 Triples            169158.73   1320.83 170479.56 170735.87

 Program statistics:

 Available memory in ccsd:              4999994438
 Min. memory needed in ccsd:             594431812
 Max. memory used in ccsd:               852015045
 Max. memory used in cckext:             721334381 (14 integral passes)



 **********************************************************************************************************************************
 DATASETS  * FILE   NREC   LENGTH (MB)   RECORD NAMES
              1      23    39014.54       500      610      700      900      950      970     1000      129      960     1700   
                                          VAR    BASINP    GEOM    SYMINP    ZMAT    AOBASIS   BASIS     P2S    ABASIS    OPER   
                                         1101     1401     1411     1412     1650     1100     1400     1410     1200     1210   
                                          SR      EKINR    POTR     PVPR    MOLCAS      S      EKIN      POT      H0       H01  
                                         1080     1600     1380   
                                         AOSYM     SMH     JKOP   

              2       6       19.98       500      610      700     1000      520     2100   
                                          VAR    BASINP    GEOM     BASIS   MCVARS     RHF  

 PROGRAMS   *        TOTAL   CCSD(T)    HF-SCF       INT      FILE
 CPU TIMES  *    230922.68 228059.76   1639.07   1223.62      0.02
 REAL TIME  *    235848.95 SEC
 DISK USED  *        62.83 GB (local),      680.26 GB (total)
 SF USED    *        64.06 GB
 GA USED    *         0.01 MB       (max)       0.00 MB       (current)
 **********************************************************************************************************************************
 SETTING ENERGY_HF(1)   =    -27899.16149025  AU                              
 SETTING CORR_MP2(1)    =        -2.71427449  AU                              
 SETTING CORR_CCSDT(1)  =        -2.82154375  AU                              

 CCSD(T)/PA=CC-PVTZ-X2C,O=AUG-CC-PVTZ-X2C,H=AUG-CC-PVTZ-X2C,C=AUG-CC-PVTZ-X2C energy= -27901.983033996697

         CCSD(T)          HF-SCF
 -27901.98303400 -27899.16149025
 **********************************************************************************************************************************
 Molpro calculation terminated
