
 Working directory              : /state/partition2/shaaban/953017.phlam-s-sakura/molpro.jUxlw03yDT/
 Global scratch directory       : /state/partition2/shaaban/953017.phlam-s-sakura/molpro.jUxlw03yDT/
 Wavefunction directory         : /home/shaaban/wfu/
 Main file repository           : /state/partition2/shaaban/953017.phlam-s-sakura/molpro.jUxlw03yDT/

 id        : lill

 Nodes      nprocs
 u-0-9.local    8
 GA implementation: MPI file
 GA implementation (serial work in mppx): MPI file

 Using customized tuning parameters: mindgm=1; mindgv=20; mindgc=4; mindgr=1; noblas=0; minvec=7
 default implementation of scratch files=sf  


 Variables initialized (1025), CPU time= 0.02 sec
 ***,Pa(OH)4(Br)- MP2 and CCSD(T)
 memory,2500, m;
 file, 1, pa_oh4_br-B21-solvent.ccsd-tx.int, new;
 file, 2, pa_oh4_br-B21-solvent.ccsd-tx.wfu, new;
 
 gprint, basis;
 gprint, orbital=10;
 
 nosym;
 
 geomtyp=xyz;
 
 geometry={
 Including file /home/shaaban/molpro/PhD/bromide/pa_oh4_br/pa_oh4_br-B21-solvent.xyz
 }
 
 charge=0;
 
                                                                                 ! Select X2C SR Hamiltonian
 SET,DKROLL=101
 
                                                                                 ! Calculation with VTZ basis set
 basis={
 Pa=cc-pVTZ-DK;
 O=aug-cc-pVTZ-DK;
 H=aug-cc-pVTZ-DK;
 Br=aug-cc-pVTZ-DK;
 }
 
 
                                                                                 ! Hartree-Fock calculation
 {hf;}
 
                                                                                 ! MP2 and CCSD(T) calculation
 {ccsd(t);}
 
                                                                  ! Save HF energy and CCSD(T) correlation energy for VTZ basis set
 energy_hf(1) = energr(1);
 corr_mp2(1) = EMP2-energr(1);
 corr_ccsdt(1) = ENERGT(1)-energr(1);
 
 Commands initialized (840), CPU time= 0.01 sec, 684 directives.
 Default parameters read. Elapsed time= 0.12 sec

 Checking input...
 Passed
1


                                         ***  PROGRAM SYSTEM MOLPRO  ***
                                       Copyright, TTI GmbH Stuttgart, 2015
                                    Version 2022.3 linked Wed Nov 30 12:40:34 2022


 **********************************************************************************************************************************
 LABEL *   Pa(OH)P2 and C                                                                
  64 bit mpp version                                                                     DATE: 23-Apr-23          TIME: 23:10:44  
 **********************************************************************************************************************************

 SHA1:             e31ec9a5ea85254ab76f59d122cbdd51c71cf98b
 **********************************************************************************************************************************

 Memory per process:      2500 MW
 Total memory per node:  20000 MW

 GA preallocation disabled
 GA check disabled

 Variable memory set to 2500.0 MW



 Permanent file  1  pa_oh4_br-b21-solvent.ccsd-tx.in assigned.  Implementation=df  
 Permanent file  2  pa_oh4_br-b21-solvent.ccsd-tx.wf assigned.  Implementation=df  



 **********************************************************************************************************************************
 DATASETS  * FILE   NREC   LENGTH (MB)   RECORD NAMES
              1       1        0.03       500   
                                          VAR  

              2       1        0.03       500   
                                          VAR  

 PROGRAMS   *        TOTAL      FILE
 CPU TIMES  *         0.14      0.00
 REAL TIME  *         0.19 SEC
 DISK USED  *         0.10 MB (local),        0.81 MB (total)
 **********************************************************************************************************************************


 SETTING GEOMTYP        =    XYZ
 ZSYMEL=NOSYM

 SETTING CHARGE         =      0.0000000D+00                                  
 SETTING DKROLL         =       101.00000000                                  
 SETTING BASIS          =    PA=CC-PVTZ-DK,O=AUG-CC-PVTZ-DK,H=AUG-CC-PVTZ-DK,BR=AUG-CC-PVTZ-DK


 Recomputing integrals since basis changed


 Using spherical harmonics

 Library entry PA     S cc-pVTZ-DK3          selected for orbital group  1
 Library entry PA     P cc-pVTZ-DK3          selected for orbital group  1
 Library entry PA     D cc-pVTZ-DK3          selected for orbital group  1
 Library entry PA     F cc-pVTZ-DK3          selected for orbital group  1
 Library entry PA     G cc-pVTZ-DK3          selected for orbital group  1
 Library entry PA     H cc-pVTZ-DK3          selected for orbital group  1
 Library entry O      S aug-cc-pVTZ-DK       selected for orbital group  2
 Library entry O      P aug-cc-pVTZ-DK       selected for orbital group  2
 Library entry O      D aug-cc-pVTZ-DK       selected for orbital group  2
 Library entry O      F aug-cc-pVTZ-DK       selected for orbital group  2
 Library entry H      S aug-cc-pVTZ-DK       selected for orbital group  3
 Library entry H      P aug-cc-pVTZ-DK       selected for orbital group  3
 Library entry H      D aug-cc-pVTZ-DK       selected for orbital group  3
 Library entry BR     S aug-cc-pVTZ-DK       selected for orbital group 10
 Library entry BR     P aug-cc-pVTZ-DK       selected for orbital group 10
 Library entry BR     D aug-cc-pVTZ-DK       selected for orbital group 10
 Library entry BR     F aug-cc-pVTZ-DK       selected for orbital group 10


 PROGRAM * SEWARD (Integral evaluation for generally contracted gaussian basis sets)     Author: Roland Lindh, 1990

 Geometry written to block  1 of record 700


 Point group  C1  



 ATOMIC COORDINATES

 NR  ATOM    CHARGE       X              Y              Z

   1  PA     91.00    0.821455818    0.175137224    0.592472686
   2  O       8.00    2.206949262    3.336483973   -1.319524429
   3  H       1.00    2.333026875    4.103620002   -2.970675903
   4  O       8.00   -2.879877792    1.585860827    0.354932610
   5  H       1.00   -3.794853900    2.884799664   -0.539172237
   6  O       8.00    0.758054440   -1.947421877   -2.728563015
   7  H       1.00    0.021427769   -3.436108493   -3.476028795
   8  O       8.00   -0.485929754   -2.794381113    2.855734025
   9  H       1.00   -2.077746743   -3.590954366    3.261549376
  10  BR     35.00    5.918730730   -1.176148460    1.912390738

 Bond lengths in Bohr (Angstrom)

 1-2  3.945812758  1-3  5.514875508  1-4  3.968178028  1-5  5.471124764  1-6  3.941897386
     ( 2.088034190)     ( 2.918346440)     ( 2.099869381)     ( 2.895194543)     ( 2.085962264)

  1- 7  5.498531151   1- 8  3.955963609   1- 9  5.450944114   1-10  5.436025036   2- 3  1.825019025
       ( 2.909697378)       ( 2.093405789)       ( 2.884515403)       ( 2.876620567)       ( 0.965758477)

 4-5  1.823142029  6-7  1.821403796  8-9  1.825676964
     ( 0.964765214)     ( 0.963845380)     ( 0.966106644)

 Bond angles

  1-2-3  143.07593816   1-3-2   25.45690750   1-4-5  138.65684026   1-5-4   28.62703345

  1-6-7  142.40547058   1-7-6   25.93548827   1-8-9  137.97392506   1-9-8   29.06881166

  2-1-3   11.46715434   2-1-4   90.78388147   2-1-5   78.41858434   2-1-6   91.65116455

  2- 1- 7  102.63517119   2- 1- 8  174.08555869   2- 1- 9  167.84239893   2- 1-10   89.28763185

  3-1-4   87.92186567   3-1-5   75.21621191   3-1-6   81.00445417   3-1-7   91.69952707

  3- 1- 8  174.23344466   3- 1- 9  162.61281232   3- 1-10   94.41286908   4- 1- 5   12.71612628

  4-1-6   97.23808179   4-1-7   93.06558439   4-1-8   89.59016813   4-1-9   77.22220603

  4- 1-10  167.83257420   5- 1- 6   94.52240733   5- 1- 7   92.83513556   5- 1- 8  102.19588503

  5- 1- 9   89.69580811   5- 1-10  164.69079665   6- 1- 7   11.65904115   6- 1- 8   94.15736437

  6- 1- 9   91.83097021   6- 1-10   94.92187230   7- 1- 8   83.23713234   7- 1- 9   80.27946545

  7- 1-10   98.79118754   8- 1- 9   12.95726328   8- 1-10   89.10505747   9- 1-10  102.01042901


 BASIS DATA

   Nr Sym  Nuc  Type         Exponents   Contraction coefficients

    1.1 A     1  1s    57606659.000000    -0.000367    0.001999   -0.000726   -0.000116    0.000099   -0.000045
                                           0.000021    0.000037   -0.000048   -0.000061    0.000000
    2.1 A              15333099.000000    -0.000320    0.001748   -0.000634   -0.000102    0.000087   -0.000039
                                           0.000018    0.000032   -0.000042   -0.000054    0.000000
    3.1 A               5244434.800000    -0.000928    0.005048   -0.001835   -0.000295    0.000251   -0.000113
                                           0.000052    0.000094   -0.000122   -0.000155    0.000000
    4.1 A               1993947.300000    -0.001157    0.006271   -0.002285   -0.000367    0.000312   -0.000141
                                           0.000065    0.000117   -0.000153   -0.000193    0.000000
    5.1 A                831464.670000    -0.002291    0.012335   -0.004515   -0.000726    0.000618   -0.000279
                                           0.000128    0.000231   -0.000302   -0.000382    0.000000
    6.1 A                367473.800000    -0.003191    0.016990   -0.006266   -0.001010    0.000858   -0.000388
                                           0.000178    0.000321   -0.000420   -0.000532    0.000000
    7.1 A                170948.980000    -0.005514    0.028930   -0.010774   -0.001741    0.001479   -0.000668
                                           0.000307    0.000553   -0.000722   -0.000912    0.000000
    8.1 A                 82498.208000    -0.008096    0.041465   -0.015694   -0.002547    0.002160   -0.000976
                                           0.000448    0.000809   -0.001057   -0.001343    0.000000
    9.1 A                 41068.557000    -0.013295    0.066058   -0.025530   -0.004169    0.003528   -0.001595
                                           0.000733    0.001318   -0.001720   -0.002167    0.000000
   10.1 A                 20931.097000    -0.020180    0.095592   -0.038190   -0.006291    0.005308   -0.002400
                                           0.001102    0.001992   -0.002605   -0.003325    0.000000
   11.1 A                 10881.858000    -0.032132    0.142991   -0.059747   -0.009970    0.008375   -0.003787
                                           0.001739    0.003121   -0.004070   -0.005095    0.000000
                           5751.850200    -0.047664    0.193172   -0.086493   -0.014700    0.012273   -0.005550
                                           0.002550    0.004624   -0.006058   -0.007812    0.000000
                           3085.413800    -0.066495    0.240368   -0.117665   -0.020515    0.016984   -0.007683
                                           0.003528    0.006293   -0.008187   -0.010070    0.000000
                           1676.302600    -0.070537    0.231081   -0.122390   -0.021751    0.017896   -0.008097
                                           0.003721    0.006847   -0.009026   -0.012101    0.000000
                            920.364860    -0.023626    0.149744   -0.044426   -0.005530    0.005175   -0.002332
                                           0.001066    0.001619   -0.001931   -0.000993    0.000000
                            507.302700     0.114270    0.033479    0.202649    0.056505   -0.041129    0.018705
                                          -0.008589   -0.014887    0.019169    0.021466    0.000000
                            285.301180     0.244587   -0.013881    0.548461    0.172416   -0.122712    0.055943
                                          -0.025751   -0.047935    0.063734    0.088070    0.000000
                            162.083520     0.197985   -0.013442    0.605050    0.222521   -0.154869    0.070889
                                          -0.032578   -0.056192    0.072208    0.078604    0.000000
                             92.502257     0.134582   -0.014203    0.036384   -0.036593    0.019421   -0.009128
                                           0.004115    0.001534    0.001075    0.030263    0.000000
                             54.996696     0.249625   -0.043456   -0.678191   -0.645561    0.447427   -0.212041
                                           0.098447    0.193368   -0.267182   -0.419407    0.000000
                             32.498055     0.201939   -0.033776   -0.590782   -0.685300    0.476926   -0.227202
                                           0.104959    0.171310   -0.214887   -0.161724    0.000000
                             19.139224     0.048672   -0.008893   -0.102345    0.188180   -0.152559    0.072939
                                          -0.033085   -0.027730    0.028614   -0.135572    0.000000
                             11.382710     0.000154    0.001566    0.103892    0.862319   -0.976271    0.548029
                                          -0.263284   -0.581738    0.872326    1.707930    0.000000
                              6.786052    -0.001620    0.000219    0.057771    0.444812   -0.715550    0.417427
                                          -0.198011   -0.257648    0.233331   -0.802647    0.000000
                              4.149622    -0.000024    0.000424    0.007658    0.066411    0.448995   -0.350743
                                           0.170764    0.219628   -0.311481    1.107900    0.000000
                              2.398648     0.000213   -0.000251    0.000234    0.013877    0.872126   -0.849864
                                           0.456346    1.306700   -2.312130   -7.673080    0.000000
                              1.389239     0.000151    0.000095   -0.000474    0.002053    0.319027   -0.431399
                                           0.230037    0.271748    0.316072   10.899500    0.000000
                              0.799685    -0.000007   -0.000062    0.000088    0.000459    0.047512    0.436706
                                          -0.277849   -1.773160    4.827330   -2.764150    0.000000
                              0.427327     0.000014    0.000024   -0.000055   -0.000721    0.030699    0.715284
                                          -0.562089   -0.897175   -3.628160   -6.597810    0.000000
                              0.220940    -0.000002   -0.000010    0.000018   -0.000091    0.010077    0.233304
                                          -0.326108    1.532070   -1.217550    6.759770    0.000000
                              0.086038     0.000001    0.000003   -0.000007   -0.000059    0.001150    0.063372
                                           0.302160    1.024940    2.677980   -2.147740    0.000000
                              0.041219    -0.000000   -0.000002    0.000003   -0.000045    0.001535    0.118889
                                           0.692611   -0.772653   -0.537526   -1.019450    0.000000
                              0.018781     0.000000    0.000000   -0.000001   -0.000024    0.000588    0.043818
                                           0.253564   -0.484245   -0.804705    1.252550    1.000000
   12.1 A     1  2px   52575799.000000     0.000019
                       15301659.000000     0.000024
                        4822461.600000     0.000069
                        1632045.600000     0.000134
                         584338.640000     0.000304
                         219508.320000     0.000647
                          86085.039000     0.001453
                          35172.956000     0.003300
                          14975.745000     0.007723
                           6652.821900     0.018193
                           3084.270200     0.042170
                           1489.211300     0.090817
                            745.288670     0.167656
                            384.521300     0.234335
                            203.927220     0.219969
                            110.523340     0.174849
                             61.345569     0.191146
                             34.404375     0.137654
                             19.094147     0.033446
                             10.684628    -0.000968
                              5.931463    -0.000978
                              3.230992    -0.000011
                              1.730655     0.000166
                              0.869483     0.000022
                              0.440589     0.000009
                              0.215859    -0.000000
                              0.091015     0.000001
                              0.040174    -0.000000
                              0.017215     0.000000
   13.1 A     1  2py   52575799.000000     0.000019
                       15301659.000000     0.000024
                        4822461.600000     0.000069
                        1632045.600000     0.000134
                         584338.640000     0.000304
                         219508.320000     0.000647
                          86085.039000     0.001453
                          35172.956000     0.003300
                          14975.745000     0.007723
                           6652.821900     0.018193
                           3084.270200     0.042170
                           1489.211300     0.090817
                            745.288670     0.167656
                            384.521300     0.234335
                            203.927220     0.219969
                            110.523340     0.174849
                             61.345569     0.191146
                             34.404375     0.137654
                             19.094147     0.033446
                             10.684628    -0.000968
                              5.931463    -0.000978
                              3.230992    -0.000011
                              1.730655     0.000166
                              0.869483     0.000022
                              0.440589     0.000009
                              0.215859    -0.000000
                              0.091015     0.000001
                              0.040174    -0.000000
                              0.017215     0.000000
   14.1 A     1  2pz   52575799.000000     0.000019
                       15301659.000000     0.000024
                        4822461.600000     0.000069
                        1632045.600000     0.000134
                         584338.640000     0.000304
                         219508.320000     0.000647
                          86085.039000     0.001453
                          35172.956000     0.003300
                          14975.745000     0.007723
                           6652.821900     0.018193
                           3084.270200     0.042170
                           1489.211300     0.090817
                            745.288670     0.167656
                            384.521300     0.234335
                            203.927220     0.219969
                            110.523340     0.174849
                             61.345569     0.191146
                             34.404375     0.137654
                             19.094147     0.033446
                             10.684628    -0.000968
                              5.931463    -0.000978
                              3.230992    -0.000011
                              1.730655     0.000166
                              0.869483     0.000022
                              0.440589     0.000009
                              0.215859    -0.000000
                              0.091015     0.000001
                              0.040174    -0.000000
                              0.017215     0.000000
   15.1 A     1  2px   52575799.000000    -0.000022
                       15301659.000000    -0.000028
                        4822461.600000    -0.000083
                        1632045.600000    -0.000160
                         584338.640000    -0.000364
                         219508.320000    -0.000777
                          86085.039000    -0.001750
                          35172.956000    -0.003994
                          14975.745000    -0.009414
                           6652.821900    -0.022406
                           3084.270200    -0.052818
                           1489.211300    -0.116759
                            745.288670    -0.223675
                            384.521300    -0.322294
                            203.927220    -0.236594
                            110.523340     0.144783
                             61.345569     0.527162
                             34.404375     0.400928
                             19.094147     0.019444
                             10.684628    -0.122698
                              5.931463    -0.050980
                              3.230992    -0.002723
                              1.730655     0.002233
                              0.869483     0.000423
                              0.440589     0.000084
                              0.215859     0.000019
                              0.091015     0.000006
                              0.040174    -0.000002
                              0.017215     0.000001
   16.1 A     1  2py   52575799.000000    -0.000022
                       15301659.000000    -0.000028
                        4822461.600000    -0.000083
                        1632045.600000    -0.000160
                         584338.640000    -0.000364
                         219508.320000    -0.000777
                          86085.039000    -0.001750
                          35172.956000    -0.003994
                          14975.745000    -0.009414
                           6652.821900    -0.022406
                           3084.270200    -0.052818
                           1489.211300    -0.116759
                            745.288670    -0.223675
                            384.521300    -0.322294
                            203.927220    -0.236594
                            110.523340     0.144783
                             61.345569     0.527162
                             34.404375     0.400928
                             19.094147     0.019444
                             10.684628    -0.122698
                              5.931463    -0.050980
                              3.230992    -0.002723
                              1.730655     0.002233
                              0.869483     0.000423
                              0.440589     0.000084
                              0.215859     0.000019
                              0.091015     0.000006
                              0.040174    -0.000002
                              0.017215     0.000001
   17.1 A     1  2pz   52575799.000000    -0.000022
                       15301659.000000    -0.000028
                        4822461.600000    -0.000083
                        1632045.600000    -0.000160
                         584338.640000    -0.000364
                         219508.320000    -0.000777
                          86085.039000    -0.001750
                          35172.956000    -0.003994
                          14975.745000    -0.009414
                           6652.821900    -0.022406
                           3084.270200    -0.052818
                           1489.211300    -0.116759
                            745.288670    -0.223675
                            384.521300    -0.322294
                            203.927220    -0.236594
                            110.523340     0.144783
                             61.345569     0.527162
                             34.404375     0.400928
                             19.094147     0.019444
                             10.684628    -0.122698
                              5.931463    -0.050980
                              3.230992    -0.002723
                              1.730655     0.002233
                              0.869483     0.000423
                              0.440589     0.000084
                              0.215859     0.000019
                              0.091015     0.000006
                              0.040174    -0.000002
                              0.017215     0.000001
   18.1 A     1  2px   52575799.000000     0.000003
                       15301659.000000     0.000003
                        4822461.600000     0.000010
                        1632045.600000     0.000019
                         584338.640000     0.000042
                         219508.320000     0.000091
                          86085.039000     0.000206
                          35172.956000     0.000473
                          14975.745000     0.001130
                           6652.821900     0.002740
                           3084.270200     0.006653
                           1489.211300     0.015378
                            745.288670     0.031242
                            384.521300     0.047227
                            203.927220     0.017912
                            110.523340    -0.122974
                             61.345569    -0.327410
                             34.404375    -0.190189
                             19.094147     0.365250
                             10.684628     0.614511
                              5.931463     0.253732
                              3.230992     0.025246
                              1.730655     0.001447
                              0.869483    -0.000191
                              0.440589     0.000177
                              0.215859    -0.000001
                              0.091015     0.000034
                              0.040174    -0.000010
                              0.017215     0.000003
   19.1 A     1  2py   52575799.000000     0.000003
                       15301659.000000     0.000003
                        4822461.600000     0.000010
                        1632045.600000     0.000019
                         584338.640000     0.000042
                         219508.320000     0.000091
                          86085.039000     0.000206
                          35172.956000     0.000473
                          14975.745000     0.001130
                           6652.821900     0.002740
                           3084.270200     0.006653
                           1489.211300     0.015378
                            745.288670     0.031242
                            384.521300     0.047227
                            203.927220     0.017912
                            110.523340    -0.122974
                             61.345569    -0.327410
                             34.404375    -0.190189
                             19.094147     0.365250
                             10.684628     0.614511
                              5.931463     0.253732
                              3.230992     0.025246
                              1.730655     0.001447
                              0.869483    -0.000191
                              0.440589     0.000177
                              0.215859    -0.000001
                              0.091015     0.000034
                              0.040174    -0.000010
                              0.017215     0.000003
   20.1 A     1  2pz   52575799.000000     0.000003
                       15301659.000000     0.000003
                        4822461.600000     0.000010
                        1632045.600000     0.000019
                         584338.640000     0.000042
                         219508.320000     0.000091
                          86085.039000     0.000206
                          35172.956000     0.000473
                          14975.745000     0.001130
                           6652.821900     0.002740
                           3084.270200     0.006653
                           1489.211300     0.015378
                            745.288670     0.031242
                            384.521300     0.047227
                            203.927220     0.017912
                            110.523340    -0.122974
                             61.345569    -0.327410
                             34.404375    -0.190189
                             19.094147     0.365250
                             10.684628     0.614511
                              5.931463     0.253732
                              3.230992     0.025246
                              1.730655     0.001447
                              0.869483    -0.000191
                              0.440589     0.000177
                              0.215859    -0.000001
                              0.091015     0.000034
                              0.040174    -0.000010
                              0.017215     0.000003
   21.1 A     1  2px   52575799.000000    -0.000003
                       15301659.000000    -0.000004
                        4822461.600000    -0.000012
                        1632045.600000    -0.000022
                         584338.640000    -0.000051
                         219508.320000    -0.000109
                          86085.039000    -0.000246
                          35172.956000    -0.000564
                          14975.745000    -0.001337
                           6652.821900    -0.003210
                           3084.270200    -0.007664
                           1489.211300    -0.017293
                            745.288670    -0.034038
                            384.521300    -0.050240
                            203.927220    -0.027775
                            110.523340     0.078055
                             61.345569     0.225234
                             34.404375     0.124107
                             19.094147    -0.273398
                             10.684628    -0.553848
                              5.931463    -0.065400
                              3.230992     0.618467
                              1.730655     0.501115
                              0.869483     0.107385
                              0.440589     0.023200
                              0.215859     0.014696
                              0.091015     0.001512
                              0.040174     0.000132
                              0.017215    -0.000015
   22.1 A     1  2py   52575799.000000    -0.000003
                       15301659.000000    -0.000004
                        4822461.600000    -0.000012
                        1632045.600000    -0.000022
                         584338.640000    -0.000051
                         219508.320000    -0.000109
                          86085.039000    -0.000246
                          35172.956000    -0.000564
                          14975.745000    -0.001337
                           6652.821900    -0.003210
                           3084.270200    -0.007664
                           1489.211300    -0.017293
                            745.288670    -0.034038
                            384.521300    -0.050240
                            203.927220    -0.027775
                            110.523340     0.078055
                             61.345569     0.225234
                             34.404375     0.124107
                             19.094147    -0.273398
                             10.684628    -0.553848
                              5.931463    -0.065400
                              3.230992     0.618467
                              1.730655     0.501115
                              0.869483     0.107385
                              0.440589     0.023200
                              0.215859     0.014696
                              0.091015     0.001512
                              0.040174     0.000132
                              0.017215    -0.000015
   23.1 A     1  2pz   52575799.000000    -0.000003
                       15301659.000000    -0.000004
                        4822461.600000    -0.000012
                        1632045.600000    -0.000022
                         584338.640000    -0.000051
                         219508.320000    -0.000109
                          86085.039000    -0.000246
                          35172.956000    -0.000564
                          14975.745000    -0.001337
                           6652.821900    -0.003210
                           3084.270200    -0.007664
                           1489.211300    -0.017293
                            745.288670    -0.034038
                            384.521300    -0.050240
                            203.927220    -0.027775
                            110.523340     0.078055
                             61.345569     0.225234
                             34.404375     0.124107
                             19.094147    -0.273398
                             10.684628    -0.553848
                              5.931463    -0.065400
                              3.230992     0.618467
                              1.730655     0.501115
                              0.869483     0.107385
                              0.440589     0.023200
                              0.215859     0.014696
                              0.091015     0.001512
                              0.040174     0.000132
                              0.017215    -0.000015
   24.1 A     1  2px   52575799.000000     0.000001
                       15301659.000000     0.000002
                        4822461.600000     0.000005
                        1632045.600000     0.000010
                         584338.640000     0.000023
                         219508.320000     0.000049
                          86085.039000     0.000110
                          35172.956000     0.000253
                          14975.745000     0.000599
                           6652.821900     0.001437
                           3084.270200     0.003431
                           1489.211300     0.007737
                            745.288670     0.015236
                            384.521300     0.022464
                            203.927220     0.012457
                            110.523340    -0.035118
                             61.345569    -0.101380
                             34.404375    -0.055130
                             19.094147     0.131575
                             10.684628     0.274246
                              5.931463     0.008755
                              3.230992    -0.421565
                              1.730655    -0.381951
                              0.869483     0.226110
                              0.440589     0.602109
                              0.215859     0.367310
                              0.091015     0.055992
                              0.040174    -0.001133
                              0.017215     0.001123
   25.1 A     1  2py   52575799.000000     0.000001
                       15301659.000000     0.000002
                        4822461.600000     0.000005
                        1632045.600000     0.000010
                         584338.640000     0.000023
                         219508.320000     0.000049
                          86085.039000     0.000110
                          35172.956000     0.000253
                          14975.745000     0.000599
                           6652.821900     0.001437
                           3084.270200     0.003431
                           1489.211300     0.007737
                            745.288670     0.015236
                            384.521300     0.022464
                            203.927220     0.012457
                            110.523340    -0.035118
                             61.345569    -0.101380
                             34.404375    -0.055130
                             19.094147     0.131575
                             10.684628     0.274246
                              5.931463     0.008755
                              3.230992    -0.421565
                              1.730655    -0.381951
                              0.869483     0.226110
                              0.440589     0.602109
                              0.215859     0.367310
                              0.091015     0.055992
                              0.040174    -0.001133
                              0.017215     0.001123
   26.1 A     1  2pz   52575799.000000     0.000001
                       15301659.000000     0.000002
                        4822461.600000     0.000005
                        1632045.600000     0.000010
                         584338.640000     0.000023
                         219508.320000     0.000049
                          86085.039000     0.000110
                          35172.956000     0.000253
                          14975.745000     0.000599
                           6652.821900     0.001437
                           3084.270200     0.003431
                           1489.211300     0.007737
                            745.288670     0.015236
                            384.521300     0.022464
                            203.927220     0.012457
                            110.523340    -0.035118
                             61.345569    -0.101380
                             34.404375    -0.055130
                             19.094147     0.131575
                             10.684628     0.274246
                              5.931463     0.008755
                              3.230992    -0.421565
                              1.730655    -0.381951
                              0.869483     0.226110
                              0.440589     0.602109
                              0.215859     0.367310
                              0.091015     0.055992
                              0.040174    -0.001133
                              0.017215     0.001123
   27.1 A     1  2px   52575799.000000    -0.000000
                       15301659.000000    -0.000000
                        4822461.600000    -0.000001
                        1632045.600000    -0.000002
                         584338.640000    -0.000005
                         219508.320000    -0.000012
                          86085.039000    -0.000026
                          35172.956000    -0.000061
                          14975.745000    -0.000144
                           6652.821900    -0.000345
                           3084.270200    -0.000824
                           1489.211300    -0.001857
                            745.288670    -0.003658
                            384.521300    -0.005392
                            203.927220    -0.002989
                            110.523340     0.008470
                             61.345569     0.024432
                             34.404375     0.013266
                             19.094147    -0.032261
                             10.684628    -0.067372
                              5.931463    -0.001388
                              3.230992     0.110496
                              1.730655     0.103163
                              0.869483    -0.077537
                              0.440589    -0.217553
                              0.215859    -0.188949
                              0.091015     0.201050
                              0.040174     0.638180
                              0.017215     0.325623
   28.1 A     1  2py   52575799.000000    -0.000000
                       15301659.000000    -0.000000
                        4822461.600000    -0.000001
                        1632045.600000    -0.000002
                         584338.640000    -0.000005
                         219508.320000    -0.000012
                          86085.039000    -0.000026
                          35172.956000    -0.000061
                          14975.745000    -0.000144
                           6652.821900    -0.000345
                           3084.270200    -0.000824
                           1489.211300    -0.001857
                            745.288670    -0.003658
                            384.521300    -0.005392
                            203.927220    -0.002989
                            110.523340     0.008470
                             61.345569     0.024432
                             34.404375     0.013266
                             19.094147    -0.032261
                             10.684628    -0.067372
                              5.931463    -0.001388
                              3.230992     0.110496
                              1.730655     0.103163
                              0.869483    -0.077537
                              0.440589    -0.217553
                              0.215859    -0.188949
                              0.091015     0.201050
                              0.040174     0.638180
                              0.017215     0.325623
   29.1 A     1  2pz   52575799.000000    -0.000000
                       15301659.000000    -0.000000
                        4822461.600000    -0.000001
                        1632045.600000    -0.000002
                         584338.640000    -0.000005
                         219508.320000    -0.000012
                          86085.039000    -0.000026
                          35172.956000    -0.000061
                          14975.745000    -0.000144
                           6652.821900    -0.000345
                           3084.270200    -0.000824
                           1489.211300    -0.001857
                            745.288670    -0.003658
                            384.521300    -0.005392
                            203.927220    -0.002989
                            110.523340     0.008470
                             61.345569     0.024432
                             34.404375     0.013266
                             19.094147    -0.032261
                             10.684628    -0.067372
                              5.931463    -0.001388
                              3.230992     0.110496
                              1.730655     0.103163
                              0.869483    -0.077537
                              0.440589    -0.217553
                              0.215859    -0.188949
                              0.091015     0.201050
                              0.040174     0.638180
                              0.017215     0.325623
   30.1 A     1  2px   52575799.000000    -0.000001
                       15301659.000000    -0.000001
                        4822461.600000    -0.000003
                        1632045.600000    -0.000007
                         584338.640000    -0.000015
                         219508.320000    -0.000032
                          86085.039000    -0.000072
                          35172.956000    -0.000164
                          14975.745000    -0.000389
                           6652.821900    -0.000935
                           3084.270200    -0.002229
                           1489.211300    -0.005039
                            745.288670    -0.009894
                            384.521300    -0.014658
                            203.927220    -0.007979
                            110.523340     0.022762
                             61.345569     0.067088
                             34.404375     0.034676
                             19.094147    -0.086637
                             10.684628    -0.190694
                              5.931463     0.011165
                              3.230992     0.295554
                              1.730655     0.357960
                              0.869483    -0.483733
                              0.440589    -0.603813
                              0.215859     0.216450
                              0.091015     0.715516
                              0.040174     0.271379
                              0.017215     0.004110
   31.1 A     1  2py   52575799.000000    -0.000001
                       15301659.000000    -0.000001
                        4822461.600000    -0.000003
                        1632045.600000    -0.000007
                         584338.640000    -0.000015
                         219508.320000    -0.000032
                          86085.039000    -0.000072
                          35172.956000    -0.000164
                          14975.745000    -0.000389
                           6652.821900    -0.000935
                           3084.270200    -0.002229
                           1489.211300    -0.005039
                            745.288670    -0.009894
                            384.521300    -0.014658
                            203.927220    -0.007979
                            110.523340     0.022762
                             61.345569     0.067088
                             34.404375     0.034676
                             19.094147    -0.086637
                             10.684628    -0.190694
                              5.931463     0.011165
                              3.230992     0.295554
                              1.730655     0.357960
                              0.869483    -0.483733
                              0.440589    -0.603813
                              0.215859     0.216450
                              0.091015     0.715516
                              0.040174     0.271379
                              0.017215     0.004110
   32.1 A     1  2pz   52575799.000000    -0.000001
                       15301659.000000    -0.000001
                        4822461.600000    -0.000003
                        1632045.600000    -0.000007
                         584338.640000    -0.000015
                         219508.320000    -0.000032
                          86085.039000    -0.000072
                          35172.956000    -0.000164
                          14975.745000    -0.000389
                           6652.821900    -0.000935
                           3084.270200    -0.002229
                           1489.211300    -0.005039
                            745.288670    -0.009894
                            384.521300    -0.014658
                            203.927220    -0.007979
                            110.523340     0.022762
                             61.345569     0.067088
                             34.404375     0.034676
                             19.094147    -0.086637
                             10.684628    -0.190694
                              5.931463     0.011165
                              3.230992     0.295554
                              1.730655     0.357960
                              0.869483    -0.483733
                              0.440589    -0.603813
                              0.215859     0.216450
                              0.091015     0.715516
                              0.040174     0.271379
                              0.017215     0.004110
   33.1 A     1  2px   52575799.000000    -0.000002
                       15301659.000000    -0.000002
                        4822461.600000    -0.000006
                        1632045.600000    -0.000011
                         584338.640000    -0.000025
                         219508.320000    -0.000053
                          86085.039000    -0.000120
                          35172.956000    -0.000276
                          14975.745000    -0.000654
                           6652.821900    -0.001571
                           3084.270200    -0.003746
                           1489.211300    -0.008467
                            745.288670    -0.016630
                            384.521300    -0.024639
                            203.927220    -0.013376
                            110.523340     0.038624
                             61.345569     0.114098
                             34.404375     0.057529
                             19.094147    -0.152711
                             10.684628    -0.335337
                              5.931463     0.054060
                              3.230992     0.556644
                              1.730655     0.705623
                              0.869483    -1.835960
                              0.440589    -0.011551
                              0.215859     1.665810
                              0.091015    -0.586030
                              0.040174    -0.540877
                              0.017215     0.007337
   34.1 A     1  2py   52575799.000000    -0.000002
                       15301659.000000    -0.000002
                        4822461.600000    -0.000006
                        1632045.600000    -0.000011
                         584338.640000    -0.000025
                         219508.320000    -0.000053
                          86085.039000    -0.000120
                          35172.956000    -0.000276
                          14975.745000    -0.000654
                           6652.821900    -0.001571
                           3084.270200    -0.003746
                           1489.211300    -0.008467
                            745.288670    -0.016630
                            384.521300    -0.024639
                            203.927220    -0.013376
                            110.523340     0.038624
                             61.345569     0.114098
                             34.404375     0.057529
                             19.094147    -0.152711
                             10.684628    -0.335337
                              5.931463     0.054060
                              3.230992     0.556644
                              1.730655     0.705623
                              0.869483    -1.835960
                              0.440589    -0.011551
                              0.215859     1.665810
                              0.091015    -0.586030
                              0.040174    -0.540877
                              0.017215     0.007337
   35.1 A     1  2pz   52575799.000000    -0.000002
                       15301659.000000    -0.000002
                        4822461.600000    -0.000006
                        1632045.600000    -0.000011
                         584338.640000    -0.000025
                         219508.320000    -0.000053
                          86085.039000    -0.000120
                          35172.956000    -0.000276
                          14975.745000    -0.000654
                           6652.821900    -0.001571
                           3084.270200    -0.003746
                           1489.211300    -0.008467
                            745.288670    -0.016630
                            384.521300    -0.024639
                            203.927220    -0.013376
                            110.523340     0.038624
                             61.345569     0.114098
                             34.404375     0.057529
                             19.094147    -0.152711
                             10.684628    -0.335337
                              5.931463     0.054060
                              3.230992     0.556644
                              1.730655     0.705623
                              0.869483    -1.835960
                              0.440589    -0.011551
                              0.215859     1.665810
                              0.091015    -0.586030
                              0.040174    -0.540877
                              0.017215     0.007337
   36.1 A     1  2px   52575799.000000    -0.000002
                       15301659.000000    -0.000003
                        4822461.600000    -0.000008
                        1632045.600000    -0.000015
                         584338.640000    -0.000035
                         219508.320000    -0.000074
                          86085.039000    -0.000170
                          35172.956000    -0.000379
                          14975.745000    -0.000932
                           6652.821900    -0.002134
                           3084.270200    -0.005403
                           1489.211300    -0.011344
                            745.288670    -0.024550
                            384.521300    -0.031081
                            203.927220    -0.026696
                            110.523340     0.074398
                             61.345569     0.122627
                             34.404375     0.158172
                             19.094147    -0.396719
                             10.684628    -0.217338
                              5.931463    -0.310675
                              3.230992     1.976280
                              1.730655    -0.902813
                              0.869483    -2.796330
                              0.440589     4.377620
                              0.215859    -2.313900
                              0.091015    -0.327368
                              0.040174     0.867468
                              0.017215    -0.037484
   37.1 A     1  2py   52575799.000000    -0.000002
                       15301659.000000    -0.000003
                        4822461.600000    -0.000008
                        1632045.600000    -0.000015
                         584338.640000    -0.000035
                         219508.320000    -0.000074
                          86085.039000    -0.000170
                          35172.956000    -0.000379
                          14975.745000    -0.000932
                           6652.821900    -0.002134
                           3084.270200    -0.005403
                           1489.211300    -0.011344
                            745.288670    -0.024550
                            384.521300    -0.031081
                            203.927220    -0.026696
                            110.523340     0.074398
                             61.345569     0.122627
                             34.404375     0.158172
                             19.094147    -0.396719
                             10.684628    -0.217338
                              5.931463    -0.310675
                              3.230992     1.976280
                              1.730655    -0.902813
                              0.869483    -2.796330
                              0.440589     4.377620
                              0.215859    -2.313900
                              0.091015    -0.327368
                              0.040174     0.867468
                              0.017215    -0.037484
   38.1 A     1  2pz   52575799.000000    -0.000002
                       15301659.000000    -0.000003
                        4822461.600000    -0.000008
                        1632045.600000    -0.000015
                         584338.640000    -0.000035
                         219508.320000    -0.000074
                          86085.039000    -0.000170
                          35172.956000    -0.000379
                          14975.745000    -0.000932
                           6652.821900    -0.002134
                           3084.270200    -0.005403
                           1489.211300    -0.011344
                            745.288670    -0.024550
                            384.521300    -0.031081
                            203.927220    -0.026696
                            110.523340     0.074398
                             61.345569     0.122627
                             34.404375     0.158172
                             19.094147    -0.396719
                             10.684628    -0.217338
                              5.931463    -0.310675
                              3.230992     1.976280
                              1.730655    -0.902813
                              0.869483    -2.796330
                              0.440589     4.377620
                              0.215859    -2.313900
                              0.091015    -0.327368
                              0.040174     0.867468
                              0.017215    -0.037484
   39.1 A     1  2px   52575799.000000     0.000000
                       15301659.000000     0.000000
                        4822461.600000     0.000000
                        1632045.600000     0.000000
                         584338.640000     0.000000
                         219508.320000     0.000000
                          86085.039000     0.000000
                          35172.956000     0.000000
                          14975.745000     0.000000
                           6652.821900     0.000000
                           3084.270200     0.000000
                           1489.211300     0.000000
                            745.288670     0.000000
                            384.521300     0.000000
                            203.927220     0.000000
                            110.523340     0.000000
                             61.345569     0.000000
                             34.404375     0.000000
                             19.094147     0.000000
                             10.684628     0.000000
                              5.931463     0.000000
                              3.230992     0.000000
                              1.730655     0.000000
                              0.869483     0.000000
                              0.440589     0.000000
                              0.215859     0.000000
                              0.091015     0.000000
                              0.040174     0.000000
                              0.017215     1.000000
   40.1 A     1  2py   52575799.000000     0.000000
                       15301659.000000     0.000000
                        4822461.600000     0.000000
                        1632045.600000     0.000000
                         584338.640000     0.000000
                         219508.320000     0.000000
                          86085.039000     0.000000
                          35172.956000     0.000000
                          14975.745000     0.000000
                           6652.821900     0.000000
                           3084.270200     0.000000
                           1489.211300     0.000000
                            745.288670     0.000000
                            384.521300     0.000000
                            203.927220     0.000000
                            110.523340     0.000000
                             61.345569     0.000000
                             34.404375     0.000000
                             19.094147     0.000000
                             10.684628     0.000000
                              5.931463     0.000000
                              3.230992     0.000000
                              1.730655     0.000000
                              0.869483     0.000000
                              0.440589     0.000000
                              0.215859     0.000000
                              0.091015     0.000000
                              0.040174     0.000000
                              0.017215     1.000000
   41.1 A     1  2pz   52575799.000000     0.000000
                       15301659.000000     0.000000
                        4822461.600000     0.000000
                        1632045.600000     0.000000
                         584338.640000     0.000000
                         219508.320000     0.000000
                          86085.039000     0.000000
                          35172.956000     0.000000
                          14975.745000     0.000000
                           6652.821900     0.000000
                           3084.270200     0.000000
                           1489.211300     0.000000
                            745.288670     0.000000
                            384.521300     0.000000
                            203.927220     0.000000
                            110.523340     0.000000
                             61.345569     0.000000
                             34.404375     0.000000
                             19.094147     0.000000
                             10.684628     0.000000
                              5.931463     0.000000
                              3.230992     0.000000
                              1.730655     0.000000
                              0.869483     0.000000
                              0.440589     0.000000
                              0.215859     0.000000
                              0.091015     0.000000
                              0.040174     0.000000
                              0.017215     1.000000
   42.1 A     1  3d0     105911.200000     0.000022
                          24974.572000     0.000139
                           8108.852700     0.000701
                           3150.520500     0.003089
                           1380.647900     0.011984
                            658.188950     0.039719
                            332.909040     0.108866
                            176.023220     0.231711
                             95.780704     0.354943
                             53.337287     0.336108
                             29.864821     0.140614
                             16.526778    -0.033753
                              9.155323    -0.064060
                              4.984876    -0.024103
                              2.636633    -0.002234
                              1.354062     0.000305
                              0.656031     0.000103
                              0.269853     0.000008
                              0.103443     0.000000
                              0.036685     0.000000
   43.1 A     1  3d2-    105911.200000     0.000022
                          24974.572000     0.000139
                           8108.852700     0.000701
                           3150.520500     0.003089
                           1380.647900     0.011984
                            658.188950     0.039719
                            332.909040     0.108866
                            176.023220     0.231711
                             95.780704     0.354943
                             53.337287     0.336108
                             29.864821     0.140614
                             16.526778    -0.033753
                              9.155323    -0.064060
                              4.984876    -0.024103
                              2.636633    -0.002234
                              1.354062     0.000305
                              0.656031     0.000103
                              0.269853     0.000008
                              0.103443     0.000000
                              0.036685     0.000000
   44.1 A     1  3d1+    105911.200000     0.000022
                          24974.572000     0.000139
                           8108.852700     0.000701
                           3150.520500     0.003089
                           1380.647900     0.011984
                            658.188950     0.039719
                            332.909040     0.108866
                            176.023220     0.231711
                             95.780704     0.354943
                             53.337287     0.336108
                             29.864821     0.140614
                             16.526778    -0.033753
                              9.155323    -0.064060
                              4.984876    -0.024103
                              2.636633    -0.002234
                              1.354062     0.000305
                              0.656031     0.000103
                              0.269853     0.000008
                              0.103443     0.000000
                              0.036685     0.000000
   45.1 A     1  3d2+    105911.200000     0.000022
                          24974.572000     0.000139
                           8108.852700     0.000701
                           3150.520500     0.003089
                           1380.647900     0.011984
                            658.188950     0.039719
                            332.909040     0.108866
                            176.023220     0.231711
                             95.780704     0.354943
                             53.337287     0.336108
                             29.864821     0.140614
                             16.526778    -0.033753
                              9.155323    -0.064060
                              4.984876    -0.024103
                              2.636633    -0.002234
                              1.354062     0.000305
                              0.656031     0.000103
                              0.269853     0.000008
                              0.103443     0.000000
                              0.036685     0.000000
   46.1 A     1  3d1-    105911.200000     0.000022
                          24974.572000     0.000139
                           8108.852700     0.000701
                           3150.520500     0.003089
                           1380.647900     0.011984
                            658.188950     0.039719
                            332.909040     0.108866
                            176.023220     0.231711
                             95.780704     0.354943
                             53.337287     0.336108
                             29.864821     0.140614
                             16.526778    -0.033753
                              9.155323    -0.064060
                              4.984876    -0.024103
                              2.636633    -0.002234
                              1.354062     0.000305
                              0.656031     0.000103
                              0.269853     0.000008
                              0.103443     0.000000
                              0.036685     0.000000
   47.1 A     1  3d0     105911.200000    -0.000008
                          24974.572000    -0.000050
                           8108.852700    -0.000255
                           3150.520500    -0.001125
                           1380.647900    -0.004414
                            658.188950    -0.014783
                            332.909040    -0.041535
                            176.023220    -0.089246
                             95.780704    -0.132347
                             53.337287    -0.078124
                             29.864821     0.163122
                             16.526778     0.427754
                              9.155323     0.404335
                              4.984876     0.149854
                              2.636633     0.013530
                              1.354062    -0.001244
                              0.656031    -0.000625
                              0.269853    -0.000007
                              0.103443    -0.000015
                              0.036685     0.000003
   48.1 A     1  3d2-    105911.200000    -0.000008
                          24974.572000    -0.000050
                           8108.852700    -0.000255
                           3150.520500    -0.001125
                           1380.647900    -0.004414
                            658.188950    -0.014783
                            332.909040    -0.041535
                            176.023220    -0.089246
                             95.780704    -0.132347
                             53.337287    -0.078124
                             29.864821     0.163122
                             16.526778     0.427754
                              9.155323     0.404335
                              4.984876     0.149854
                              2.636633     0.013530
                              1.354062    -0.001244
                              0.656031    -0.000625
                              0.269853    -0.000007
                              0.103443    -0.000015
                              0.036685     0.000003
   49.1 A     1  3d1+    105911.200000    -0.000008
                          24974.572000    -0.000050
                           8108.852700    -0.000255
                           3150.520500    -0.001125
                           1380.647900    -0.004414
                            658.188950    -0.014783
                            332.909040    -0.041535
                            176.023220    -0.089246
                             95.780704    -0.132347
                             53.337287    -0.078124
                             29.864821     0.163122
                             16.526778     0.427754
                              9.155323     0.404335
                              4.984876     0.149854
                              2.636633     0.013530
                              1.354062    -0.001244
                              0.656031    -0.000625
                              0.269853    -0.000007
                              0.103443    -0.000015
                              0.036685     0.000003
   50.1 A     1  3d2+    105911.200000    -0.000008
                          24974.572000    -0.000050
                           8108.852700    -0.000255
                           3150.520500    -0.001125
                           1380.647900    -0.004414
                            658.188950    -0.014783
                            332.909040    -0.041535
                            176.023220    -0.089246
                             95.780704    -0.132347
                             53.337287    -0.078124
                             29.864821     0.163122
                             16.526778     0.427754
                              9.155323     0.404335
                              4.984876     0.149854
                              2.636633     0.013530
                              1.354062    -0.001244
                              0.656031    -0.000625
                              0.269853    -0.000007
                              0.103443    -0.000015
                              0.036685     0.000003
   51.1 A     1  3d1-    105911.200000    -0.000008
                          24974.572000    -0.000050
                           8108.852700    -0.000255
                           3150.520500    -0.001125
                           1380.647900    -0.004414
                            658.188950    -0.014783
                            332.909040    -0.041535
                            176.023220    -0.089246
                             95.780704    -0.132347
                             53.337287    -0.078124
                             29.864821     0.163122
                             16.526778     0.427754
                              9.155323     0.404335
                              4.984876     0.149854
                              2.636633     0.013530
                              1.354062    -0.001244
                              0.656031    -0.000625
                              0.269853    -0.000007
                              0.103443    -0.000015
                              0.036685     0.000003
   52.1 A     1  3d0     105911.200000     0.000005
                          24974.572000     0.000031
                           8108.852700     0.000156
                           3150.520500     0.000688
                           1380.647900     0.002701
                            658.188950     0.009017
                            332.909040     0.025307
                            176.023220     0.054170
                             95.780704     0.081016
                             53.337287     0.048863
                             29.864821    -0.090253
                             16.526778    -0.246108
                              9.155323    -0.206252
                              4.984876     0.172281
                              2.636633     0.505499
                              1.354062     0.395618
                              0.656031     0.111498
                              0.269853     0.006248
                              0.103443    -0.000028
                              0.036685    -0.000036
   53.1 A     1  3d2-    105911.200000     0.000005
                          24974.572000     0.000031
                           8108.852700     0.000156
                           3150.520500     0.000688
                           1380.647900     0.002701
                            658.188950     0.009017
                            332.909040     0.025307
                            176.023220     0.054170
                             95.780704     0.081016
                             53.337287     0.048863
                             29.864821    -0.090253
                             16.526778    -0.246108
                              9.155323    -0.206252
                              4.984876     0.172281
                              2.636633     0.505499
                              1.354062     0.395618
                              0.656031     0.111498
                              0.269853     0.006248
                              0.103443    -0.000028
                              0.036685    -0.000036
   54.1 A     1  3d1+    105911.200000     0.000005
                          24974.572000     0.000031
                           8108.852700     0.000156
                           3150.520500     0.000688
                           1380.647900     0.002701
                            658.188950     0.009017
                            332.909040     0.025307
                            176.023220     0.054170
                             95.780704     0.081016
                             53.337287     0.048863
                             29.864821    -0.090253
                             16.526778    -0.246108
                              9.155323    -0.206252
                              4.984876     0.172281
                              2.636633     0.505499
                              1.354062     0.395618
                              0.656031     0.111498
                              0.269853     0.006248
                              0.103443    -0.000028
                              0.036685    -0.000036
   55.1 A     1  3d2+    105911.200000     0.000005
                          24974.572000     0.000031
                           8108.852700     0.000156
                           3150.520500     0.000688
                           1380.647900     0.002701
                            658.188950     0.009017
                            332.909040     0.025307
                            176.023220     0.054170
                             95.780704     0.081016
                             53.337287     0.048863
                             29.864821    -0.090253
                             16.526778    -0.246108
                              9.155323    -0.206252
                              4.984876     0.172281
                              2.636633     0.505499
                              1.354062     0.395618
                              0.656031     0.111498
                              0.269853     0.006248
                              0.103443    -0.000028
                              0.036685    -0.000036
   56.1 A     1  3d1-    105911.200000     0.000005
                          24974.572000     0.000031
                           8108.852700     0.000156
                           3150.520500     0.000688
                           1380.647900     0.002701
                            658.188950     0.009017
                            332.909040     0.025307
                            176.023220     0.054170
                             95.780704     0.081016
                             53.337287     0.048863
                             29.864821    -0.090253
                             16.526778    -0.246108
                              9.155323    -0.206252
                              4.984876     0.172281
                              2.636633     0.505499
                              1.354062     0.395618
                              0.656031     0.111498
                              0.269853     0.006248
                              0.103443    -0.000028
                              0.036685    -0.000036
   57.1 A     1  3d0     105911.200000    -0.000001
                          24974.572000    -0.000009
                           8108.852700    -0.000043
                           3150.520500    -0.000191
                           1380.647900    -0.000748
                            658.188950    -0.002504
                            332.909040    -0.007015
                            176.023220    -0.015060
                             95.780704    -0.022418
                             53.337287    -0.013379
                             29.864821     0.026549
                             16.526778     0.070488
                              9.155323     0.058301
                              4.984876    -0.065821
                              2.636633    -0.177452
                              1.354062    -0.127087
                              0.656031     0.181724
                              0.269853     0.495430
                              0.103443     0.447107
                              0.036685     0.116435
   58.1 A     1  3d2-    105911.200000    -0.000001
                          24974.572000    -0.000009
                           8108.852700    -0.000043
                           3150.520500    -0.000191
                           1380.647900    -0.000748
                            658.188950    -0.002504
                            332.909040    -0.007015
                            176.023220    -0.015060
                             95.780704    -0.022418
                             53.337287    -0.013379
                             29.864821     0.026549
                             16.526778     0.070488
                              9.155323     0.058301
                              4.984876    -0.065821
                              2.636633    -0.177452
                              1.354062    -0.127087
                              0.656031     0.181724
                              0.269853     0.495430
                              0.103443     0.447107
                              0.036685     0.116435
   59.1 A     1  3d1+    105911.200000    -0.000001
                          24974.572000    -0.000009
                           8108.852700    -0.000043
                           3150.520500    -0.000191
                           1380.647900    -0.000748
                            658.188950    -0.002504
                            332.909040    -0.007015
                            176.023220    -0.015060
                             95.780704    -0.022418
                             53.337287    -0.013379
                             29.864821     0.026549
                             16.526778     0.070488
                              9.155323     0.058301
                              4.984876    -0.065821
                              2.636633    -0.177452
                              1.354062    -0.127087
                              0.656031     0.181724
                              0.269853     0.495430
                              0.103443     0.447107
                              0.036685     0.116435
   60.1 A     1  3d2+    105911.200000    -0.000001
                          24974.572000    -0.000009
                           8108.852700    -0.000043
                           3150.520500    -0.000191
                           1380.647900    -0.000748
                            658.188950    -0.002504
                            332.909040    -0.007015
                            176.023220    -0.015060
                             95.780704    -0.022418
                             53.337287    -0.013379
                             29.864821     0.026549
                             16.526778     0.070488
                              9.155323     0.058301
                              4.984876    -0.065821
                              2.636633    -0.177452
                              1.354062    -0.127087
                              0.656031     0.181724
[...]
                                    7  1  s   -0.56847
   70.1     2.00000    -0.64219     1  5  py   0.27236    2  1  pz  -0.45978    3  1  s    0.38591    8  1  px   0.47709
                                    9  1  s   -0.41543
   71.1     2.00000    -0.56590     2  1  py   0.33187    4  1  px   0.35964    6  1  pz   0.29718    8  1  py  -0.34323
   72.1     2.00000    -0.54088     4  1  py   0.35086    4  1  pz   0.42341    6  1  px   0.42402
   73.1     2.00000    -0.53240     1  5  py   0.31759    2  1  px   0.30876    4  1  px  -0.36475    4  1  pz   0.41508
                                    6  1  pz   0.34636
   74.1     2.00000    -0.52041     2  1  px   0.63177    6  1  px   0.31629    8  1  pz  -0.33993
   75.1     2.00000    -0.51961     2  1  px   0.36214    8  1  pz   0.66876
   76.1     2.00000    -0.50983     1  5  pz  -0.25047    2  1  py   0.54659    8  1  py   0.53700
   77.1     2.00000    -0.50486     4  1  px  -0.35264    4  1  py  -0.39211    6  1  px   0.50375    6  1  py  -0.27615
   78.1     2.00000    -0.50140     2  1  py  -0.33215    4  1  pz  -0.28916    6  1  py  -0.26694    6  1  pz   0.55149
                                    8  1  py   0.28198
   79.1     2.00000    -0.40006    10  3  px   0.82470
   80.1     2.00000    -0.37387    10  3  py   0.52444   10  3  pz   0.75220
   81.1     2.00000    -0.37006    10  3  px   0.31755   10  3  py   0.71856   10  3  pz  -0.49503
   82.1     0.00000     0.01175     1  5  s   -0.78516    1  6  s   -2.75120    1  7  s   -3.45980    1 11  s    2.14341
                                    1  5  px   0.81488    1  5  py  -0.29422    1  5  pz   0.33399    1  6  px   2.34196
                                    1  6  py  -0.66164    1  6  pz   0.98681    1 10  px  -1.17217    1 10  py   0.70604
                                    2  5  s    0.82980    2  4  py  -0.37426    3  4  s    0.40339    4  5  s    1.29292
                                    4  4  px   0.63305    4  4  py  -0.27058    5  4  s    0.42598    6  5  s    0.29369
                                    7  3  s    0.25221    7  4  s    0.66286    8  5  s    0.50205    9  4  s    0.28950
                                   10  7  s   -1.03468   10  6  px   0.32593
   83.1     0.00000     0.02723     1  4  s    0.28099    1  5  s    0.89297    1  6  s    3.26628    1  7  s    4.55279
                                    1 11  s   -2.28337    1  5  px  -0.76814    1  5  pz  -0.77891    1  6  px  -2.45731
                                    1  6  py   0.58423    1  6  pz  -1.86031    1 10  px   1.33478    1 10  pz   2.06679
                                    2  5  s   -0.48316    4  5  s   -1.82152    4  4  px  -0.54737    5  4  s   -0.67557
                                    6  5  s   -2.04143    6  4  py  -0.29765    6  4  pz  -0.65375    7  3  s    0.42274
                                   10  6  pz  -0.29578
   84.1     0.00000     0.02984     1  5  s    0.26412    1  6  s    0.95682    1  7  s    1.31177    1 11  s   -1.36614
                                    1  4  py  -0.27088    1  5  px  -0.69795    1  5  py  -1.45983    1  5  pz   0.66243
                                    1  6  px  -2.04051    1  6  py  -3.26256    1  6  pz   1.45732    1  7  py  -0.27961
                                    1 10  px   1.55195    1 10  py   2.47785    1 10  pz  -0.96085    2  5  s    1.90322
                                    2  4  py  -0.58906    4  5  s   -0.32242    5  4  s    0.77185    6  5  s   -0.50221
                                    8  5  s   -2.58194    8  4  px  -0.30056    8  4  py  -0.64295    8  4  pz   0.53320
                                    9  4  s   -0.36091   10  7  s    0.42677
   85.1     0.00000     0.03768     1  5  px  -0.92351    1  5  py   0.35843    1  5  pz   0.74239    1  6  px  -2.41221
                                    1  6  py   1.24492    1  6  pz   1.42428    1  7  pz   0.31826    1 10  px   1.64612
                                    1 10  pz  -0.91320    1  4  d2+  0.30898    1  8  d2- -0.37894    2  5  s    0.59470
                                    2  4  py  -0.40189    2  4  pz   0.29833    3  4  s    0.53338    4  5  s   -1.83083
                                    4  4  px  -0.92615    4  4  py   0.34559    5  4  s   -1.75302    6  5  s    1.15579
                                    6  4  py   0.57723    6  4  pz   0.87759    7  4  s    1.65313    9  4  s    0.37717
                                   10  7  s   -0.51801
   86.1     0.00000     0.04580     1  6  s   -0.66613    1  7  s   -0.70834    1 11  s   -3.61847    1  5  py  -0.31222
                                    1  5  pz  -0.55100    1  6  px  -0.78982    1  6  py  -0.93002    1  6  pz  -1.48085
                                    1 10  px   1.14189    1 10  pz   1.28694    1  4  d2- -0.29371    1  4  d2+  0.33160
                                    1  4  d1-  0.31999    1  8  d2- -0.52706    1  8  d1+  0.42072    1  8  d1-  0.63654
                                    2  5  s    1.20304    2  4  py  -0.58035    2  4  pz   0.63393    3  3  s    0.28502
                                    3  4  s    2.89905    4  5  s   -0.76423    5  4  s    0.42390    6  5  s   -1.13626
                                    6  4  pz  -0.54327    7  4  s   -0.54876    8  5  s    1.12752    8  4  px   0.42188
                                    8  4  py   0.71236    8  4  pz  -0.32352    9  3  s    0.25970    9  4  s    2.67541
                                   10  7  s   -0.42139
   87.1     0.00000     0.06013     1  5  s    0.34310    1  6  s    1.43925    1  7  s    2.40592    1  8  s   -0.42545
                                    1 11  s   -6.70622    1  5  px   0.34430    1  6  px  -0.74059    1  6  py   0.53721
                                    1  6  pz  -1.35487    1  7  px   0.92109    1  7  pz   0.33887    1 10  px   3.46494
                                    1 10  py  -1.08974    1 10  pz   2.48039    2  5  s   -0.75571    3  4  s    0.50861
                                    4  4  s   -0.33631    4  5  s   -1.48236    4  4  px   0.49366    4  4  py  -0.64252
                                    4  4  pz   0.47116    5  3  s    1.22113    5  4  s    4.84490    6  5  s   -1.08552
                                    6  4  py   0.40739    7  3  s    0.60775    7  4  s    2.24930    9  4  s    0.39507
                                   10  7  s   -1.28831   10  5  px   0.35925
   88.1     0.00000     0.06192     1  5  s   -0.30197    1  6  s   -1.09461    1  7  s   -1.51375    1 11  s   -0.33708
                                    1  5  px   0.27263    1  5  pz   0.78597    1  6  px   1.70860    1  6  py  -1.22973
                                    1  6  pz   1.48689    1  7  px  -0.52054    1  7  py   0.36030    1 10  px  -1.15243
                                    1 10  py   3.05405    1 10  pz   0.93134    1  4  d1- -0.27488    1  8  d0  -0.76239
                                    1  8  d2- -0.28266    1  8  d2+  0.65255    1  8  d1- -0.80842    2  5  s    0.70716
                                    2  4  py  -0.31505    3  4  s   -0.30499    4  5  s    0.50669    5  3  s   -0.30546
                                    5  4  s   -1.66004    6  5  s    0.34122    6  4  px   0.29211    6  4  py   0.65024
                                    7  3  s    0.92015    7  4  s    3.79565    7  3  pz   0.26976    8  5  s   -0.48786
                                    9  4  s    0.34771   10  7  s   -1.15853   10  6  px   0.34516   10  6  py  -0.37495
   89.1     0.00000     0.07173     1  6  s    0.50561    1  7  s    0.76690    1 11  s   -1.05809    1  6  px  -1.05058
                                    1  6  py  -0.47888    1  6  pz   1.01077    1  7  px   0.31275    1  7  py   0.48260
                                    1  7  pz  -0.28669    1 10  px   3.26795    1 10  py   4.25046    1 10  pz  -3.91943
                                    2  4  s    0.29318    2  5  s    1.73519    2  3  pz  -0.27901    2  4  py   0.39516
                                    2  4  pz  -1.22319    3  3  s   -1.44703    3  4  s   -5.34643    3  3  pz  -0.26788
                                    4  5  s   -0.67734    5  3  s    0.34574    5  4  s    0.54598    6  5  s    0.59542
                                    7  3  s   -0.38779    8  4  s   -0.36282    8  5  s   -2.32771    8  4  px   0.94196
                                    8  4  py   0.58481    9  3  s    1.60506    9  4  s    5.75266    9  3  px   0.37251
                                   10  6  py  -0.37062   10  6  pz   0.31975
   90.1     0.00000     0.08029     1  5  s   -0.28082    1  6  s   -1.00422    1  7  s   -1.51275    1 11  s   16.12107
                                    1  4  px   0.42615    1  5  px   2.55040    1  5  py  -1.07877    1  5  pz   0.83462
                                    1  6  px   9.75991    1  6  py  -3.90128    1  6  pz   3.28896    1  7  px  -1.50328
                                    1  7  py   0.49997    1  7  pz  -0.58151    1  8  px   0.42733    1 10  px  -6.07065
                                    1 10  py   1.28199    1 10  pz  -3.63574    1  4  d1+  0.25635    1  4  d2+  0.54175
                                    1  5  d2+ -0.29462    1  8  d0  -0.77941    1  8  d2- -0.67525    1  8  d1+  0.36793
                                    1  8  d2+  1.73453    1  8  d1- -0.68966    1  6  f1+ -0.28182    1  6  f1-  0.25004
                                    1  6  f0  -0.25389    1  6  f3- -0.49368    2  5  s    1.77617    2  4  px  -0.46620
                                    3  3  s   -0.62982    3  4  s   -2.69525    3  3  pz  -0.27988    4  5  s    1.88612
                                    4  4  px   0.42275    4  4  py   0.54277    4  4  pz  -0.25679    5  3  s   -0.31608
                                    5  4  s   -4.90756    6  4  s    0.27239    6  5  s    1.82590    6  4  px  -0.55187
                                    6  4  py  -0.62676    6  4  pz  -0.32833    7  3  s   -0.97897    7  4  s   -4.41089
                                    8  5  s    0.67899    8  4  px  -0.41199    8  4  pz  -0.26044    9  3  s   -0.51572
                                    9  4  s   -2.75527   10  7  s   -8.02552   10  5  px   1.29424   10  5  py  -0.27997
                                   10  5  pz   0.35615   10  6  px   2.48347   10  6  py  -0.52995   10  6  pz   0.88129
                                   10  4  d2+ -0.28461
   91.1     0.00000     0.08751     1  5  s   -0.53276    1  6  s   -2.02055    1  7  s   -2.97191    1 11  s    1.33204
                                    1  5  px   0.26083    1  6  px   1.27436    1  6  pz   0.40071    1 10  px  -0.66320
                                    1 10  pz  -0.32591    1  4  d0   0.33371    1  4  d2-  0.43904    1  4  d1+  0.48282
                                    1  8  d0   0.38408    1  8  d2-  0.47615    1  2  f1+  0.48592    1  2  f2-  0.31478
                                    1  2  f2+  0.25803    2  5  s    0.42786    4  5  s    1.67348    5  3  s   -0.31934
                                    6  5  s    0.30318    7  4  s   -0.26588   10  7  s    0.73423   10  6  px  -0.28112
                                   10  6  pz  -0.35552


 HOMO     81.1    -0.370056 =     -10.0697eV
 LUMO     82.1     0.011754 =       0.3199eV
 LUMO-HOMO         0.381810 =      10.3896eV

 Orbitals saved in record  2100.2


 **********************************************************************************************************************************
 DATASETS  * FILE   NREC   LENGTH (MB)   RECORD NAMES
              1      22       50.28       500      610      700      900      950      970     1000      129      960     1700   
                                          VAR    BASINP    GEOM    SYMINP    ZMAT    AOBASIS   BASIS     P2S    ABASIS    OPER   
                                         1101     1401     1411     1412     1650     1100     1400     1410     1200     1210   
                                          SR      EKINR    POTR     PVPR    MOLCAS      S      EKIN      POT      H0       H01  
                                         1080     1600   
                                         AOSYM     SMH  

              2       6       15.86       500      610      700     1000      520     2100   
                                          VAR    BASINP    GEOM     BASIS   MCVARS     RHF  

 PROGRAMS   *        TOTAL    HF-SCF       INT      FILE
 CPU TIMES  *       570.18    263.54    306.49      0.00
 REAL TIME  *       656.30 SEC
 DISK USED  *        83.22 MB (local),       98.33 GB (total)
 GA USED    *         0.01 MB       (max)       0.00 MB       (current)
 **********************************************************************************************************************************


 PROGRAM * CCSD (Closed-shell coupled cluster)     Authors: C. Hampel, H.-J. Werner, 1991, M. Deegan, P.J. Knowles, 1992


 Convergence thresholds:  THRVAR = 1.00D-08  THRDEN = 1.00D-06

 CCSD(T)     terms to be evaluated (factor= 1.000)


 Number of core orbitals:          57 (  57 )
 Number of closed-shell orbitals:  24 (  24 )
 Number of external orbitals:     415 ( 415 )

 Molecular orbitals read from record     2100.2  Type=RHF/CANONICAL  

 Number of N-1 electron functions:              24
 Number of N-2 electron functions:             300
 Number of singly external CSFs:              9960
 Number of doubly external CSFs:          49605780
 Total number of CSFs:                    49615741

 Length of J-op  integral file:               0.00 MB
 Length of K-op  integral file:              16.89 MB
 Length of 3-ext integral record:             0.00 MB

 Memory could be reduced to 2010.25 Mwords without degradation in triples

 Integral transformation finished. Total CPU: 591.18 sec, npass=  1  Memory used:1651.94 MW

 Reference energy:                 -30084.45721246

 MP2 singlet pair energy:              -0.96247110
 MP2 triplet pair energy:              -0.64948430
 MP2 correlation energy:               -1.61195540
 MP2 total energy:                 -30086.06916787

 SCS-MP2 correlation energy:           -1.55908889   (PS=  1.200000  PT=  0.333333)
 SCS-MP2 total energy:             -30086.01630135

 ITER.      SQ.NORM     CORR.ENERGY   TOTAL ENERGY   ENERGY CHANGE        DEN1      VAR(S)    VAR(P)  DIIS     TIME  TIME/IT
   1      1.44588077    -1.62205522-30086.07926768    -0.01009981     0.05376721  0.30D-01  0.12D-01  1  1   935.29   346.00
   2      1.47692894    -1.61219093-30086.06940339     0.00986429    -0.04278457  0.43D-03  0.22D-02  2  2  1318.69   368.01
   3      1.49858459    -1.61453203-30086.07174449    -0.00234110    -0.00545268  0.12D-02  0.16D-03  3  3  1718.00   380.93
   4      1.51103056    -1.61315218-30086.07036465     0.00137984    -0.00370065  0.21D-03  0.39D-04  4  4  2039.60   367.59
   5      1.52045020    -1.61241616-30086.06962863     0.00073602    -0.00170624  0.45D-04  0.54D-05  5  5  2338.23   355.03
   6      1.52338543    -1.61225065-30086.06946311     0.00016552    -0.00019431  0.74D-05  0.20D-05  6  6  2628.54   345.29
   7      1.52481098    -1.61212418-30086.06933664     0.00012647    -0.00004798  0.19D-05  0.33D-06  6  1  2922.93   338.91
   8      1.52527638    -1.61211352-30086.06932598     0.00001066    -0.00006108  0.36D-06  0.83D-07  6  2  3229.53   335.70
   9      1.52536237    -1.61212036-30086.06933282    -0.00000684     0.00001489  0.86D-07  0.19D-07  6  4  3533.39   332.88
  10      1.52539997    -1.61212251-30086.06933497    -0.00000215    -0.00000250  0.18D-07  0.49D-08  6  3  3841.41   331.04
  11      1.52542077    -1.61212084-30086.06933331     0.00000167    -0.00000516  0.61D-08  0.12D-08  6  5  4135.71   328.27
  12      1.52542011    -1.61212325-30086.06933571    -0.00000240     0.00000444  0.17D-08  0.43D-09  6  1  4442.71   327.06
  13      1.52542202    -1.61212253-30086.06933500     0.00000071    -0.00000023  0.29D-09  0.87D-10  6  6  4748.81   325.95
  14      1.52542127    -1.61212317-30086.06933564    -0.00000064     0.00000079  0.67D-10  0.16D-10  6  2  5055.05   325.02

 Norm of t1 vector:      0.24235999      S-energy:     0.00000032      T1 diagnostic:  0.02473576
                                                                       D1 diagnostic:  0.07412487
                                                                       D2 diagnostic:  0.14718527 (internal)

   CPU time for triples:   2270.26 sec for i =  1 - 15 / 24 (~  25.8 % done)
   CPU time for triples:   2424.89 sec for i = 16 - 20 / 24 (~  59.0 % done)
   CPU time for triples:   2040.26 sec for i = 21 - 23 / 24 (~  88.4 % done)
   CPU time for triples:    843.87 sec for i = 24 - 24 / 24 (  100.0 % done)

 Total CPU time for triples:   7594.21 sec


 RESULTS
 =======

  Reference energy                   -30084.4572124644    
  CCSD singlet pair energy             -1.035692447475
  CCSD triplet pair energy             -0.576431040901
  CCSD correlation energy              -1.612123170973

  Triples (T) contribution             -0.080827344346
  Total correlation energy             -1.692950515319

  CCSD total energy                  -30086.0693356354    
  CCSD[T] energy                     -30086.1618793538    
  CCSD-T energy                      -30086.1463297362    
 !CCSD(T) total energy               -30086.1501629797    

 Timing summary (sec):

 STEP                 CPU(USER)    SYS     CPU(TOT)    WALL
 Transformation        592.87     26.52    619.39    621.82
 CCSD iterations      4471.44     91.15   4562.59   4561.33
 Triples              7594.21    102.97   7697.18   7694.73

 Program statistics:

 Available memory in ccsd:              2499997615
 Min. memory needed in ccsd:             114996998
 Max. memory used in ccsd:               160770074
 Max. memory used in cckext:             150227023 (14 integral passes)



 **********************************************************************************************************************************
 DATASETS  * FILE   NREC   LENGTH (MB)   RECORD NAMES
              1      23     7458.59       500      610      700      900      950      970     1000      129      960     1700   
                                          VAR    BASINP    GEOM    SYMINP    ZMAT    AOBASIS   BASIS     P2S    ABASIS    OPER   
                                         1101     1401     1411     1412     1650     1100     1400     1410     1200     1210   
                                          SR      EKINR    POTR     PVPR    MOLCAS      S      EKIN      POT      H0       H01  
                                         1080     1600     1380   
                                         AOSYM     SMH     JKOP   

              2       6       15.86       500      610      700     1000      520     2100   
                                          VAR    BASINP    GEOM     BASIS   MCVARS     RHF  

 PROGRAMS   *        TOTAL   CCSD(T)    HF-SCF       INT      FILE
 CPU TIMES  *     13228.75  12658.56    263.54    306.49      0.00
 REAL TIME  *     13537.12 SEC
 DISK USED  *        11.92 GB (local),      160.69 GB (total)
 SF USED    *        13.02 GB
 GA USED    *         0.01 MB       (max)       0.00 MB       (current)
 **********************************************************************************************************************************
 SETTING ENERGY_HF(1)   =    -30084.45721246  AU                              
 SETTING CORR_MP2(1)    =        -1.61195540  AU                              
 SETTING CORR_CCSDT(1)  =        -1.69295052  AU                              

 CCSD(T)/PA=CC-PVTZ-DK,O=AUG-CC-PVTZ-DK,H=AUG-CC-PVTZ-DK,BR=AUG-CC-PVTZ-DK energy= -30086.150162979749

         CCSD(T)          HF-SCF
 -30086.15016298 -30084.45721246
 **********************************************************************************************************************************
 Molpro calculation terminated
