 Entering Gaussian System, Link 0=/home/pcmt/gaussian/g16.C.01/g16/g16
 AtFile(1): /home/shaaban/basis.gaussian/Pa-def-TZVP
 AtFile(1): /home/shaaban/basis.gaussian/Pa-ECP60MWB
 Initial command:
 /home/pcmt/gaussian/g16.C.01/g16/l1.exe "/state/partition2/shaaban/972896.phlam-s-sakura/Gau-39471.inp" -scrdir="/state/partition2/shaaban/972896.phlam-s-sakura/"
 Entering Link 1 = /home/pcmt/gaussian/g16.C.01/g16/l1.exe PID=     39472.
  
 Copyright (c) 1988-2019, Gaussian, Inc.  All Rights Reserved.
  
 This is part of the Gaussian(R) 16 program.  It is based on
 the Gaussian(R) 09 system (copyright 2009, Gaussian, Inc.),
 the Gaussian(R) 03 system (copyright 2003, Gaussian, Inc.),
 the Gaussian(R) 98 system (copyright 1998, Gaussian, Inc.),
 the Gaussian(R) 94 system (copyright 1995, Gaussian, Inc.),
 the Gaussian 92(TM) system (copyright 1992, Gaussian, Inc.),
 the Gaussian 90(TM) system (copyright 1990, Gaussian, Inc.),
 the Gaussian 88(TM) system (copyright 1988, Gaussian, Inc.),
 the Gaussian 86(TM) system (copyright 1986, Carnegie Mellon
 University), and the Gaussian 82(TM) system (copyright 1983,
 Carnegie Mellon University). Gaussian is a federally registered
 trademark of Gaussian, Inc.
  
 This software contains proprietary and confidential information,
 including trade secrets, belonging to Gaussian, Inc.
  
 This software is provided under written license and may be
 used, copied, transmitted, or stored only in accord with that
 written license.
  
 The following legend is applicable only to US Government
 contracts under FAR:
  
                    RESTRICTED RIGHTS LEGEND
  
 Use, reproduction and disclosure by the US Government is
 subject to restrictions as set forth in subparagraphs (a)
 and (c) of the Commercial Computer Software - Restricted
 Rights clause in FAR 52.227-19.
  
 Gaussian, Inc.
 340 Quinnipiac St., Bldg. 40, Wallingford CT 06492
  
  
 ---------------------------------------------------------------
 Warning -- This program may not be used in any manner that
 competes with the business of Gaussian, Inc. or will provide
 assistance to any competitor of Gaussian, Inc.  The licensee
 of this program is prohibited from giving any competitor of
 Gaussian, Inc. access to this program.  By using this program,
 the user acknowledges that Gaussian, Inc. is engaged in the
 business of creating and licensing software in the field of
 computational chemistry and represents and warrants to the
 licensee that it is not a competitor of Gaussian, Inc. and that
 it will not use this program in any manner prohibited above.
 ---------------------------------------------------------------
  

 Cite this work as:
 Gaussian 16, Revision C.01,
 M. J. Frisch, G. W. Trucks, H. B. Schlegel, G. E. Scuseria, 
 M. A. Robb, J. R. Cheeseman, G. Scalmani, V. Barone, 
 G. A. Petersson, H. Nakatsuji, X. Li, M. Caricato, A. V. Marenich, 
 J. Bloino, B. G. Janesko, R. Gomperts, B. Mennucci, H. P. Hratchian, 
 J. V. Ortiz, A. F. Izmaylov, J. L. Sonnenberg, D. Williams-Young, 
 F. Ding, F. Lipparini, F. Egidi, J. Goings, B. Peng, A. Petrone, 
 T. Henderson, D. Ranasinghe, V. G. Zakrzewski, J. Gao, N. Rega, 
 G. Zheng, W. Liang, M. Hada, M. Ehara, K. Toyota, R. Fukuda, 
 J. Hasegawa, M. Ishida, T. Nakajima, Y. Honda, O. Kitao, H. Nakai, 
 T. Vreven, K. Throssell, J. A. Montgomery, Jr., J. E. Peralta, 
 F. Ogliaro, M. J. Bearpark, J. J. Heyd, E. N. Brothers, K. N. Kudin, 
 V. N. Staroverov, T. A. Keith, R. Kobayashi, J. Normand, 
 K. Raghavachari, A. P. Rendell, J. C. Burant, S. S. Iyengar, 
 J. Tomasi, M. Cossi, J. M. Millam, M. Klene, C. Adamo, R. Cammi, 
 J. W. Ochterski, R. L. Martin, K. Morokuma, O. Farkas, 
 J. B. Foresman, and D. J. Fox, Gaussian, Inc., Wallingford CT, 2019.
 
 ******************************************
 Gaussian 16:  ES64L-G16RevC.01  3-Jul-2019
                 4-Jul-2023 
 ******************************************
 %mem=16Gb
 %NProc=8
 Will use up to    8 processors via shared memory.
 %chk=pao_oh2_no3_h2o-bp86-cosmors-deftzvp-klamt.chk
 ----------------------------------------------------------------------
 #p BP86/GEN Pseudo=Read GFInput GFPrint IOP(6/7=3) Symm=(Loose) Int=(U
 ltraFine) Guess=(Harris) SCRF=(COSMORS) Scf=(NoVarAcc,MaxCycle=100,con
 ver=8)
 ----------------------------------------------------------------------
 1/38=1,172=1/1;
 2/12=2,17=4,18=3,40=1/2;
 3/5=7,11=2,16=1,17=8,24=110,25=1,30=1,70=12101,74=404,75=-5/1,2,3;
 4/11=8/1;
 5/5=2,6=8,7=100,38=1/2;
 6/7=3,8=2,9=2,10=2,28=1/1;
 99/5=1,9=1/99;
 Leave Link    1 at Tue Jul  4 11:36:08 2023, MaxMem=  2147483648 cpu:               0.7 elap:               0.1
 (Enter /home/pcmt/gaussian/g16.C.01/g16/l101.exe)
 ---------------------------------------------------------------------
 pao_oh2_no3_h2o-bp86-cosmors-deftzvp-klamt.com SGP in PCM calculation
 ---------------------------------------------------------------------
 Symbolic Z-matrix:
 Charge =  0 Multiplicity = 1
 Pa                   -0.19475   0.45628   0.05331 
 O                     1.32791   1.15904  -1.1898 
 H                    -1.39729   0.71602  -2.52013 
 O                    -1.41397  -0.27395   1.25269 
 O                    -1.53276   0.3763   -1.62775 
 O                     0.795    -1.79841  -0.28157 
 H                     1.50237  -2.02259  -0.9005 
 H                     0.43564  -2.62863   0.0576 
 H                     1.47946   1.45431  -2.09745 
 O                     0.40171   2.35007   1.66432 
 O                    -1.14772   2.79984   0.23109 
 N                    -0.42906   3.20394   1.20796 
 O                    -0.53084   4.32147   1.66669 
 
 ITRead=  0  0  0  0  0  0  0  0  0  0  0  0  0
 MicOpt= -1 -1 -1 -1 -1 -1 -1 -1 -1 -1 -1 -1 -1
 NAtoms=     13 NQM=       13 NQMF=       0 NMMI=      0 NMMIF=      0
                NMic=       0 NMicF=      0.
                    Isotopes and Nuclear Properties:
 (Nuclear quadrupole moments (NQMom) in fm**2, nuclear magnetic moments (NMagM)
  in nuclear magnetons)

  Atom         1           2           3           4           5           6           7           8           9          10
 IAtWgt=         231          16           1          16          16          16           1           1           1          16
 AtmWgt= 231.0359000  15.9949146   1.0078250  15.9949146  15.9949146  15.9949146   1.0078250   1.0078250   1.0078250  15.9949146
 NucSpn=           3           0           1           0           0           0           1           1           1           0
 AtZEff=  -0.0000000  -0.0000000  -0.0000000  -0.0000000  -0.0000000  -0.0000000  -0.0000000  -0.0000000  -0.0000000  -0.0000000
 NQMom= -172.0000000   0.0000000   0.0000000   0.0000000   0.0000000   0.0000000   0.0000000   0.0000000   0.0000000   0.0000000
 NMagM=    2.0100000   0.0000000   2.7928460   0.0000000   0.0000000   0.0000000   2.7928460   2.7928460   2.7928460   0.0000000
 AtZNuc=  91.0000000   8.0000000   1.0000000   8.0000000   8.0000000   8.0000000   1.0000000   1.0000000   1.0000000   8.0000000

  Atom        11          12          13
 IAtWgt=          16          14          16
 AtmWgt=  15.9949146  14.0030740  15.9949146
 NucSpn=           0           2           0
 AtZEff=  -0.0000000  -0.0000000  -0.0000000
 NQMom=    0.0000000   2.0440000   0.0000000
 NMagM=    0.0000000   0.4037610   0.0000000
 AtZNuc=   8.0000000   7.0000000   8.0000000
 Leave Link  101 at Tue Jul  4 11:36:08 2023, MaxMem=  2147483648 cpu:               0.8 elap:               0.2
 (Enter /home/pcmt/gaussian/g16.C.01/g16/l202.exe)
                          Input orientation:                          
 ---------------------------------------------------------------------
 Center     Atomic      Atomic             Coordinates (Angstroms)
 Number     Number       Type             X           Y           Z
 ---------------------------------------------------------------------
      1         91           0       -0.194754    0.456277    0.053312
      2          8           0        1.327912    1.159043   -1.189798
      3          1           0       -1.397292    0.716023   -2.520132
      4          8           0       -1.413966   -0.273955    1.252687
      5          8           0       -1.532764    0.376300   -1.627754
      6          8           0        0.794996   -1.798408   -0.281570
      7          1           0        1.502367   -2.022588   -0.900503
      8          1           0        0.435638   -2.628634    0.057603
      9          1           0        1.479462    1.454310   -2.097448
     10          8           0        0.401711    2.350068    1.664317
     11          8           0       -1.147716    2.799837    0.231090
     12          7           0       -0.429059    3.203937    1.207965
     13          8           0       -0.530841    4.321470    1.666690
 ---------------------------------------------------------------------
                    Distance matrix (angstroms):
                    1          2          3          4          5
     1  Pa   0.000000
     2  O    2.087514   0.000000
     3  H    2.852399   3.064766   0.000000
     4  O    1.859628   3.941714   3.900576   0.000000
     5  O    2.150035   2.997992   0.964418   2.955314   0.000000
     6  O    2.485027   3.139330   4.017418   3.091507   3.458328
     7  H    3.151945   3.199516   4.304789   4.024791   3.936442
     8  H    3.148665   4.086399   4.603377   3.223938   3.967954
     9  H    2.902558   0.966427   2.999908   4.752077   3.233608
    10  O    2.556864   3.228368   4.839022   3.217394   4.298335
    11  O    2.536142   3.292394   3.460317   3.250038   3.078489
    12  N    2.989608   3.608019   4.585400   3.614937   4.153913
    13  O    4.201863   4.649239   5.592804   4.697791   5.236561
                    6          7          8          9         10
     6  O    0.000000
     7  H    0.966286   0.000000
     8  H    0.966153   1.556653   0.000000
     9  H    3.787622   3.677230   4.733312   0.000000
    10  O    4.599022   5.187473   5.231650   4.014326   0.000000
    11  O    5.018048   5.617760   5.657332   3.759601   2.158045
    12  N    5.361015   5.957567   6.007488   4.198738   1.275746
    13  O    6.557931   7.139431   7.199110   5.141076   2.180844
                   11         12         13
    11  O    0.000000
    12  N    1.278299   0.000000
    13  O    2.181020   1.212299   0.000000
 Stoichiometry    H4NO7Pa
 Framework group  C1[X(H4NO7Pa)]
 Deg. of freedom    33
 Full point group                 C1      NOp   1
 Largest Abelian subgroup         C1      NOp   1
 Largest concise Abelian subgroup C1      NOp   1
                         Standard orientation:                         
 ---------------------------------------------------------------------
 Center     Atomic      Atomic             Coordinates (Angstroms)
 Number     Number       Type             X           Y           Z
 ---------------------------------------------------------------------
      1         91           0       -0.388680   -0.071275    0.000633
      2          8           0       -0.394792    1.656698   -1.170600
      3          1           0       -0.975902    2.052058    1.812485
      4          8           0       -0.460725   -1.702739    0.890211
      5          8           0       -0.935202    1.092586    1.723824
      6          8           0       -2.704486   -0.440648   -0.821536
      7          1           0       -3.228666    0.181456   -1.343005
      8          1           0       -3.295932   -1.151706   -0.542179
      9          1           0       -0.484009    2.615833   -1.092621
     10          8           0        1.886282   -0.623350   -1.027625
     11          8           0        1.945102    0.481415    0.825262
     12          7           0        2.598198   -0.066898   -0.127034
     13          8           0        3.809696   -0.056875   -0.169916
 ---------------------------------------------------------------------
 Rotational constants (GHZ):           1.9141770           0.6597433           0.6525636
 Leave Link  202 at Tue Jul  4 11:36:08 2023, MaxMem=  2147483648 cpu:               0.1 elap:               0.1
 (Enter /home/pcmt/gaussian/g16.C.01/g16/l301.exe)
 General basis read from cards:  (5D, 7F)
 Centers:       1
 S 3 1.00
     Exponent=  1.2047376000D+04 Coefficients=  3.4500000000D-04
     Exponent=  1.8116841000D+03 Coefficients=  2.7420000000D-03
     Exponent=  3.4770104000D+02 Coefficients=  1.0053000000D-02
 S 1 1.00
     Exponent=  9.8678010000D+01 Coefficients=  1.0000000000D+00
 S 3 1.00
     Exponent=  5.7507376000D+01 Coefficients=  5.1528000000D-02
     Exponent=  3.3502601000D+01 Coefficients= -2.3692400000D-01
     Exponent=  1.9554451000D+01 Coefficients=  7.1904800000D-01
 S 1 1.00
     Exponent=  9.7164210000D+00 Coefficients=  1.0000000000D+00
 S 1 1.00
     Exponent=  2.6920960000D+00 Coefficients=  1.0000000000D+00
 S 1 1.00
     Exponent=  1.4538470000D+00 Coefficients=  1.0000000000D+00
 S 1 1.00
     Exponent=  5.7435200000D-01 Coefficients=  1.0000000000D+00
 S 1 1.00
     Exponent=  2.6346800000D-01 Coefficients=  1.0000000000D+00
 S 1 1.00
     Exponent=  5.6557000000D-02 Coefficients=  1.0000000000D+00
 S 1 1.00
     Exponent=  2.3169000000D-02 Coefficients=  1.0000000000D+00
 P 5 1.00
     Exponent=  2.9033676000D+03 Coefficients=  3.5000000000D-05
     Exponent=  6.4486356000D+02 Coefficients=  2.0500000000D-04
     Exponent=  2.2025896000D+02 Coefficients=  1.2510000000D-03
     Exponent=  8.0276401000D+01 Coefficients=  2.4570000000D-03
     Exponent=  2.4080211000D+01 Coefficients=  1.1190000000D-02
 P 1 1.00
     Exponent=  1.4077580000D+01 Coefficients=  1.0000000000D+00
 P 1 1.00
     Exponent=  8.2658460000D+00 Coefficients=  1.0000000000D+00
 P 1 1.00
     Exponent=  3.5948000000D+00 Coefficients=  1.0000000000D+00
 P 1 1.00
     Exponent=  1.7531110000D+00 Coefficients=  1.0000000000D+00
 P 1 1.00
     Exponent=  6.5776700000D-01 Coefficients=  1.0000000000D+00
 P 1 1.00
     Exponent=  2.8463900000D-01 Coefficients=  1.0000000000D+00
 P 1 1.00
     Exponent=  1.0054300000D-01 Coefficients=  1.0000000000D+00
 P 1 1.00
     Exponent=  3.0190000000D-02 Coefficients=  1.0000000000D+00
 D 6 1.00
     Exponent=  4.4814991000D+02 Coefficients=  2.6000000000D-05
     Exponent=  1.5446145000D+02 Coefficients=  2.2800000000D-04
     Exponent=  6.0925377000D+01 Coefficients=  9.0400000000D-04
     Exponent=  1.7032091000D+01 Coefficients=  2.5647000000D-02
     Exponent=  1.0018877000D+01 Coefficients= -1.0575100000D-01
     Exponent=  3.4091930000D+00 Coefficients=  4.4743200000D-01
 D 1 1.00
     Exponent=  1.6702130000D+00 Coefficients=  1.0000000000D+00
 D 1 1.00
     Exponent=  7.4109500000D-01 Coefficients=  1.0000000000D+00
 D 1 1.00
     Exponent=  2.6139300000D-01 Coefficients=  1.0000000000D+00
 D 1 1.00
     Exponent=  8.2811000000D-02 Coefficients=  1.0000000000D+00
 F 5 1.00
     Exponent=  8.7991327000D+01 Coefficients=  2.2600000000D-04
     Exponent=  2.8340195000D+01 Coefficients=  2.3230000000D-03
     Exponent=  1.2440994000D+01 Coefficients=  4.5850000000D-03
     Exponent=  3.9572960000D+00 Coefficients=  1.5696100000D-01
     Exponent=  1.8759440000D+00 Coefficients=  3.4497700000D-01
 F 1 1.00
     Exponent=  8.2758900000D-01 Coefficients=  1.0000000000D+00
 F 1 1.00
     Exponent=  3.3274800000D-01 Coefficients=  1.0000000000D+00
 F 1 1.00
     Exponent=  1.1468500000D-01 Coefficients=  1.0000000000D+00
 G 1 1.00
     Exponent=  3.5000000000D-01 Coefficients=  1.0000000000D+00
 ****
 Centers:       2      4      5      6     10     11     13
 Def2TZVP
 ****
 Centers:       3      7      8      9
 Def2TZVP
 ****
 Centers:      12
 Def2TZVP
 ****
 ======================================================================================================
                                       Pseudopotential Parameters
 ======================================================================================================
  Center     Atomic      Valence      Angular      Power
  Number     Number     Electrons     Momentum     of R      Exponent        Coefficient   SO-Coeffient
 ======================================================================================================
    1         91           31
                                      H and up 
                                                     2        1.0000000        0.00000000    0.00000000
                                      S - H
                                                     2       15.2691737      475.47573283    0.00000000
                                      P - H
                                                     2        9.9577370      207.66485962    0.00000000
                                      D - H
                                                     2        8.9431413      156.67411988    0.00000000
                                      F - H
                                                     2        7.0104666       67.98223685    0.00000000
                                      G - H
                                                     2       12.2010560      -57.63059989    0.00000000
    2          8
                                   No pseudopotential on this center.
    3          1
                                   No pseudopotential on this center.
    4          8
                                   No pseudopotential on this center.
    5          8
                                   No pseudopotential on this center.
    6          8
                                   No pseudopotential on this center.
    7          1
                                   No pseudopotential on this center.
    8          1
                                   No pseudopotential on this center.
    9          1
                                   No pseudopotential on this center.
   10          8
                                   No pseudopotential on this center.
   11          8
                                   No pseudopotential on this center.
   12          7
                                   No pseudopotential on this center.
   13          8
                                   No pseudopotential on this center.
 ======================================================================================================
 Ernie: Thresh=  0.10000D-02 Tol=  0.10000D-05 Strict=F.
 AO basis set in the form of general basis input (Overlap normalization):
      1 0
 S   3 1.00       0.000000000000
      0.1204737600D+05  0.2857094961D-01
      0.1811684100D+04  0.2270769386D+00
      0.3477010400D+03  0.8325326273D+00
 S   3 1.00       0.000000000000
      0.5750737600D+02  0.9569327984D-01
      0.3350260100D+02 -0.4399944619D+00
      0.1955445100D+02  0.1335352847D+01
 S   1 1.00       0.000000000000
      0.9867801000D+02  0.1000000000D+01
 S   1 1.00       0.000000000000
      0.9716421000D+01  0.1000000000D+01
 S   1 1.00       0.000000000000
      0.2692096000D+01  0.1000000000D+01
 S   1 1.00       0.000000000000
      0.1453847000D+01  0.1000000000D+01
 S   1 1.00       0.000000000000
      0.5743520000D+00  0.1000000000D+01
 S   1 1.00       0.000000000000
      0.2634680000D+00  0.1000000000D+01
 S   1 1.00       0.000000000000
      0.5655700000D-01  0.1000000000D+01
 S   1 1.00       0.000000000000
      0.2316900000D-01  0.1000000000D+01
 P   5 1.00       0.000000000000
      0.2903367600D+04  0.2594222647D-02
      0.6448635600D+03  0.1519473264D-01
      0.2202589600D+03  0.9272492945D-01
      0.8027640100D+02  0.1821144298D+00
      0.2408021100D+02  0.8294100404D+00
 P   1 1.00       0.000000000000
      0.1407758000D+02  0.1000000000D+01
 P   1 1.00       0.000000000000
      0.8265846000D+01  0.1000000000D+01
 P   1 1.00       0.000000000000
      0.3594800000D+01  0.1000000000D+01
 P   1 1.00       0.000000000000
      0.1753111000D+01  0.1000000000D+01
 P   1 1.00       0.000000000000
      0.6577670000D+00  0.1000000000D+01
 P   1 1.00       0.000000000000
      0.2846390000D+00  0.1000000000D+01
 P   1 1.00       0.000000000000
      0.1005430000D+00  0.1000000000D+01
 P   1 1.00       0.000000000000
      0.3019000000D-01  0.1000000000D+01
 D   6 1.00       0.000000000000
      0.4481499100D+03  0.6556927566D-04
      0.1544614500D+03  0.5749921096D-03
      0.6092537700D+02  0.2279793277D-02
      0.1703209100D+02  0.6467904664D-01
      0.1001887700D+02 -0.2666929411D+00
      0.3409193000D+01  0.1128376621D+01
 D   1 1.00       0.000000000000
      0.1670213000D+01  0.1000000000D+01
 D   1 1.00       0.000000000000
      0.7410950000D+00  0.1000000000D+01
 D   1 1.00       0.000000000000
      0.2613930000D+00  0.1000000000D+01
 D   1 1.00       0.000000000000
      0.8281100000D-01  0.1000000000D+01
 F   5 1.00       0.000000000000
      0.8799132700D+02  0.4766318191D-03
      0.2834019500D+02  0.4899184583D-02
      0.1244099400D+02  0.9669720755D-02
      0.3957296000D+01  0.3310292343D+00
      0.1875944000D+01  0.7275531640D+00
 F   1 1.00       0.000000000000
      0.8275890000D+00  0.1000000000D+01
 F   1 1.00       0.000000000000
      0.3327480000D+00  0.1000000000D+01
 F   1 1.00       0.000000000000
      0.1146850000D+00  0.1000000000D+01
 G   1 1.00       0.000000000000
      0.3500000000D+00  0.1000000000D+01
 ****
      2 0
 S   6 1.00       0.000000000000
      0.2703238263D+05  0.5722733521D-03
      0.4052387139D+04  0.4435323349D-02
      0.9223272271D+03  0.2302010771D-01
      0.2612407099D+03  0.9282249067D-01
      0.8535464135D+02  0.2937850001D+00
      0.3103503524D+02  0.6740160450D+00
 S   2 1.00       0.000000000000
      0.1226086073D+02  0.6383993703D+00
      0.4998707601D+01  0.3953458713D+00
 S   1 1.00       0.000000000000
      0.1170310816D+01  0.1000000000D+01
 S   1 1.00       0.000000000000
      0.4647474099D+00  0.1000000000D+01
 S   1 1.00       0.000000000000
      0.1850453636D+00  0.1000000000D+01
 P   4 1.00       0.000000000000
      0.6327495480D+02  0.1201833222D-01
      0.1462704938D+02  0.8300542179D-01
      0.4450122346D+01  0.3199174393D+00
      0.1527579965D+01  0.7071554292D+00
 P   1 1.00       0.000000000000
      0.5293511794D+00  0.1000000000D+01
 P   1 1.00       0.000000000000
      0.1747842127D+00  0.1000000000D+01
 D   1 1.00       0.000000000000
      0.2314000000D+01  0.1000000000D+01
 D   1 1.00       0.000000000000
      0.6450000000D+00  0.1000000000D+01
 F   1 1.00       0.000000000000
      0.1428000000D+01  0.1000000000D+01
 ****
      3 0
 S   3 1.00       0.000000000000
      0.3406134100D+02  0.2543930721D-01
      0.5123574600D+01  0.1900859489D+00
      0.1164662600D+01  0.8524411301D+00
 S   1 1.00       0.000000000000
      0.3272304100D+00  0.1000000000D+01
 S   1 1.00       0.000000000000
      0.1030724100D+00  0.1000000000D+01
 P   1 1.00       0.000000000000
      0.8000000000D+00  0.1000000000D+01
 ****
      4 0
 S   6 1.00       0.000000000000
      0.2703238263D+05  0.5722733521D-03
      0.4052387139D+04  0.4435323349D-02
      0.9223272271D+03  0.2302010771D-01
      0.2612407099D+03  0.9282249067D-01
      0.8535464135D+02  0.2937850001D+00
      0.3103503524D+02  0.6740160450D+00
 S   2 1.00       0.000000000000
      0.1226086073D+02  0.6383993703D+00
      0.4998707601D+01  0.3953458713D+00
 S   1 1.00       0.000000000000
      0.1170310816D+01  0.1000000000D+01
 S   1 1.00       0.000000000000
      0.4647474099D+00  0.1000000000D+01
 S   1 1.00       0.000000000000
      0.1850453636D+00  0.1000000000D+01
 P   4 1.00       0.000000000000
      0.6327495480D+02  0.1201833222D-01
      0.1462704938D+02  0.8300542179D-01
      0.4450122346D+01  0.3199174393D+00
      0.1527579965D+01  0.7071554292D+00
 P   1 1.00       0.000000000000
      0.5293511794D+00  0.1000000000D+01
 P   1 1.00       0.000000000000
      0.1747842127D+00  0.1000000000D+01
 D   1 1.00       0.000000000000
      0.2314000000D+01  0.1000000000D+01
 D   1 1.00       0.000000000000
      0.6450000000D+00  0.1000000000D+01
 F   1 1.00       0.000000000000
      0.1428000000D+01  0.1000000000D+01
 ****
      5 0
 S   6 1.00       0.000000000000
      0.2703238263D+05  0.5722733521D-03
      0.4052387139D+04  0.4435323349D-02
      0.9223272271D+03  0.2302010771D-01
      0.2612407099D+03  0.9282249067D-01
      0.8535464135D+02  0.2937850001D+00
      0.3103503524D+02  0.6740160450D+00
 S   2 1.00       0.000000000000
      0.1226086073D+02  0.6383993703D+00
      0.4998707601D+01  0.3953458713D+00
 S   1 1.00       0.000000000000
      0.1170310816D+01  0.1000000000D+01
 S   1 1.00       0.000000000000
      0.4647474099D+00  0.1000000000D+01
 S   1 1.00       0.000000000000
      0.1850453636D+00  0.1000000000D+01
 P   4 1.00       0.000000000000
      0.6327495480D+02  0.1201833222D-01
      0.1462704938D+02  0.8300542179D-01
      0.4450122346D+01  0.3199174393D+00
      0.1527579965D+01  0.7071554292D+00
 P   1 1.00       0.000000000000
      0.5293511794D+00  0.1000000000D+01
 P   1 1.00       0.000000000000
      0.1747842127D+00  0.1000000000D+01
 D   1 1.00       0.000000000000
      0.2314000000D+01  0.1000000000D+01
 D   1 1.00       0.000000000000
      0.6450000000D+00  0.1000000000D+01
 F   1 1.00       0.000000000000
      0.1428000000D+01  0.1000000000D+01
 ****
      6 0
 S   6 1.00       0.000000000000
      0.2703238263D+05  0.5722733521D-03
      0.4052387139D+04  0.4435323349D-02
      0.9223272271D+03  0.2302010771D-01
      0.2612407099D+03  0.9282249067D-01
      0.8535464135D+02  0.2937850001D+00
      0.3103503524D+02  0.6740160450D+00
 S   2 1.00       0.000000000000
      0.1226086073D+02  0.6383993703D+00
      0.4998707601D+01  0.3953458713D+00
 S   1 1.00       0.000000000000
      0.1170310816D+01  0.1000000000D+01
 S   1 1.00       0.000000000000
      0.4647474099D+00  0.1000000000D+01
 S   1 1.00       0.000000000000
      0.1850453636D+00  0.1000000000D+01
 P   4 1.00       0.000000000000
      0.6327495480D+02  0.1201833222D-01
      0.1462704938D+02  0.8300542179D-01
      0.4450122346D+01  0.3199174393D+00
      0.1527579965D+01  0.7071554292D+00
 P   1 1.00       0.000000000000
      0.5293511794D+00  0.1000000000D+01
 P   1 1.00       0.000000000000
      0.1747842127D+00  0.1000000000D+01
 D   1 1.00       0.000000000000
      0.2314000000D+01  0.1000000000D+01
 D   1 1.00       0.000000000000
      0.6450000000D+00  0.1000000000D+01
 F   1 1.00       0.000000000000
      0.1428000000D+01  0.1000000000D+01
 ****
      7 0
 S   3 1.00       0.000000000000
      0.3406134100D+02  0.2543930721D-01
      0.5123574600D+01  0.1900859489D+00
      0.1164662600D+01  0.8524411301D+00
 S   1 1.00       0.000000000000
      0.3272304100D+00  0.1000000000D+01
 S   1 1.00       0.000000000000
      0.1030724100D+00  0.1000000000D+01
 P   1 1.00       0.000000000000
      0.8000000000D+00  0.1000000000D+01
 ****
      8 0
 S   3 1.00       0.000000000000
      0.3406134100D+02  0.2543930721D-01
      0.5123574600D+01  0.1900859489D+00
      0.1164662600D+01  0.8524411301D+00
 S   1 1.00       0.000000000000
      0.3272304100D+00  0.1000000000D+01
 S   1 1.00       0.000000000000
      0.1030724100D+00  0.1000000000D+01
 P   1 1.00       0.000000000000
      0.8000000000D+00  0.1000000000D+01
 ****
      9 0
 S   3 1.00       0.000000000000
      0.3406134100D+02  0.2543930721D-01
      0.5123574600D+01  0.1900859489D+00
      0.1164662600D+01  0.8524411301D+00
 S   1 1.00       0.000000000000
      0.3272304100D+00  0.1000000000D+01
 S   1 1.00       0.000000000000
      0.1030724100D+00  0.1000000000D+01
 P   1 1.00       0.000000000000
      0.8000000000D+00  0.1000000000D+01
 ****
     10 0
 S   6 1.00       0.000000000000
      0.2703238263D+05  0.5722733521D-03
      0.4052387139D+04  0.4435323349D-02
      0.9223272271D+03  0.2302010771D-01
      0.2612407099D+03  0.9282249067D-01
      0.8535464135D+02  0.2937850001D+00
      0.3103503524D+02  0.6740160450D+00
 S   2 1.00       0.000000000000
      0.1226086073D+02  0.6383993703D+00
      0.4998707601D+01  0.3953458713D+00
 S   1 1.00       0.000000000000
      0.1170310816D+01  0.1000000000D+01
 S   1 1.00       0.000000000000
      0.4647474099D+00  0.1000000000D+01
 S   1 1.00       0.000000000000
      0.1850453636D+00  0.1000000000D+01
 P   4 1.00       0.000000000000
      0.6327495480D+02  0.1201833222D-01
      0.1462704938D+02  0.8300542179D-01
      0.4450122346D+01  0.3199174393D+00
      0.1527579965D+01  0.7071554292D+00
 P   1 1.00       0.000000000000
      0.5293511794D+00  0.1000000000D+01
 P   1 1.00       0.000000000000
      0.1747842127D+00  0.1000000000D+01
 D   1 1.00       0.000000000000
      0.2314000000D+01  0.1000000000D+01
 D   1 1.00       0.000000000000
      0.6450000000D+00  0.1000000000D+01
 F   1 1.00       0.000000000000
      0.1428000000D+01  0.1000000000D+01
 ****
     11 0
 S   6 1.00       0.000000000000
      0.2703238263D+05  0.5722733521D-03
      0.4052387139D+04  0.4435323349D-02
      0.9223272271D+03  0.2302010771D-01
      0.2612407099D+03  0.9282249067D-01
      0.8535464135D+02  0.2937850001D+00
      0.3103503524D+02  0.6740160450D+00
 S   2 1.00       0.000000000000
      0.1226086073D+02  0.6383993703D+00
      0.4998707601D+01  0.3953458713D+00
 S   1 1.00       0.000000000000
      0.1170310816D+01  0.1000000000D+01
 S   1 1.00       0.000000000000
      0.4647474099D+00  0.1000000000D+01
 S   1 1.00       0.000000000000
      0.1850453636D+00  0.1000000000D+01
 P   4 1.00       0.000000000000
      0.6327495480D+02  0.1201833222D-01
      0.1462704938D+02  0.8300542179D-01
      0.4450122346D+01  0.3199174393D+00
      0.1527579965D+01  0.7071554292D+00
 P   1 1.00       0.000000000000
      0.5293511794D+00  0.1000000000D+01
 P   1 1.00       0.000000000000
      0.1747842127D+00  0.1000000000D+01
 D   1 1.00       0.000000000000
      0.2314000000D+01  0.1000000000D+01
 D   1 1.00       0.000000000000
      0.6450000000D+00  0.1000000000D+01
 F   1 1.00       0.000000000000
      0.1428000000D+01  0.1000000000D+01
 ****
     12 0
 S   6 1.00       0.000000000000
      0.1973080065D+05  0.5862640263D-03
      0.2957895874D+04  0.4542882059D-02
      0.6732213360D+03  0.2355841345D-01
      0.1906824949D+03  0.9470919329D-01
      0.6229544190D+02  0.2971978491D+00
      0.2265416118D+02  0.6691624690D+00
 S   2 1.00       0.000000000000
      0.8979147743D+01  0.6459668363D+00
      0.3686300237D+01  0.3870057439D+00
 S   1 1.00       0.000000000000
      0.8466007680D+00  0.1000000000D+01
 S   1 1.00       0.000000000000
      0.3364713377D+00  0.1000000000D+01
 S   1 1.00       0.000000000000
      0.1364765367D+00  0.1000000000D+01
 P   4 1.00       0.000000000000
      0.4920038051D+02  0.1144882510D-01
      0.1134679054D+02  0.7842233797D-01
      0.3427397241D+01  0.3081809474D+00
      0.1178552513D+01  0.7202719637D+00
 P   1 1.00       0.000000000000
      0.4164220497D+00  0.1000000000D+01
 P   1 1.00       0.000000000000
      0.1426082601D+00  0.1000000000D+01
 D   1 1.00       0.000000000000
      0.1654000000D+01  0.1000000000D+01
 D   1 1.00       0.000000000000
      0.4690000000D+00  0.1000000000D+01
 F   1 1.00       0.000000000000
      0.1093000000D+01  0.1000000000D+01
 ****
     13 0
 S   6 1.00       0.000000000000
      0.2703238263D+05  0.5722733521D-03
      0.4052387139D+04  0.4435323349D-02
      0.9223272271D+03  0.2302010771D-01
      0.2612407099D+03  0.9282249067D-01
      0.8535464135D+02  0.2937850001D+00
      0.3103503524D+02  0.6740160450D+00
 S   2 1.00       0.000000000000
      0.1226086073D+02  0.6383993703D+00
      0.4998707601D+01  0.3953458713D+00
 S   1 1.00       0.000000000000
      0.1170310816D+01  0.1000000000D+01
 S   1 1.00       0.000000000000
      0.4647474099D+00  0.1000000000D+01
 S   1 1.00       0.000000000000
      0.1850453636D+00  0.1000000000D+01
 P   4 1.00       0.000000000000
      0.6327495480D+02  0.1201833222D-01
      0.1462704938D+02  0.8300542179D-01
      0.4450122346D+01  0.3199174393D+00
      0.1527579965D+01  0.7071554292D+00
 P   1 1.00       0.000000000000
      0.5293511794D+00  0.1000000000D+01
 P   1 1.00       0.000000000000
      0.1747842127D+00  0.1000000000D+01
 D   1 1.00       0.000000000000
      0.2314000000D+01  0.1000000000D+01
 D   1 1.00       0.000000000000
      0.6450000000D+00  0.1000000000D+01
 F   1 1.00       0.000000000000
      0.1428000000D+01  0.1000000000D+01
 ****

 AO basis set (Overlap normalization):
 Atom Pa1      Shell     1 S   3     bf    1 -     1         -0.734498472474         -0.134690547064          0.001195831912
      0.1204737600D+05  0.2857094961D-01
      0.1811684100D+04  0.2270769386D+00
      0.3477010400D+03  0.8325326273D+00
 Atom Pa1      Shell     2 S   3     bf    2 -     2         -0.734498472474         -0.134690547064          0.001195831912
      0.5750737600D+02  0.9569327984D-01
      0.3350260100D+02 -0.4399944619D+00
      0.1955445100D+02  0.1335352847D+01
 Atom Pa1      Shell     3 S   1     bf    3 -     3         -0.734498472474         -0.134690547064          0.001195831912
      0.9867801000D+02  0.1000000000D+01
 Atom Pa1      Shell     4 S   1     bf    4 -     4         -0.734498472474         -0.134690547064          0.001195831912
      0.9716421000D+01  0.1000000000D+01
 Atom Pa1      Shell     5 S   1     bf    5 -     5         -0.734498472474         -0.134690547064          0.001195831912
      0.2692096000D+01  0.1000000000D+01
 Atom Pa1      Shell     6 S   1     bf    6 -     6         -0.734498472474         -0.134690547064          0.001195831912
      0.1453847000D+01  0.1000000000D+01
 Atom Pa1      Shell     7 S   1     bf    7 -     7         -0.734498472474         -0.134690547064          0.001195831912
      0.5743520000D+00  0.1000000000D+01
 Atom Pa1      Shell     8 S   1     bf    8 -     8         -0.734498472474         -0.134690547064          0.001195831912
      0.2634680000D+00  0.1000000000D+01
 Atom Pa1      Shell     9 S   1     bf    9 -     9         -0.734498472474         -0.134690547064          0.001195831912
      0.5655700000D-01  0.1000000000D+01
 Atom Pa1      Shell    10 S   1     bf   10 -    10         -0.734498472474         -0.134690547064          0.001195831912
      0.2316900000D-01  0.1000000000D+01
 Atom Pa1      Shell    11 P   5     bf   11 -    13         -0.734498472474         -0.134690547064          0.001195831912
      0.2903367600D+04  0.2594222647D-02
      0.6448635600D+03  0.1519473264D-01
      0.2202589600D+03  0.9272492945D-01
      0.8027640100D+02  0.1821144298D+00
      0.2408021100D+02  0.8294100404D+00
 Atom Pa1      Shell    12 P   1     bf   14 -    16         -0.734498472474         -0.134690547064          0.001195831912
      0.1407758000D+02  0.1000000000D+01
 Atom Pa1      Shell    13 P   1     bf   17 -    19         -0.734498472474         -0.134690547064          0.001195831912
      0.8265846000D+01  0.1000000000D+01
 Atom Pa1      Shell    14 P   1     bf   20 -    22         -0.734498472474         -0.134690547064          0.001195831912
      0.3594800000D+01  0.1000000000D+01
 Atom Pa1      Shell    15 P   1     bf   23 -    25         -0.734498472474         -0.134690547064          0.001195831912
      0.1753111000D+01  0.1000000000D+01
 Atom Pa1      Shell    16 P   1     bf   26 -    28         -0.734498472474         -0.134690547064          0.001195831912
      0.6577670000D+00  0.1000000000D+01
 Atom Pa1      Shell    17 P   1     bf   29 -    31         -0.734498472474         -0.134690547064          0.001195831912
      0.2846390000D+00  0.1000000000D+01
 Atom Pa1      Shell    18 P   1     bf   32 -    34         -0.734498472474         -0.134690547064          0.001195831912
      0.1005430000D+00  0.1000000000D+01
 Atom Pa1      Shell    19 P   1     bf   35 -    37         -0.734498472474         -0.134690547064          0.001195831912
      0.3019000000D-01  0.1000000000D+01
 Atom Pa1      Shell    20 D   6     bf   38 -    42         -0.734498472474         -0.134690547064          0.001195831912
      0.4481499100D+03  0.6556927566D-04
      0.1544614500D+03  0.5749921096D-03
      0.6092537700D+02  0.2279793277D-02
      0.1703209100D+02  0.6467904664D-01
      0.1001887700D+02 -0.2666929411D+00
      0.3409193000D+01  0.1128376621D+01
 Atom Pa1      Shell    21 D   1     bf   43 -    47         -0.734498472474         -0.134690547064          0.001195831912
      0.1670213000D+01  0.1000000000D+01
 Atom Pa1      Shell    22 D   1     bf   48 -    52         -0.734498472474         -0.134690547064          0.001195831912
      0.7410950000D+00  0.1000000000D+01
 Atom Pa1      Shell    23 D   1     bf   53 -    57         -0.734498472474         -0.134690547064          0.001195831912
      0.2613930000D+00  0.1000000000D+01
 Atom Pa1      Shell    24 D   1     bf   58 -    62         -0.734498472474         -0.134690547064          0.001195831912
      0.8281100000D-01  0.1000000000D+01
 Atom Pa1      Shell    25 F   5     bf   63 -    69         -0.734498472474         -0.134690547064          0.001195831912
      0.8799132700D+02  0.4766318191D-03
      0.2834019500D+02  0.4899184583D-02
      0.1244099400D+02  0.9669720755D-02
      0.3957296000D+01  0.3310292343D+00
      0.1875944000D+01  0.7275531640D+00
 Atom Pa1      Shell    26 F   1     bf   70 -    76         -0.734498472474         -0.134690547064          0.001195831912
      0.8275890000D+00  0.1000000000D+01
 Atom Pa1      Shell    27 F   1     bf   77 -    83         -0.734498472474         -0.134690547064          0.001195831912
      0.3327480000D+00  0.1000000000D+01
 Atom Pa1      Shell    28 F   1     bf   84 -    90         -0.734498472474         -0.134690547064          0.001195831912
      0.1146850000D+00  0.1000000000D+01
 Atom Pa1      Shell    29 G   1     bf   91 -    99         -0.734498472474         -0.134690547064          0.001195831912
      0.3500000000D+00  0.1000000000D+01
 Atom O2       Shell    30 S   6     bf  100 -   100         -0.746049114100          3.130704935511         -2.212113081295
      0.2703238263D+05  0.5722733521D-03
      0.4052387139D+04  0.4435323349D-02
      0.9223272271D+03  0.2302010771D-01
      0.2612407099D+03  0.9282249067D-01
      0.8535464135D+02  0.2937850001D+00
      0.3103503524D+02  0.6740160450D+00
 Atom O2       Shell    31 S   2     bf  101 -   101         -0.746049114100          3.130704935511         -2.212113081295
      0.1226086073D+02  0.6383993703D+00
      0.4998707601D+01  0.3953458713D+00
 Atom O2       Shell    32 S   1     bf  102 -   102         -0.746049114100          3.130704935511         -2.212113081295
      0.1170310816D+01  0.1000000000D+01
 Atom O2       Shell    33 S   1     bf  103 -   103         -0.746049114100          3.130704935511         -2.212113081295
      0.4647474099D+00  0.1000000000D+01
 Atom O2       Shell    34 S   1     bf  104 -   104         -0.746049114100          3.130704935511         -2.212113081295
      0.1850453636D+00  0.1000000000D+01
 Atom O2       Shell    35 P   4     bf  105 -   107         -0.746049114100          3.130704935511         -2.212113081295
      0.6327495480D+02  0.1201833222D-01
      0.1462704938D+02  0.8300542179D-01
      0.4450122346D+01  0.3199174393D+00
      0.1527579965D+01  0.7071554292D+00
 Atom O2       Shell    36 P   1     bf  108 -   110         -0.746049114100          3.130704935511         -2.212113081295
      0.5293511794D+00  0.1000000000D+01
 Atom O2       Shell    37 P   1     bf  111 -   113         -0.746049114100          3.130704935511         -2.212113081295
      0.1747842127D+00  0.1000000000D+01
 Atom O2       Shell    38 D   1     bf  114 -   118         -0.746049114100          3.130704935511         -2.212113081295
      0.2314000000D+01  0.1000000000D+01
 Atom O2       Shell    39 D   1     bf  119 -   123         -0.746049114100          3.130704935511         -2.212113081295
      0.6450000000D+00  0.1000000000D+01
 Atom O2       Shell    40 F   1     bf  124 -   130         -0.746049114100          3.130704935511         -2.212113081295
      0.1428000000D+01  0.1000000000D+01
 Atom H3       Shell    41 S   3     bf  131 -   131         -1.844187677616          3.877826910519          3.425100266130
      0.3406134100D+02  0.2543930721D-01
      0.5123574600D+01  0.1900859489D+00
      0.1164662600D+01  0.8524411301D+00
 Atom H3       Shell    42 S   1     bf  132 -   132         -1.844187677616          3.877826910519          3.425100266130
      0.3272304100D+00  0.1000000000D+01
 Atom H3       Shell    43 S   1     bf  133 -   133         -1.844187677616          3.877826910519          3.425100266130
      0.1030724100D+00  0.1000000000D+01
 Atom H3       Shell    44 P   1     bf  134 -   136         -1.844187677616          3.877826910519          3.425100266130
      0.8000000000D+00  0.1000000000D+01
 Atom O4       Shell    45 S   6     bf  137 -   137         -0.870644405198         -3.217710581090          1.682255902866
      0.2703238263D+05  0.5722733521D-03
      0.4052387139D+04  0.4435323349D-02
      0.9223272271D+03  0.2302010771D-01
      0.2612407099D+03  0.9282249067D-01
      0.8535464135D+02  0.2937850001D+00
      0.3103503524D+02  0.6740160450D+00
 Atom O4       Shell    46 S   2     bf  138 -   138         -0.870644405198         -3.217710581090          1.682255902866
      0.1226086073D+02  0.6383993703D+00
      0.4998707601D+01  0.3953458713D+00
 Atom O4       Shell    47 S   1     bf  139 -   139         -0.870644405198         -3.217710581090          1.682255902866
      0.1170310816D+01  0.1000000000D+01
 Atom O4       Shell    48 S   1     bf  140 -   140         -0.870644405198         -3.217710581090          1.682255902866
      0.4647474099D+00  0.1000000000D+01
 Atom O4       Shell    49 S   1     bf  141 -   141         -0.870644405198         -3.217710581090          1.682255902866
      0.1850453636D+00  0.1000000000D+01
 Atom O4       Shell    50 P   4     bf  142 -   144         -0.870644405198         -3.217710581090          1.682255902866
      0.6327495480D+02  0.1201833222D-01
      0.1462704938D+02  0.8300542179D-01
      0.4450122346D+01  0.3199174393D+00
      0.1527579965D+01  0.7071554292D+00
 Atom O4       Shell    51 P   1     bf  145 -   147         -0.870644405198         -3.217710581090          1.682255902866
      0.5293511794D+00  0.1000000000D+01
 Atom O4       Shell    52 P   1     bf  148 -   150         -0.870644405198         -3.217710581090          1.682255902866
      0.1747842127D+00  0.1000000000D+01
 Atom O4       Shell    53 D   1     bf  151 -   155         -0.870644405198         -3.217710581090          1.682255902866
      0.2314000000D+01  0.1000000000D+01
 Atom O4       Shell    54 D   1     bf  156 -   160         -0.870644405198         -3.217710581090          1.682255902866
      0.6450000000D+00  0.1000000000D+01
 Atom O4       Shell    55 F   1     bf  161 -   167         -0.870644405198         -3.217710581090          1.682255902866
      0.1428000000D+01  0.1000000000D+01
 Atom O5       Shell    56 S   6     bf  168 -   168         -1.767275916781          2.064688581207          3.257555852462
      0.2703238263D+05  0.5722733521D-03
      0.4052387139D+04  0.4435323349D-02
      0.9223272271D+03  0.2302010771D-01
      0.2612407099D+03  0.9282249067D-01
      0.8535464135D+02  0.2937850001D+00
      0.3103503524D+02  0.6740160450D+00
 Atom O5       Shell    57 S   2     bf  169 -   169         -1.767275916781          2.064688581207          3.257555852462
      0.1226086073D+02  0.6383993703D+00
      0.4998707601D+01  0.3953458713D+00
 Atom O5       Shell    58 S   1     bf  170 -   170         -1.767275916781          2.064688581207          3.257555852462
      0.1170310816D+01  0.1000000000D+01
 Atom O5       Shell    59 S   1     bf  171 -   171         -1.767275916781          2.064688581207          3.257555852462
      0.4647474099D+00  0.1000000000D+01
 Atom O5       Shell    60 S   1     bf  172 -   172         -1.767275916781          2.064688581207          3.257555852462
      0.1850453636D+00  0.1000000000D+01
 Atom O5       Shell    61 P   4     bf  173 -   175         -1.767275916781          2.064688581207          3.257555852462
      0.6327495480D+02  0.1201833222D-01
      0.1462704938D+02  0.8300542179D-01
      0.4450122346D+01  0.3199174393D+00
      0.1527579965D+01  0.7071554292D+00
 Atom O5       Shell    62 P   1     bf  176 -   178         -1.767275916781          2.064688581207          3.257555852462
      0.5293511794D+00  0.1000000000D+01
 Atom O5       Shell    63 P   1     bf  179 -   181         -1.767275916781          2.064688581207          3.257555852462
      0.1747842127D+00  0.1000000000D+01
 Atom O5       Shell    64 D   1     bf  182 -   186         -1.767275916781          2.064688581207          3.257555852462
      0.2314000000D+01  0.1000000000D+01
 Atom O5       Shell    65 D   1     bf  187 -   191         -1.767275916781          2.064688581207          3.257555852462
      0.6450000000D+00  0.1000000000D+01
 Atom O5       Shell    66 F   1     bf  192 -   198         -1.767275916781          2.064688581207          3.257555852462
      0.1428000000D+01  0.1000000000D+01
 Atom O6       Shell    67 S   6     bf  199 -   199         -5.110738368060         -0.832704438410         -1.552477370539
      0.2703238263D+05  0.5722733521D-03
      0.4052387139D+04  0.4435323349D-02
      0.9223272271D+03  0.2302010771D-01
      0.2612407099D+03  0.9282249067D-01
      0.8535464135D+02  0.2937850001D+00
      0.3103503524D+02  0.6740160450D+00
 Atom O6       Shell    68 S   2     bf  200 -   200         -5.110738368060         -0.832704438410         -1.552477370539
      0.1226086073D+02  0.6383993703D+00
      0.4998707601D+01  0.3953458713D+00
 Atom O6       Shell    69 S   1     bf  201 -   201         -5.110738368060         -0.832704438410         -1.552477370539
      0.1170310816D+01  0.1000000000D+01
 Atom O6       Shell    70 S   1     bf  202 -   202         -5.110738368060         -0.832704438410         -1.552477370539
      0.4647474099D+00  0.1000000000D+01
 Atom O6       Shell    71 S   1     bf  203 -   203         -5.110738368060         -0.832704438410         -1.552477370539
      0.1850453636D+00  0.1000000000D+01
 Atom O6       Shell    72 P   4     bf  204 -   206         -5.110738368060         -0.832704438410         -1.552477370539
      0.6327495480D+02  0.1201833222D-01
      0.1462704938D+02  0.8300542179D-01
      0.4450122346D+01  0.3199174393D+00
      0.1527579965D+01  0.7071554292D+00
 Atom O6       Shell    73 P   1     bf  207 -   209         -5.110738368060         -0.832704438410         -1.552477370539
      0.5293511794D+00  0.1000000000D+01
 Atom O6       Shell    74 P   1     bf  210 -   212         -5.110738368060         -0.832704438410         -1.552477370539
      0.1747842127D+00  0.1000000000D+01
 Atom O6       Shell    75 D   1     bf  213 -   217         -5.110738368060         -0.832704438410         -1.552477370539
      0.2314000000D+01  0.1000000000D+01
 Atom O6       Shell    76 D   1     bf  218 -   222         -5.110738368060         -0.832704438410         -1.552477370539
      0.6450000000D+00  0.1000000000D+01
 Atom O6       Shell    77 F   1     bf  223 -   229         -5.110738368060         -0.832704438410         -1.552477370539
      0.1428000000D+01  0.1000000000D+01
 Atom H7       Shell    78 S   3     bf  230 -   230         -6.101294466614          0.342902694574         -2.537910915914
      0.3406134100D+02  0.2543930721D-01
      0.5123574600D+01  0.1900859489D+00
      0.1164662600D+01  0.8524411301D+00
 Atom H7       Shell    79 S   1     bf  231 -   231         -6.101294466614          0.342902694574         -2.537910915914
      0.3272304100D+00  0.1000000000D+01
 Atom H7       Shell    80 S   1     bf  232 -   232         -6.101294466614          0.342902694574         -2.537910915914
      0.1030724100D+00  0.1000000000D+01
 Atom H7       Shell    81 P   1     bf  233 -   235         -6.101294466614          0.342902694574         -2.537910915914
      0.8000000000D+00  0.1000000000D+01
 Atom H8       Shell    82 S   3     bf  236 -   236         -6.228408630322         -2.176408250496         -1.024569307009
      0.3406134100D+02  0.2543930721D-01
      0.5123574600D+01  0.1900859489D+00
      0.1164662600D+01  0.8524411301D+00
 Atom H8       Shell    83 S   1     bf  237 -   237         -6.228408630322         -2.176408250496         -1.024569307009
      0.3272304100D+00  0.1000000000D+01
 Atom H8       Shell    84 S   1     bf  238 -   238         -6.228408630322         -2.176408250496         -1.024569307009
      0.1030724100D+00  0.1000000000D+01
 Atom H8       Shell    85 P   1     bf  239 -   241         -6.228408630322         -2.176408250496         -1.024569307009
      0.8000000000D+00  0.1000000000D+01
 Atom H9       Shell    86 S   3     bf  242 -   242         -0.914644140003          4.943207603159         -2.064755333133
      0.3406134100D+02  0.2543930721D-01
      0.5123574600D+01  0.1900859489D+00
      0.1164662600D+01  0.8524411301D+00
 Atom H9       Shell    87 S   1     bf  243 -   243         -0.914644140003          4.943207603159         -2.064755333133
      0.3272304100D+00  0.1000000000D+01
 Atom H9       Shell    88 S   1     bf  244 -   244         -0.914644140003          4.943207603159         -2.064755333133
      0.1030724100D+00  0.1000000000D+01
 Atom H9       Shell    89 P   1     bf  245 -   247         -0.914644140003          4.943207603159         -2.064755333133
      0.8000000000D+00  0.1000000000D+01
 Atom O10      Shell    90 S   6     bf  248 -   248          3.564556646666         -1.177960826652         -1.941930206410
      0.2703238263D+05  0.5722733521D-03
      0.4052387139D+04  0.4435323349D-02
      0.9223272271D+03  0.2302010771D-01
      0.2612407099D+03  0.9282249067D-01
      0.8535464135D+02  0.2937850001D+00
      0.3103503524D+02  0.6740160450D+00
 Atom O10      Shell    91 S   2     bf  249 -   249          3.564556646666         -1.177960826652         -1.941930206410
      0.1226086073D+02  0.6383993703D+00
      0.4998707601D+01  0.3953458713D+00
 Atom O10      Shell    92 S   1     bf  250 -   250          3.564556646666         -1.177960826652         -1.941930206410
      0.1170310816D+01  0.1000000000D+01
 Atom O10      Shell    93 S   1     bf  251 -   251          3.564556646666         -1.177960826652         -1.941930206410
      0.4647474099D+00  0.1000000000D+01
 Atom O10      Shell    94 S   1     bf  252 -   252          3.564556646666         -1.177960826652         -1.941930206410
      0.1850453636D+00  0.1000000000D+01
 Atom O10      Shell    95 P   4     bf  253 -   255          3.564556646666         -1.177960826652         -1.941930206410
      0.6327495480D+02  0.1201833222D-01
      0.1462704938D+02  0.8300542179D-01
      0.4450122346D+01  0.3199174393D+00
      0.1527579965D+01  0.7071554292D+00
 Atom O10      Shell    96 P   1     bf  256 -   258          3.564556646666         -1.177960826652         -1.941930206410
      0.5293511794D+00  0.1000000000D+01
 Atom O10      Shell    97 P   1     bf  259 -   261          3.564556646666         -1.177960826652         -1.941930206410
      0.1747842127D+00  0.1000000000D+01
 Atom O10      Shell    98 D   1     bf  262 -   266          3.564556646666         -1.177960826652         -1.941930206410
      0.2314000000D+01  0.1000000000D+01
 Atom O10      Shell    99 D   1     bf  267 -   271          3.564556646666         -1.177960826652         -1.941930206410
      0.6450000000D+00  0.1000000000D+01
 Atom O10      Shell   100 F   1     bf  272 -   278          3.564556646666         -1.177960826652         -1.941930206410
      0.1428000000D+01  0.1000000000D+01
 Atom O11      Shell   101 S   6     bf  279 -   279          3.675709215382          0.909741568404          1.559519565537
      0.2703238263D+05  0.5722733521D-03
      0.4052387139D+04  0.4435323349D-02
      0.9223272271D+03  0.2302010771D-01
      0.2612407099D+03  0.9282249067D-01
      0.8535464135D+02  0.2937850001D+00
      0.3103503524D+02  0.6740160450D+00
 Atom O11      Shell   102 S   2     bf  280 -   280          3.675709215382          0.909741568404          1.559519565537
      0.1226086073D+02  0.6383993703D+00
      0.4998707601D+01  0.3953458713D+00
 Atom O11      Shell   103 S   1     bf  281 -   281          3.675709215382          0.909741568404          1.559519565537
      0.1170310816D+01  0.1000000000D+01
 Atom O11      Shell   104 S   1     bf  282 -   282          3.675709215382          0.909741568404          1.559519565537
      0.4647474099D+00  0.1000000000D+01
 Atom O11      Shell   105 S   1     bf  283 -   283          3.675709215382          0.909741568404          1.559519565537
      0.1850453636D+00  0.1000000000D+01
 Atom O11      Shell   106 P   4     bf  284 -   286          3.675709215382          0.909741568404          1.559519565537
      0.6327495480D+02  0.1201833222D-01
      0.1462704938D+02  0.8300542179D-01
      0.4450122346D+01  0.3199174393D+00
      0.1527579965D+01  0.7071554292D+00
 Atom O11      Shell   107 P   1     bf  287 -   289          3.675709215382          0.909741568404          1.559519565537
      0.5293511794D+00  0.1000000000D+01
 Atom O11      Shell   108 P   1     bf  290 -   292          3.675709215382          0.909741568404          1.559519565537
      0.1747842127D+00  0.1000000000D+01
 Atom O11      Shell   109 D   1     bf  293 -   297          3.675709215382          0.909741568404          1.559519565537
      0.2314000000D+01  0.1000000000D+01
 Atom O11      Shell   110 D   1     bf  298 -   302          3.675709215382          0.909741568404          1.559519565537
      0.6450000000D+00  0.1000000000D+01
 Atom O11      Shell   111 F   1     bf  303 -   309          3.675709215382          0.909741568404          1.559519565537
      0.1428000000D+01  0.1000000000D+01
 Atom N12      Shell   112 S   6     bf  310 -   310          4.909881740836         -0.126418766719         -0.240059604114
      0.1973080065D+05  0.5862640263D-03
      0.2957895874D+04  0.4542882059D-02
      0.6732213360D+03  0.2355841345D-01
      0.1906824949D+03  0.9470919329D-01
      0.6229544190D+02  0.2971978491D+00
      0.2265416118D+02  0.6691624690D+00
 Atom N12      Shell   113 S   2     bf  311 -   311          4.909881740836         -0.126418766719         -0.240059604114
      0.8979147743D+01  0.6459668363D+00
      0.3686300237D+01  0.3870057439D+00
 Atom N12      Shell   114 S   1     bf  312 -   312          4.909881740836         -0.126418766719         -0.240059604114
      0.8466007680D+00  0.1000000000D+01
 Atom N12      Shell   115 S   1     bf  313 -   313          4.909881740836         -0.126418766719         -0.240059604114
      0.3364713377D+00  0.1000000000D+01
 Atom N12      Shell   116 S   1     bf  314 -   314          4.909881740836         -0.126418766719         -0.240059604114
      0.1364765367D+00  0.1000000000D+01
 Atom N12      Shell   117 P   4     bf  315 -   317          4.909881740836         -0.126418766719         -0.240059604114
      0.4920038051D+02  0.1144882510D-01
      0.1134679054D+02  0.7842233797D-01
      0.3427397241D+01  0.3081809474D+00
      0.1178552513D+01  0.7202719637D+00
 Atom N12      Shell   118 P   1     bf  318 -   320          4.909881740836         -0.126418766719         -0.240059604114
      0.4164220497D+00  0.1000000000D+01
 Atom N12      Shell   119 P   1     bf  321 -   323          4.909881740836         -0.126418766719         -0.240059604114
      0.1426082601D+00  0.1000000000D+01
 Atom N12      Shell   120 D   1     bf  324 -   328          4.909881740836         -0.126418766719         -0.240059604114
      0.1654000000D+01  0.1000000000D+01
 Atom N12      Shell   121 D   1     bf  329 -   333          4.909881740836         -0.126418766719         -0.240059604114
      0.4690000000D+00  0.1000000000D+01
 Atom N12      Shell   122 F   1     bf  334 -   340          4.909881740836         -0.126418766719         -0.240059604114
      0.1093000000D+01  0.1000000000D+01
 Atom O13      Shell   123 S   6     bf  341 -   341          7.199282407573         -0.107478964954         -0.321094185777
      0.2703238263D+05  0.5722733521D-03
      0.4052387139D+04  0.4435323349D-02
      0.9223272271D+03  0.2302010771D-01
      0.2612407099D+03  0.9282249067D-01
      0.8535464135D+02  0.2937850001D+00
      0.3103503524D+02  0.6740160450D+00
 Atom O13      Shell   124 S   2     bf  342 -   342          7.199282407573         -0.107478964954         -0.321094185777
      0.1226086073D+02  0.6383993703D+00
      0.4998707601D+01  0.3953458713D+00
 Atom O13      Shell   125 S   1     bf  343 -   343          7.199282407573         -0.107478964954         -0.321094185777
      0.1170310816D+01  0.1000000000D+01
 Atom O13      Shell   126 S   1     bf  344 -   344          7.199282407573         -0.107478964954         -0.321094185777
      0.4647474099D+00  0.1000000000D+01
 Atom O13      Shell   127 S   1     bf  345 -   345          7.199282407573         -0.107478964954         -0.321094185777
      0.1850453636D+00  0.1000000000D+01
 Atom O13      Shell   128 P   4     bf  346 -   348          7.199282407573         -0.107478964954         -0.321094185777
      0.6327495480D+02  0.1201833222D-01
      0.1462704938D+02  0.8300542179D-01
      0.4450122346D+01  0.3199174393D+00
      0.1527579965D+01  0.7071554292D+00
 Atom O13      Shell   129 P   1     bf  349 -   351          7.199282407573         -0.107478964954         -0.321094185777
      0.5293511794D+00  0.1000000000D+01
 Atom O13      Shell   130 P   1     bf  352 -   354          7.199282407573         -0.107478964954         -0.321094185777
      0.1747842127D+00  0.1000000000D+01
 Atom O13      Shell   131 D   1     bf  355 -   359          7.199282407573         -0.107478964954         -0.321094185777
      0.2314000000D+01  0.1000000000D+01
 Atom O13      Shell   132 D   1     bf  360 -   364          7.199282407573         -0.107478964954         -0.321094185777
      0.6450000000D+00  0.1000000000D+01
 Atom O13      Shell   133 F   1     bf  365 -   371          7.199282407573         -0.107478964954         -0.321094185777
      0.1428000000D+01  0.1000000000D+01
 Effective core potential in the form of general ECP input:
      1 0
 Pa1-ECP   5 60
 H component
  1
  2        1.0000000        0.00000000    0.00000000
 S-H projection
  1
  2       15.2691737      475.47573283    0.00000000
 P-H projection
  1
  2        9.9577370      207.66485962    0.00000000
 D-H projection
  1
  2        8.9431413      156.67411988    0.00000000
 F-H projection
  1
  2        7.0104666       67.98223685    0.00000000
 G-H projection
  1
  2       12.2010560      -57.63059989    0.00000000
 
 There are   434 symmetry adapted cartesian basis functions of A   symmetry.
 There are   371 symmetry adapted basis functions of A   symmetry.
   371 basis functions,   648 primitive gaussians,   434 cartesian basis functions
    49 alpha electrons       49 beta electrons
       nuclear repulsion energy       797.5717538867 Hartrees.
 IExCor=  404 DFT=T Ex=B Corr=P86 ExCW=0 ScaHFX=  0.000000
 ScaDFX=  1.000000  1.000000  1.000000  1.000000 ScalE2=  1.000000  1.000000
 IRadAn=      5 IRanWt=     -1 IRanGd=            0 ICorTp=0 IEmpDi=  4
 NAtoms=   13 NActive=   13 NUniq=   13 SFac= 1.00D+00 NAtFMM=   60 NAOKFM=F Big=F
 Integral buffers will be    131072 words long.
 Raffenetti 2 integral format.
 Two-electron integral symmetry is turned on.
 Warning! Using old PCM defaults because the COSMOthermo output has been requested.
 These settings can be overridden by following keywords.
 ------------------------------------------------------------------------------
 Polarizable Continuum Model (PCM)
 =================================
 Model                : C-PCM.
 Atomic radii         : Klamt.
 XCosmo               : -1.000 (infinite dielectric limit)
 Polarization charges : Electronic and nuclear charges.
 Charge compensation  : Type 3 (Electronic density weighted correction).
 Solution method      : On-the-fly selection.
 Cavity type          : VdW (van der Waals Surface) (Alpha=1.000).
 Cavity algorithm     : GePol (No added spheres)
                        Default sphere list used, NSphG=   13.
                        Tesserae with average area of 0.200 Ang**2.
                        Smoothing algorithm: None.
                        Polarization charges: point-like.
                        Self-potential: constant (ISelfS= 1).
                        Self-field    : global E.n sum rule (ISelfD= 3).
 Solvent              : Water, Eps=  78.355300 Eps(inf)=   1.777849
 ------------------------------------------------------------------------------
 Spheres list:
 ISph  on   Nord     Re0    Alpha      Xe            Ye            Ze
    1  Pa      1    2.0000  1.170     -0.388680     -0.071275      0.000633
    2   O      2    1.7200  1.000     -0.394792      1.656698     -1.170600
    3   H      3    1.3000  1.000     -0.975902      2.052058      1.812485
    4   O      4    1.7200  1.000     -0.460725     -1.702739      0.890211
    5   O      5    1.7200  1.000     -0.935202      1.092586      1.723824
    6   O      6    1.7200  1.000     -2.704486     -0.440648     -0.821536
    7   H      7    1.3000  1.000     -3.228666      0.181456     -1.343005
    8   H      8    1.3000  1.000     -3.295932     -1.151706     -0.542179
    9   H      9    1.3000  1.000     -0.484009      2.615833     -1.092621
   10   O     10    1.7200  1.000      1.886282     -0.623350     -1.027625
   11   O     11    1.7200  1.000      1.945102      0.481415      0.825262
   12   N     12    1.8300  1.000      2.598198     -0.066898     -0.127034
   13   O     13    1.7200  1.000      3.809696     -0.056875     -0.169916
 ------------------------------------------------------------------------------
 GePol: Number of generator spheres                  =      13
 GePol: Total number of spheres                      =      13
 GePol: Number of exposed spheres                    =      13 (100.00%)
 GePol: Number of tesserae                           =    1186
 GePol: Average area of tesserae                     =       0.15 Ang**2
 GePol: Minimum area of tessera                      =   0.12D-02 Ang**2
 GePol: Maximum area of tessera                      =    0.35817 Ang**2
 GePol: Number of small tesserae                     =       6
 GePol: Fraction of small tesserae (<1% of avg)      =       0.51%
 GePol: Total count of vertices                      =    3940
 GePol: Maximum number of vertices in a tessera      =       6
 GePol: Cavity surface area                          =    183.459 Ang**2
 GePol: Cavity volume                                =    154.204 Ang**3
 DisRep: Neglecting contributions from atom    1 of solute.
 Leave Link  301 at Tue Jul  4 11:36:08 2023, MaxMem=  2147483648 cpu:               1.0 elap:               0.2
 (Enter /home/pcmt/gaussian/g16.C.01/g16/l302.exe)
 NPDir=0 NMtPBC=     1 NCelOv=     1 NCel=       1 NClECP=     1 NCelD=      1
         NCelK=      1 NCelE2=     1 NClLst=     1 CellRange=     0.0.
 One-electron integrals computed using PRISM.
 One-electron integral symmetry used in STVInt
   1 Symmetry operations used in ECPInt.
 ECPInt:  NShTT=    8911 NPrTT=   26794 LenC2=    8259 LenP2D=   18462.
 LDataN:  DoStor=T MaxTD1= 9 Len=  602
 NBasis=   371 RedAO= T EigKep=  5.38D-04  NBF=   371
 NBsUse=   371 1.00D-06 EigRej= -1.00D+00 NBFU=   371
 Precomputing XC quadrature grid using
 IXCGrd= 4 IRadAn=           5 IRanWt=          -1 IRanGd=           0 AccXCQ= 0.00D+00.
 Defaulting to unpruned grid for atomic number  91.
 Generated NRdTot=       0 NPtTot=           0 NUsed=           0 NTot=          32
 NSgBfM=   426   426   426   426   426 MxSgAt=    13 MxSgA2=    13.
 Leave Link  302 at Tue Jul  4 11:36:10 2023, MaxMem=  2147483648 cpu:               7.4 elap:               1.1
 (Enter /home/pcmt/gaussian/g16.C.01/g16/l303.exe)
 DipDrv:  MaxL=1.
 Leave Link  303 at Tue Jul  4 11:36:10 2023, MaxMem=  2147483648 cpu:               0.6 elap:               0.1
 (Enter /home/pcmt/gaussian/g16.C.01/g16/l401.exe)
 ExpMin= 2.32D-02 ExpMax= 2.70D+04 ExpMxC= 1.20D+04 IAcc=3 IRadAn=         5 AccDes= 0.00D+00
 Harris functional with IExCor=  404 and IRadAn=       5 diagonalized for initial guess.
 HarFok:  IExCor=  404 AccDes= 0.00D+00 IRadAn=         5 IDoV= 1 UseB2=F ITyADJ=14
 ICtDFT=  3500011 ScaDFX=  1.000000  1.000000  1.000000  1.000000
 Defaulting to unpruned grid for atomic number  91.
 FoFCou: FMM=F IPFlag=           0 FMFlag=      100000 FMFlg1=           0
         NFxFlg=           0 DoJE=T BraDBF=F KetDBF=T FulRan=T
         wScrn=  0.000000 ICntrl=       500 IOpCl=  0 I1Cent=   200000004 NGrid=           0
         NMat0=    1 NMatS0=      1 NMatT0=    0 NMatD0=    1 NMtDS0=    0 NMtDT0=    0
 Petite list used in FoFCou.
 Harris En= -1027.28809795521    
 JPrj=0 DoOrth=F DoCkMO=F.
 Leave Link  401 at Tue Jul  4 11:36:12 2023, MaxMem=  2147483648 cpu:              21.5 elap:               2.7
 (Enter /home/pcmt/gaussian/g16.C.01/g16/l502.exe)
 Integral symmetry usage will be decided dynamically.
 Closed shell SCF:
 Using DIIS extrapolation, IDIIS=  1040.
 NGot=  2147483648 LenX=  2147099514 LenY=  2146910717
 Requested convergence on RMS density matrix=1.00D-08 within 100 cycles.
 Requested convergence on MAX density matrix=1.00D-06.
 Requested convergence on             energy=1.00D-06.
 No special actions if energy rises.
 Fock matrices will be formed incrementally for  20 cycles.

 Cycle   1  Pass 1  IDiag  1:
 FoFJK:  IHMeth= 1 ICntrl=     500 DoSepK=F KAlg= 0 I1Cent=           0 FoldK=F
 IRaf= 880000000 NMat=       1 IRICut=       1 DoRegI=T DoRafI=F ISym2E= 0 IDoP0=0 IntGTp=1.
 FoFCou: FMM=F IPFlag=           0 FMFlag=      100000 FMFlg1=           0
         NFxFlg=           0 DoJE=T BraDBF=F KetDBF=F FulRan=T
         wScrn=  0.000000 ICntrl=       500 IOpCl=  0 I1Cent=           0 NGrid=           0
         NMat0=    1 NMatS0=      1 NMatT0=    0 NMatD0=    1 NMtDS0=    0 NMtDT0=    0
 Symmetry not used in FoFCou.
 Defaulting to unpruned grid for atomic number  91.
 Defaulting to unpruned grid for atomic number  91.
 Defaulting to unpruned grid for atomic number  91.
 Defaulting to unpruned grid for atomic number  91.
 Defaulting to unpruned grid for atomic number  91.
 Defaulting to unpruned grid for atomic number  91.
 Defaulting to unpruned grid for atomic number  91.
 Defaulting to unpruned grid for atomic number  91.
 Inv3:  Mode=1 IEnd=     4219788.
 Iteration    1 A*A^-1 deviation from unit magnitude is 1.04D-13 for    511.
 Iteration    1 A*A^-1 deviation from orthogonality  is 3.48D-14 for    850    511.
 Iteration    1 A^-1*A deviation from unit magnitude is 9.98D-14 for    511.
 Iteration    1 A^-1*A deviation from orthogonality  is 4.77D-14 for    850    511.
 E= -1024.67381990200    
 DIIS: error= 4.82D-02 at cycle   1 NSaved=   1.
 NSaved= 1 IEnMin= 1 EnMin= -1024.67381990200     IErMin= 1 ErrMin= 4.82D-02
 ErrMax= 4.82D-02  0.00D+00 EMaxC= 1.00D-01 BMatC= 1.73D+00 BMatP= 1.73D+00
 IDIUse=3 WtCom= 5.18D-01 WtEn= 4.82D-01
 Coeff-Com:  0.100D+01
 Coeff-En:   0.100D+01
 Coeff:      0.100D+01
 Gap=    -0.009 Goal=   None    Shift=    0.000
 GapD=   -0.009 DampG=0.250 DampE=0.250 DampFc=0.1250 IDamp=-1.
 Damping current iteration by 1.25D-01
 RMSDP=1.02D-02 MaxDP=1.15D+00              OVMax= 9.81D-01

 Cycle   2  Pass 1  IDiag  1:
 RMSU=  1.25D-03    CP:  1.01D+00
 E= -1024.78424863319     Delta-E=       -0.110428731191 Rises=F Damp=T
 DIIS: error= 2.66D-02 at cycle   2 NSaved=   2.
 NSaved= 2 IEnMin= 2 EnMin= -1024.78424863319     IErMin= 2 ErrMin= 2.66D-02
 ErrMax= 2.66D-02  0.00D+00 EMaxC= 1.00D-01 BMatC= 2.76D-01 BMatP= 1.73D+00
 IDIUse=3 WtCom= 7.34D-01 WtEn= 2.66D-01
 Coeff-Com: -0.117D+00 0.112D+01
 Coeff-En:   0.448D+00 0.552D+00
 Coeff:      0.336D-01 0.966D+00
 Gap=    -0.035 Goal=   None    Shift=    0.000
 RMSDP=4.07D-03 MaxDP=2.07D-01 DE=-1.10D-01 OVMax= 9.35D-01

 Cycle   3  Pass 1  IDiag  1:
 RMSU=  4.05D-03    CP:  9.94D-01  1.14D+00
 E= -1023.11712343965     Delta-E=        1.667125193538 Rises=F Damp=F
 DIIS: error= 5.15D-02 at cycle   3 NSaved=   3.
 NSaved= 3 IEnMin= 2 EnMin= -1024.78424863319     IErMin= 2 ErrMin= 2.66D-02
 ErrMax= 5.15D-02  0.00D+00 EMaxC= 1.00D-01 BMatC= 2.49D+00 BMatP= 2.76D-01
 IDIUse=2 WtCom= 0.00D+00 WtEn= 1.00D+00
 EnCoef did     3 forward-backward iterations
 Coeff-En:   0.323D+00 0.471D+00 0.206D+00
 Coeff:      0.323D+00 0.471D+00 0.206D+00
 Gap=     0.007 Goal=   None    Shift=    0.000
 RMSDP=6.40D-03 MaxDP=5.33D-01 DE= 1.67D+00 OVMax= 9.08D-01

 Cycle   4  Pass 1  IDiag  1:
 RMSU=  3.46D-03    CP:  1.05D+00  3.00D+00  5.49D-02
 E= -1004.11643089219     Delta-E=       19.000692547462 Rises=F Damp=F
 DIIS: error= 2.75D-01 at cycle   4 NSaved=   4.
 NSaved= 4 IEnMin= 2 EnMin= -1024.78424863319     IErMin= 2 ErrMin= 2.66D-02
 ErrMax= 2.75D-01  0.00D+00 EMaxC= 1.00D-01 BMatC= 4.18D+01 BMatP= 2.76D-01
 IDIUse=2 WtCom= 0.00D+00 WtEn= 1.00D+00
 EnCoef did   100 forward-backward iterations
 Coeff-En:   0.637D+00 0.207D-01 0.230D+00 0.113D+00
 Coeff:      0.637D+00 0.207D-01 0.230D+00 0.113D+00
 Gap=    -0.023 Goal=   None    Shift=    0.000
 RMSDP=3.76D-03 MaxDP=2.66D-01 DE= 1.90D+01 OVMax= 8.59D-01

 Cycle   5  Pass 1  IDiag  1:
 RMSU=  2.09D-03    CP:  1.06D+00  2.50D+00  1.87D-01  2.32D-01
 E= -1025.05456935667     Delta-E=      -20.938138464482 Rises=F Damp=F
 DIIS: error= 4.18D-02 at cycle   5 NSaved=   5.
 NSaved= 5 IEnMin= 5 EnMin= -1025.05456935667     IErMin= 2 ErrMin= 2.66D-02
 ErrMax= 4.18D-02  0.00D+00 EMaxC= 1.00D-01 BMatC= 1.32D+00 BMatP= 2.76D-01
 IDIUse=2 WtCom= 0.00D+00 WtEn= 1.00D+00
 EnCoef did   100 forward-backward iterations
 Coeff-En:   0.430D+00 0.493D-02 0.638D-02 0.000D+00 0.559D+00
 Coeff:      0.430D+00 0.493D-02 0.638D-02 0.000D+00 0.559D+00
 Gap=     0.211 Goal=   None    Shift=    0.000
 RMSDP=2.07D-03 MaxDP=1.83D-01 DE=-2.09D+01 OVMax= 2.40D-01

 Cycle   6  Pass 1  IDiag  1:
 RMSU=  1.20D-03    CP:  1.04D+00  1.43D+00  1.89D-01  8.78D-02  6.01D-01
 E= -1025.61575219169     Delta-E=       -0.561182835022 Rises=F Damp=F
 DIIS: error= 2.06D-02 at cycle   6 NSaved=   6.
 NSaved= 6 IEnMin= 6 EnMin= -1025.61575219169     IErMin= 6 ErrMin= 2.06D-02
 ErrMax= 2.06D-02  0.00D+00 EMaxC= 1.00D-01 BMatC= 2.92D-01 BMatP= 2.76D-01
 IDIUse=3 WtCom= 7.94D-01 WtEn= 2.06D-01
 EnCoef did     8 forward-backward iterations
 Coeff-Com:  0.499D-01 0.327D+00 0.189D-01-0.229D-01 0.294D+00 0.333D+00
 Coeff-En:   0.337D-01 0.000D+00 0.000D+00 0.000D+00 0.291D+00 0.675D+00
 Coeff:      0.465D-01 0.259D+00 0.150D-01-0.181D-01 0.294D+00 0.404D+00
 Gap=     0.154 Goal=   None    Shift=    0.000
 RMSDP=9.68D-04 MaxDP=4.93D-02 DE=-5.61D-01 OVMax= 1.41D-01

 Cycle   7  Pass 1  IDiag  1:
 RMSU=  6.08D-04    CP:  1.05D+00  1.53D+00  1.33D-01  1.19D-01  6.85D-01
                    CP:  4.41D-01
 E= -1025.75081972520     Delta-E=       -0.135067533510 Rises=F Damp=F
 DIIS: error= 1.65D-02 at cycle   7 NSaved=   7.
 NSaved= 7 IEnMin= 7 EnMin= -1025.75081972520     IErMin= 7 ErrMin= 1.65D-02
 ErrMax= 1.65D-02  0.00D+00 EMaxC= 1.00D-01 BMatC= 1.30D-01 BMatP= 2.76D-01
 IDIUse=3 WtCom= 8.35D-01 WtEn= 1.65D-01
 EnCoef did     2 forward-backward iterations
 Coeff-Com: -0.102D+00 0.242D+00-0.387D-02-0.604D-02 0.127D+00 0.298D+00
 Coeff-Com:  0.445D+00
 Coeff-En:   0.000D+00 0.000D+00 0.000D+00 0.000D+00 0.162D+00 0.219D+00
 Coeff-En:   0.618D+00
 Coeff:     -0.850D-01 0.202D+00-0.324D-02-0.504D-02 0.133D+00 0.285D+00
 Coeff:      0.473D+00
 Gap=     0.133 Goal=   None    Shift=    0.000
 RMSDP=5.45D-04 MaxDP=2.89D-02 DE=-1.35D-01 OVMax= 8.34D-02

 Cycle   8  Pass 1  IDiag  1:
 RMSU=  3.13D-04    CP:  1.05D+00  1.69D+00  1.33D-01  1.23D-01  7.21D-01
                    CP:  5.60D-01  4.07D-01
 E= -1025.83153197942     Delta-E=       -0.080712254216 Rises=F Damp=F
 DIIS: error= 8.49D-03 at cycle   8 NSaved=   8.
 NSaved= 8 IEnMin= 8 EnMin= -1025.83153197942     IErMin= 8 ErrMin= 8.49D-03
 ErrMax= 8.49D-03  0.00D+00 EMaxC= 1.00D-01 BMatC= 2.37D-02 BMatP= 1.30D-01
 IDIUse=3 WtCom= 9.15D-01 WtEn= 8.49D-02
 EnCoef did     2 forward-backward iterations
 Coeff-Com: -0.849D-01 0.137D+00-0.108D-01-0.185D-02 0.845D-01 0.156D+00
 Coeff-Com:  0.339D+00 0.381D+00
 Coeff-En:   0.000D+00 0.000D+00 0.000D+00 0.000D+00 0.143D-01 0.000D+00
 Coeff-En:   0.724D-02 0.978D+00
 Coeff:     -0.777D-01 0.126D+00-0.984D-02-0.169D-02 0.786D-01 0.143D+00
 Coeff:      0.311D+00 0.431D+00
 Gap=     0.137 Goal=   None    Shift=    0.000
 RMSDP=2.78D-04 MaxDP=1.51D-02 DE=-8.07D-02 OVMax= 3.94D-02

 Cycle   9  Pass 1  IDiag  1:
 RMSU=  1.70D-04    CP:  1.05D+00  1.76D+00  1.35D-01  1.30D-01  7.52D-01
                    CP:  4.99D-01  6.02D-01  6.35D-01
 E= -1025.84263191633     Delta-E=       -0.011099936909 Rises=F Damp=F
 DIIS: error= 4.84D-03 at cycle   9 NSaved=   9.
 NSaved= 9 IEnMin= 9 EnMin= -1025.84263191633     IErMin= 9 ErrMin= 4.84D-03
 ErrMax= 4.84D-03  0.00D+00 EMaxC= 1.00D-01 BMatC= 9.62D-03 BMatP= 2.37D-02
 IDIUse=3 WtCom= 9.52D-01 WtEn= 4.84D-02
 Coeff-Com: -0.297D-01 0.355D-01-0.113D-01 0.690D-03 0.347D-01-0.227D-01
 Coeff-Com:  0.100D-01 0.365D+00 0.618D+00
 Coeff-En:   0.000D+00 0.000D+00 0.000D+00 0.000D+00 0.000D+00 0.000D+00
 Coeff-En:   0.000D+00 0.158D+00 0.842D+00
 Coeff:     -0.283D-01 0.338D-01-0.107D-01 0.656D-03 0.331D-01-0.216D-01
 Coeff:      0.954D-02 0.355D+00 0.629D+00
 Gap=     0.141 Goal=   None    Shift=    0.000
 RMSDP=1.88D-04 MaxDP=1.58D-02 DE=-1.11D-02 OVMax= 1.98D-02

 Cycle  10  Pass 1  IDiag  1:
 RMSU=  1.11D-04    CP:  1.05D+00  1.84D+00  1.35D-01  1.37D-01  7.80D-01
                    CP:  5.00D-01  5.71D-01  9.36D-01  9.21D-01
 E= -1025.85004179924     Delta-E=       -0.007409882913 Rises=F Damp=F
 DIIS: error= 1.15D-03 at cycle  10 NSaved=  10.
 NSaved=10 IEnMin=10 EnMin= -1025.85004179924     IErMin=10 ErrMin= 1.15D-03
 ErrMax= 1.15D-03  0.00D+00 EMaxC= 1.00D-01 BMatC= 8.20D-04 BMatP= 9.62D-03
 IDIUse=3 WtCom= 9.89D-01 WtEn= 1.15D-02
 Coeff-Com:  0.116D-01-0.142D-01-0.156D-02 0.688D-03 0.279D-02-0.645D-01
 Coeff-Com: -0.988D-01 0.524D-01 0.337D+00 0.774D+00
 Coeff-En:   0.000D+00 0.000D+00 0.000D+00 0.000D+00 0.000D+00 0.000D+00
 Coeff-En:   0.000D+00 0.000D+00 0.000D+00 0.100D+01
 Coeff:      0.115D-01-0.140D-01-0.154D-02 0.680D-03 0.276D-02-0.637D-01
 Coeff:     -0.977D-01 0.518D-01 0.334D+00 0.777D+00
 Gap=     0.137 Goal=   None    Shift=    0.000
 RMSDP=1.68D-04 MaxDP=1.24D-02 DE=-7.41D-03 OVMax= 1.76D-02

 Cycle  11  Pass 1  IDiag  1:
 RMSU=  7.57D-05    CP:  1.05D+00  1.89D+00  1.33D-01  1.42D-01  7.99D-01
                    CP:  4.87D-01  6.05D-01  1.07D+00  1.40D+00  1.67D+00
 E= -1025.85088655677     Delta-E=       -0.000844757532 Rises=F Damp=F
 DIIS: error= 1.14D-03 at cycle  11 NSaved=  11.
 NSaved=11 IEnMin=11 EnMin= -1025.85088655677     IErMin=11 ErrMin= 1.14D-03
 ErrMax= 1.14D-03  0.00D+00 EMaxC= 1.00D-01 BMatC= 1.61D-03 BMatP= 8.20D-04
 IDIUse=3 WtCom= 9.89D-01 WtEn= 1.15D-02
 Coeff-Com:  0.172D-01-0.211D-01 0.580D-03 0.357D-03-0.188D-02-0.509D-01
 Coeff-Com: -0.804D-01 0.203D-01 0.225D+00 0.606D+00 0.284D+00
 Coeff-En:   0.000D+00 0.000D+00 0.000D+00 0.000D+00 0.000D+00 0.000D+00
 Coeff-En:   0.000D+00 0.000D+00 0.000D+00 0.164D+00 0.836D+00
 Coeff:      0.170D-01-0.209D-01 0.574D-03 0.353D-03-0.186D-02-0.503D-01
 Coeff:     -0.795D-01 0.201D-01 0.223D+00 0.601D+00 0.291D+00
 Gap=     0.133 Goal=   None    Shift=    0.000
 RMSDP=5.62D-05 MaxDP=4.07D-03 DE=-8.45D-04 OVMax= 5.99D-03

 Cycle  12  Pass 1  IDiag  1:
 RMSU=  2.88D-05    CP:  1.05D+00  1.90D+00  1.33D-01  1.43D-01  8.03D-01
                    CP:  4.82D-01  6.12D-01  1.13D+00  1.52D+00  1.99D+00
                    CP:  1.08D+00
 E= -1025.85091338273     Delta-E=       -0.000026825956 Rises=F Damp=F
 DIIS: error= 1.40D-03 at cycle  12 NSaved=  12.
 NSaved=12 IEnMin=12 EnMin= -1025.85091338273     IErMin=11 ErrMin= 1.14D-03
 ErrMax= 1.40D-03  0.00D+00 EMaxC= 1.00D-01 BMatC= 2.03D-03 BMatP= 8.20D-04
 IDIUse=3 WtCom= 9.89D-01 WtEn= 1.15D-02
 EnCoef did     3 forward-backward iterations
 Coeff-Com:  0.127D-01-0.164D-01 0.144D-02 0.241D-03-0.407D-02-0.295D-01
 Coeff-Com: -0.371D-01 0.729D-01 0.208D+00 0.220D+00-0.198D-01 0.592D+00
 Coeff-En:   0.000D+00 0.000D+00 0.000D+00 0.000D+00 0.000D+00 0.000D+00
 Coeff-En:   0.000D+00 0.000D+00 0.000D+00 0.125D+00 0.369D+00 0.507D+00
 Coeff:      0.126D-01-0.162D-01 0.142D-02 0.238D-03-0.402D-02-0.291D-01
 Coeff:     -0.367D-01 0.720D-01 0.205D+00 0.219D+00-0.154D-01 0.591D+00
 Gap=     0.134 Goal=   None    Shift=    0.000
 RMSDP=2.37D-05 MaxDP=3.27D-03 DE=-2.68D-05 OVMax= 2.09D-03

 Cycle  13  Pass 1  IDiag  1:
 RMSU=  1.48D-05    CP:  1.05D+00  1.90D+00  1.33D-01  1.42D-01  8.00D-01
                    CP:  4.85D-01  6.17D-01  1.14D+00  1.52D+00  1.98D+00
                    CP:  1.22D+00  1.10D+00
 E= -1025.85126920801     Delta-E=       -0.000355825283 Rises=F Damp=F
 DIIS: error= 1.20D-03 at cycle  13 NSaved=  13.
 NSaved=13 IEnMin=13 EnMin= -1025.85126920801     IErMin=11 ErrMin= 1.14D-03
 ErrMax= 1.20D-03  0.00D+00 EMaxC= 1.00D-01 BMatC= 1.37D-03 BMatP= 8.20D-04
 IDIUse=3 WtCom= 9.89D-01 WtEn= 1.15D-02
 Coeff-Com: -0.142D-03-0.231D-02 0.885D-03-0.284D-04-0.115D-01 0.169D-01
 Coeff-Com:  0.373D-01 0.116D+00 0.131D+00-0.451D+00-0.872D+00-0.318D-01
 Coeff-Com:  0.207D+01
 Coeff-En:   0.000D+00 0.000D+00 0.000D+00 0.000D+00 0.000D+00 0.000D+00
 Coeff-En:   0.000D+00 0.000D+00 0.000D+00 0.000D+00 0.000D+00 0.000D+00
 Coeff-En:   0.100D+01
 Coeff:     -0.140D-03-0.229D-02 0.875D-03-0.281D-04-0.114D-01 0.168D-01
 Coeff:      0.369D-01 0.115D+00 0.130D+00-0.446D+00-0.862D+00-0.314D-01
 Coeff:      0.205D+01
 Gap=     0.138 Goal=   None    Shift=    0.000
 RMSDP=9.92D-05 MaxDP=9.23D-03 DE=-3.56D-04 OVMax= 1.21D-02

 Cycle  14  Pass 1  IDiag  1:
 RMSU=  3.11D-05    CP:  1.05D+00  1.86D+00  1.34D-01  1.38D-01  7.89D-01
                    CP:  5.09D-01  6.41D-01  1.16D+00  1.62D+00  2.26D+00
                    CP:  1.74D+00  2.61D+00  1.25D+00
 E= -1025.85213818415     Delta-E=       -0.000868976142 Rises=F Damp=F
 DIIS: error= 1.22D-03 at cycle  14 NSaved=  14.
 NSaved=14 IEnMin=14 EnMin= -1025.85213818415     IErMin=11 ErrMin= 1.14D-03
 ErrMax= 1.22D-03  0.00D+00 EMaxC= 1.00D-01 BMatC= 2.58D-04 BMatP= 8.20D-04
 IDIUse=3 WtCom= 9.89D-01 WtEn= 1.15D-02
 Coeff-Com: -0.486D-03-0.116D-02 0.339D-03 0.991D-04-0.903D-02 0.136D-01
 Coeff-Com:  0.215D-01 0.460D-01 0.506D-01-0.277D+00-0.641D+00-0.586D+00
 Coeff-Com:  0.191D+01 0.477D+00
 Coeff-En:   0.000D+00 0.000D+00 0.000D+00 0.000D+00 0.000D+00 0.000D+00
 Coeff-En:   0.000D+00 0.000D+00 0.000D+00 0.000D+00 0.000D+00 0.000D+00
 Coeff-En:   0.000D+00 0.100D+01
 Coeff:     -0.481D-03-0.115D-02 0.335D-03 0.980D-04-0.892D-02 0.134D-01
 Coeff:      0.212D-01 0.455D-01 0.500D-01-0.274D+00-0.634D+00-0.579D+00
 Coeff:      0.188D+01 0.483D+00
 Gap=     0.129 Goal=   None    Shift=    0.000
 RMSDP=5.04D-05 MaxDP=3.25D-03 DE=-8.69D-04 OVMax= 7.19D-03

 Cycle  15  Pass 1  IDiag  1:
 RMSU=  1.93D-05    CP:  1.05D+00  1.86D+00  1.35D-01  1.38D-01  7.87D-01
                    CP:  5.14D-01  6.53D-01  1.19D+00  1.70D+00  2.47D+00
                    CP:  2.05D+00  2.96D+00  2.23D+00  4.27D-01
 E= -1025.85226116654     Delta-E=       -0.000122982388 Rises=F Damp=F
 DIIS: error= 3.79D-04 at cycle  15 NSaved=  15.
 NSaved=15 IEnMin=15 EnMin= -1025.85226116654     IErMin=15 ErrMin= 3.79D-04
 ErrMax= 3.79D-04  0.00D+00 EMaxC= 1.00D-01 BMatC= 7.18D-05 BMatP= 2.58D-04
 IDIUse=3 WtCom= 9.96D-01 WtEn= 3.79D-03
 Coeff-Com:  0.256D-03 0.138D-02-0.369D-03 0.385D-04-0.999D-03 0.727D-03
[...]
  58         V                -0.022351         20.768788
  59         V                -0.019440          5.755548
  60         V                 0.008822          1.687657
  61         V                 0.013079          1.108871
  62         V                 0.025289          0.967618
  63         V                 0.031165          0.798283
  64         V                 0.043329          1.498731
  65         V                 0.057266          2.253468
  66         V                 0.071528          2.941184
  67         V                 0.081568          3.424901
  68         V                 0.099013          1.456480
  69         V                 0.106932         11.692423
  70         V                 0.114790          4.303517
  71         V                 0.124452          2.585566
  72         V                 0.135092          2.927115
  73         V                 0.197532          1.433571
  74         V                 0.200836          1.537534
  75         V                 0.218250          3.203139
  76         V                 0.240158          1.374890
  77         V                 0.251443          1.725201
  78         V                 0.257926          1.429736
  79         V                 0.265470          1.484972
  80         V                 0.282454          1.372775
  81         V                 0.285229          1.395791
  82         V                 0.296453          1.283177
  83         V                 0.300247          1.742175
  84         V                 0.322376          1.431553
  85         V                 0.327351          2.620813
  86         V                 0.340956          1.377225
  87         V                 0.347681          1.782216
  88         V                 0.355617          1.518712
  89         V                 0.363902          1.380668
  90         V                 0.393283          1.363501
  91         V                 0.397478          2.201301
  92         V                 0.411925          2.031815
  93         V                 0.421102          1.795436
  94         V                 0.439849          1.973181
  95         V                 0.447221          1.661228
  96         V                 0.458657          1.646011
  97         V                 0.475731          1.562743
  98         V                 0.481876          1.749442
  99         V                 0.485779          1.531560
 100         V                 0.495011          1.613984
 101         V                 0.507127          1.680582
 102         V                 0.517681          1.638556
 103         V                 0.526631          2.364121
 104         V                 0.528229          2.028042
 105         V                 0.539077          1.676785
 106         V                 0.559694          1.518953
 107         V                 0.561936          1.733913
 108         V                 0.578996          1.548746
 109         V                 0.588037          1.750997
 110         V                 0.606403          1.846538
 111         V                 0.617205          1.508167
 112         V                 0.632432          1.669519
 113         V                 0.661291          2.046121
 114         V                 0.670931          2.028163
 115         V                 0.686108          1.862255
 116         V                 0.697375          1.515319
 117         V                 0.700837          1.966844
 118         V                 0.729859          1.688717
 119         V                 0.760590          1.778953
 120         V                 0.783905          1.672315
 121         V                 0.829574          1.752316
 122         V                 0.867436          2.149570
 123         V                 0.879407          2.035838
 124         V                 0.900006          2.339109
 125         V                 0.942887          2.008118
 126         V                 0.947716          2.021334
 127         V                 0.950806          2.167975
 128         V                 0.965623          2.819947
 129         V                 1.015135          2.485604
 130         V                 1.041786          2.745887
 131         V                 1.074962          2.897957
 132         V                 1.087393          2.662666
 133         V                 1.102244          2.611486
 134         V                 1.106097          2.477824
 135         V                 1.118144          2.632777
 136         V                 1.147075          3.113855
 137         V                 1.150149          2.609780
 138         V                 1.168611          2.851907
 139         V                 1.178591          2.698959
 140         V                 1.186610          2.924350
 141         V                 1.200698          2.641278
 142         V                 1.212861          2.397039
 143         V                 1.241830          2.625897
 144         V                 1.243615          2.485618
 145         V                 1.270002          3.078469
 146         V                 1.281266          3.032610
 147         V                 1.309170          3.006415
 148         V                 1.323566          2.530761
 149         V                 1.353516          2.993207
 150         V                 1.356920          3.348391
 151         V                 1.400335          3.028516
 152         V                 1.406390          2.391859
 153         V                 1.428419          2.451291
 154         V                 1.454631          3.042426
 155         V                 1.461673          3.182376
 156         V                 1.474592          3.222187
 157         V                 1.526020          2.835107
 158         V                 1.530493          3.034921
 159         V                 1.547237          3.102627
 160         V                 1.563863          3.201124
 161         V                 1.600200          3.101805
 162         V                 1.616337          3.082313
 163         V                 1.635856          3.171704
 164         V                 1.638961          3.174366
 165         V                 1.655327          3.101932
 166         V                 1.663388          3.248870
 167         V                 1.676381          3.241634
 168         V                 1.693566          3.511659
 169         V                 1.706393          3.140332
 170         V                 1.734469          3.315657
 171         V                 1.747785          3.251312
 172         V                 1.755656          2.988806
 173         V                 1.775772          3.441877
 174         V                 1.780287          3.419204
 175         V                 1.820904          3.547881
 176         V                 1.839257          3.600411
 177         V                 1.844625          3.595748
 178         V                 1.881327          3.537386
 179         V                 1.911343          3.697340
 180         V                 1.927389          3.562893
 181         V                 1.958733          3.852629
 182         V                 2.007078          3.526260
 183         V                 2.016401          3.477007
 184         V                 2.027709          2.942643
 185         V                 2.037690          4.194191
 186         V                 2.047089          4.002779
 187         V                 2.052085          3.898021
 188         V                 2.085217          3.810070
 189         V                 2.092595          3.814002
 190         V                 2.107586          3.639228
 191         V                 2.126521          3.784000
 192         V                 2.132324          3.851548
 193         V                 2.148251          3.898169
 194         V                 2.170200          3.899384
 195         V                 2.215518          4.555164
 196         V                 2.232317          4.011971
 197         V                 2.283989          5.041373
 198         V                 2.288738          4.091310
 199         V                 2.298894          5.037427
 200         V                 2.317449          5.023596
 201         V                 2.364677          5.298811
 202         V                 2.385465          4.962195
 203         V                 2.428548          4.274262
 204         V                 2.502313          6.080334
 205         V                 2.507246          4.342107
 206         V                 2.524419          6.488345
 207         V                 2.538423          4.915889
 208         V                 2.552242          6.236233
 209         V                 2.584456          6.212745
 210         V                 2.593817          6.441292
 211         V                 2.599380          5.331037
 212         V                 2.620146          6.473170
 213         V                 2.624129          6.866206
 214         V                 2.633748          6.621490
 215         V                 2.647149          6.077345
 216         V                 2.665035          6.655464
 217         V                 2.693995          6.133899
 218         V                 2.713606          6.183229
 219         V                 2.809338          7.011894
 220         V                 2.882799          6.699991
 221         V                 2.895262          6.687311
 222         V                 2.921102          7.082669
 223         V                 2.953960          7.150730
 224         V                 3.021074          6.974863
 225         V                 3.034037          6.760736
 226         V                 3.062430          6.980799
 227         V                 3.090248          7.335256
 228         V                 3.149933          7.308797
 229         V                 3.196578          7.409629
 230         V                 3.373676          8.187979
 231         V                 3.451739          7.066251
 232         V                 3.529762          6.943408
 233         V                 3.564911          6.918387
 234         V                 3.660681          8.353329
 235         V                 3.678110          7.610858
 236         V                 3.697496          8.440243
 237         V                 3.709302          7.673030
 238         V                 3.745924          5.639267
 239         V                 3.763337          7.513444
 240         V                 3.779670          6.760323
 241         V                 3.810349          8.998013
 242         V                 3.876338          7.495352
 243         V                 3.885688          8.455810
 244         V                 3.900740          9.039210
 245         V                 3.953072          9.041511
 246         V                 4.030201          5.552871
 247         V                 4.057175          8.118667
 248         V                 4.075355          9.227295
 249         V                 4.090271          7.962964
 250         V                 4.296095          8.980912
 251         V                 4.398847          6.663133
 252         V                 4.459278          6.618801
 253         V                 4.468817          6.957208
 254         V                 4.492354          6.548888
 255         V                 4.521936          6.711162
 256         V                 4.829078          6.885699
 257         V                 4.931157          6.795596
 258         V                 4.950302          6.471828
 259         V                 4.963010          6.534499
 260         V                 4.989673          6.457330
 261         V                 4.990328          6.454457
 262         V                 5.001731          6.939130
 263         V                 5.005422          6.482297
 264         V                 5.006988          6.528094
 265         V                 5.011155          6.476400
 266         V                 5.020032          6.558982
 267         V                 5.029399          6.563503
 268         V                 5.033673          6.623411
 269         V                 5.038399          6.478585
 270         V                 5.040221          6.525930
 271         V                 5.046532          6.498549
 272         V                 5.073385          6.759450
 273         V                 5.087647          6.688044
 274         V                 5.092919          6.729343
 275         V                 5.106457          6.636200
 276         V                 5.132789          6.912503
 277         V                 5.153024          6.870200
 278         V                 5.161736          6.744945
 279         V                 5.188865          6.898720
 280         V                 5.207151          6.919562
 281         V                 5.209237          6.925300
 282         V                 5.228807          6.909615
 283         V                 5.245216          6.845592
 284         V                 5.281539          7.212291
 285         V                 5.301896          7.611838
 286         V                 5.308119          7.069817
 287         V                 5.313994          7.102868
 288         V                 5.320327          7.056818
 289         V                 5.337566          7.005554
 290         V                 5.364699          7.080708
 291         V                 5.395075          7.290559
 292         V                 5.402414          7.666431
 293         V                 5.440330          7.170924
 294         V                 5.487496          7.558915
 295         V                 5.787138          8.179825
 296         V                 5.790024          8.206148
 297         V                 5.842482          8.519809
 298         V                 5.969079          8.455164
 299         V                 6.055000          9.116854
 300         V                 6.068358         10.165165
 301         V                 6.075262          9.232877
 302         V                 6.098705          9.034510
 303         V                 6.116672          9.275838
 304         V                 6.144692          9.463367
 305         V                 6.164172          9.469799
 306         V                 6.174225          9.417128
 307         V                 6.192946          9.350823
 308         V                 6.204229          9.317641
 309         V                 6.209373          9.299538
 310         V                 6.214038          9.334148
 311         V                 6.228254          9.314928
 312         V                 6.235026          9.414750
 313         V                 6.266092          9.300977
 314         V                 6.273967          9.238816
 315         V                 6.342837          9.456121
 316         V                 6.371908          9.605351
 317         V                 6.384502          9.433543
 318         V                 6.395207          9.671588
 319         V                 6.430029          9.608757
 320         V                 6.469882          9.681166
 321         V                 6.475287          9.854631
 322         V                 6.539423          9.966385
 323         V                 6.596809          9.747331
 324         V                 6.623169          9.675232
 325         V                 6.650850          9.112434
 326         V                 6.662900          9.249671
 327         V                 6.683691         10.561744
 328         V                 6.697920          9.905125
 329         V                 6.717859          8.973045
 330         V                 6.734746         10.005678
 331         V                 6.748286          9.907157
 332         V                 6.753202         10.027141
 333         V                 6.801862         10.413175
 334         V                 6.870108          9.803761
 335         V                 6.917370          9.822379
 336         V                 6.974785         10.303521
 337         V                 6.988177          9.874419
 338         V                 7.056521         10.529491
 339         V                 7.113546         10.472470
 340         V                 7.131564         10.336441
 341         V                 7.275033         12.413186
 342         V                 7.312632          9.553758
 343         V                 7.339504         13.222273
 344         V                 7.414543         11.010362
 345         V                 7.442348         10.975100
 346         V                 7.476470         13.447022
 347         V                 8.174345         15.806469
 348         V                 8.212975         15.805423
 349         V                 8.290954         15.781424
 350         V                 8.596614         15.991302
 351         V                 8.968703         16.211852
 352         V                29.335891         36.052808
 353         V                29.414537         36.116226
 354         V                29.482659         36.178122
 355         V                31.801628         80.236226
 356         V                43.064738        108.482377
 357         V                43.220774        108.576110
 358         V                43.449290        108.803062
 359         V                43.480950        108.905993
 360         V                43.575963        108.972808
 361         V                43.583829        108.949177
 362         V                43.625161        109.046190
 363         V                54.110959         40.003698
 364         V                70.231106         83.974839
 365         V                70.271986         84.058005
 366         V                70.318773         84.123875
 367         V               142.630439        242.466320
 368         V               142.715562        242.572492
 369         V               142.793325        242.668773
 370         V               202.603777        130.095350
 371         V               626.108193       1034.528950
 Total kinetic energy from orbitals= 7.448231434642D+02
 No NMR shielding tensors so no spin-rotation constants.
 Leave Link  601 at Tue Jul  4 11:40:01 2023, MaxMem=  2147483648 cpu:               3.9 elap:               0.5
 (Enter /home/pcmt/gaussian/g16.C.01/g16/l9999.exe)

 Test job not archived.
 1\1\GINC-U-0-0\SP\RBP86\Gen\H4N1O7Pa1\ROOT\04-Jul-2023\0\\#p BP86/GEN 
 Pseudo=Read GFInput GFPrint IOP(6/7=3) Symm=(Loose) Int=(UltraFine) Gu
 ess=(Harris) SCRF=(COSMORS) Scf=(NoVarAcc,MaxCycle=100,conver=8)\\pao_
 oh2_no3_h2o-bp86-cosmors-deftzvp-klamt.com SGP in PCM calculation\\0,1
 \Pa,0,-0.194754301,0.4562769608,0.0533123147\O,0,1.3279116711,1.159042
 78,-1.1897975139\H,0,-1.3972924062,0.7160228043,-2.5201318205\O,0,-1.4
 139661858,-0.2739548927,1.2526868073\O,0,-1.5327637513,0.3762999166,-1
 .6277537581\O,0,0.7949959708,-1.7984081683,-0.2815699973\H,0,1.5023666
 105,-2.0225881943,-0.9005032503\H,0,0.4356383083,-2.6286340013,0.05760
 25781\H,0,1.4794619711,1.4543100407,-2.0974484041\O,0,0.4017110569,2.3
 500684462,1.6643170245\O,0,-1.1477158664,2.7998372054,0.2310897322\N,0
 ,-0.4290586256,3.2039367129,1.2079645728\O,0,-0.5308405672,4.321469584
 6,1.6666899875\\Version=ES64L-G16RevC.01\State=1-A\HF=-1025.8523253\RM
 SD=2.137e-09\Dipole=3.0526377,-3.6001155,-2.5933668\Quadrupole=-4.6953
 056,2.5688626,2.126443,-7.9929173,-2.8392921,-2.9223511\PG=C01 [X(H4N1
 O7Pa1)]\\@


 "PERFECTION IS NOT AN ACCIDENT"
         --  EAGLE ELECTRIC MANUFACTURING CO.,INC. NY
 Job cpu time:       0 days  0 hours 30 minutes 32.0 seconds.
 Elapsed time:       0 days  0 hours  3 minutes 52.8 seconds.
 File lengths (MBytes):  RWF=     87 Int=      0 D2E=      0 Chk=     10 Scr=      1
 Normal termination of Gaussian 16 at Tue Jul  4 11:40:01 2023.
