

 Parallel Execution: Process Information
 ==============================================================================
 Rank   Node Name                              NodeID   MyNodeRank  NodeMaster
    0   u-0-1.local                               0          0          0
    1   u-0-1.local                               0          1         -1
    2   u-0-1.local                               1          0          1
    3   u-0-1.local                               1          1         -1
    4   u-0-1.local                               2          0          2
    5   u-0-1.local                               2          1         -1
    6   u-0-1.local                               3          0          3
    7   u-0-1.local                               3          1         -1
 ==============================================================================


May use up to 31228MB of RAM as shared memory on node 0
May use up to 31250MB of RAM as shared memory on node 1
May use up to 31250MB of RAM as shared memory on node 2
May use up to 31250MB of RAM as shared memory on node 3

 *******************************************************************************
 *                                                                             *
 *  --------------------------------                                           *
 *   Amsterdam Modeling Suite (AMS)              2022.103                      *
 *  --------------------------------                                           *
 *                                               r104886 2022-06-17            *
 *                                                                             *
 *                                                                             *
 *                              =================                              *
 *                              |               |                              *
 *                              |     A M S     |                              *
 *                              |               |                              *
 *                              =================                              *
 *                                                                             *
 *                                                                             *
 *   Online information and documentation:  https://www.scm.com/support/       *
 *   E-mail:  support@scm.com   info@scm.com                                   *
 *                                                                             *
 *   Scientific publications using AMS results must be properly referenced     *
 *   See the User Manuals (or the web site) for recommended citations          *
 *   The terms and conditions of the End User License Agreement apply to       *
 *   the use of AMS, https://www.scm.com/license-terms/                        *
 *                                                                             *
 **********************  x86_64_linux_intel / intelmpi  ************************
 
 Licensed to: Dr. Val?rie Vallet / Laboratoire PhLAM UMR 8523 / Villeneuve d'Ascq Cedex / FRANCE 2023-02-21 11:49:39
 SCM User ID: u10325
  
 AMS 2022.103  RunTime: Feb23-2023 17:50:18  ShM Nodes: 4  Procs: 8

 AMS jobname: ams
 AMS jobid  : 1749037153

 Start   directory: /home/shaaban/ams/PhD/bromide/pao_oh2_br_h2o/gp/
 Results directory: /home/shaaban/ams/PhD/bromide/pao_oh2_br_h2o/gp/pao_oh2_br_h2o.SR.b3lyp.tz2p.opt-freq.results/
 Scratch directory: /state/partition2/shaaban/929449.phlam-s-sakura/amstmp_ams_kid0.1749037153/


 Communication costs MPI_COMM_WORLD:      2.739 usec per message,   0.0089 usec per 8-byte item
 Communication costs for intra-node:      0.495 usec per message,   0.0024 usec per 8-byte item

 RNG seed: -1948959085 833108787 -2013802138 -406153782 2087384478 1753608557 1903378370 -1922762015



                      ************************************************************************
                      *  ADF 2022.103  RunTime: Feb23-2023 17:50:19  ShM Nodes: 4  Procs: 8  *
                      ************************************************************************
  
       ***************************
       *  GEOMETRY OPTIMIZATION  *
       ***************************

Optimization Method                    Quasi Newton
Optimization Coordinates               Delocalized Coordinates
Optimize lattice                       F
 
 ------------------------------------------------------
 Convergence criteria (Hartree,Angstrom)
 ------------------------------------------------------
 Maximum gradient               0.000100000000
 Maximum rms gradient           0.000066666667
 Maximum step allowed           0.001000000000
 Maximum rms step allowed       0.000666666667
 Maximum energy change allowe   0.000010000000
 Maximum stress energy allowe   0.000500000000
 
Initial model Hessian                  Automatic Hessian
 
------------------------------------
Quasi-Newton Optimizer Parameters
------------------------------------
Hessian Update Method                  BFGS
Maximum number of steps                  250
First GDIIS cycle                          0
Maximum GDIIS vectors                      0
Trust radius (bohr)                        0.200000
Trust radius varies                        T
Constraints converged at all steps         T
Use projector                              T
 
 Rigid motions settings for: old optimizer
 Atomic rotations (x,y,z):     T T T
 Atomic translations (x,y,z):  T T T
 Tolerance:                   1.000000000000000E-006
 
--------
Geometry
--------
Formula: H4BrO4Pa
Atoms
  Index Symbol   x (angstrom)   y (angstrom)   z (angstrom)
      1     Pa     0.41625635     0.11062101     0.00453388
      2      O     1.10953981     1.38674047    -1.55214785
      3      H     1.04259017     2.25028412    -1.97581368
      4      O    -0.89543235     1.12286003     0.84749514
      5      H    -0.91296272    -2.38177016     0.68613582
      6      O    -0.14911669    -1.59415248    -1.23782329
      7      H    -0.05769586    -1.90715355    -2.14576573
      8      O    -0.71453397    -1.79860163     1.44273294
      9      H    -1.56727131    -1.49636857     1.79395880
     10     Br     2.95168535    -1.00493210    -0.00186936
 
Total System Charge             0.00000
Bonding info available!
 
 
----------------
ADF Engine Input
----------------
 
 Basis
 Type TZ2P
 Core None
 End
 XC
 Hybrid B3LYP
 End
 NumericalQuality Good
 

 Title: *** (NO TITLE) ***

 Using automatic Hessian for delocalized coordinates.
 *** GO1_GOStep1 ***



 ======================
 RI Hartree-Fock Scheme
 ======================
  
 Fit Set Quality     : GOOD
 Threshold Quality   : GOOD
 Integration Quality : GOOD
 Response Quality    : DEFAULT
 Is Range Separated  :  F
 
 RIHartreeFock Dependency: number of modified vectors:           4
  
 Hartree-Fock exchange energy:   -591.698663515726     

 Energy gradients wrt nuclear displacements
 ==========================================

     Atom      Cartesian (a.u./angstrom)
                 X         Y         Z
 ----------------------------------------
     1 Pa    0.003785  0.006806  0.030976
     2 O     0.016641 -0.000301 -0.013501
     3 H    -0.000535  0.007638 -0.001407
     4 O    -0.019095  0.012742  0.009413
     5 H    -0.003777 -0.002772 -0.005754
     6 O     0.008190 -0.022503 -0.006325
     7 H    -0.001793 -0.002865 -0.007546
     8 O     0.009840 -0.001911  0.005745
     9 H    -0.008058  0.003843  0.001832
    10 Br   -0.005197 -0.000677 -0.013433
 ----------------------------------------
 Mulliken charges used for AMS results%charges...
 
----------------------------------------------------------------------
Geometry Convergence after Step   1       (Hartree/Angstrom,Angstrom)
----------------------------------------------------------------------
current energy                               -2.60618509 Hartree
energy change                      -2.60618509     0.00001000    F
constrained gradient max            0.03100840     0.00010000    F
constrained gradient rms            0.01051462     0.00006667    F
gradient max                        0.03100840
gradient rms                        0.01051462
cart. step max                      0.15579368     0.00100000    F
cart. step rms                      0.04090442     0.00066667    F
 
 
--------
Geometry
--------
Formula: H4BrO4Pa
Atoms
  Index Symbol   x (angstrom)   y (angstrom)   z (angstrom)
      1     Pa     0.43363758     0.10246331    -0.01026779
      2      O     1.09815270     1.37085938    -1.57173908
      3      H     1.02249118     2.22569508    -2.00280061
      4      O    -0.86623536     1.12224245     0.81732773
      5      H    -0.87046337    -2.39989156     0.68631089
      6      O    -0.21175050    -1.54893075    -1.26224063
      7      H    -0.13284642    -1.85125186    -2.17068412
      8      O    -0.68384258    -1.80769806     1.43418989
      9      H    -1.53510364    -1.51865097     1.78741605
     10     Br     2.96901917    -1.00730987     0.15392432
 
Total System Charge             0.00000
Bonding info available!
 
 *** GO1_GOStep2 ***



 ======================
 RI Hartree-Fock Scheme
 ======================
  
 Fit Set Quality     : GOOD
 Threshold Quality   : GOOD
 Integration Quality : GOOD
 Response Quality    : DEFAULT
 Is Range Separated  :  F
 
 RIHartreeFock Dependency: number of modified vectors:           4
  
 Hartree-Fock exchange energy:   -591.722930209691     

 Energy gradients wrt nuclear displacements
 ==========================================

     Atom      Cartesian (a.u./angstrom)
                 X         Y         Z
 ----------------------------------------
     1 Pa    0.000874  0.009090  0.025587
     2 O     0.010193  0.003054 -0.011179
     3 H    -0.000434  0.001232  0.002030
     4 O    -0.007356  0.003748  0.000290
     5 H    -0.000663 -0.000193 -0.001882
     6 O     0.003272 -0.016232 -0.008541
     7 H    -0.001500  0.000081  0.000008
     8 O     0.000392 -0.002595  0.003440
     9 H    -0.000700  0.001961 -0.000279
    10 Br   -0.004078 -0.000146 -0.009474
 ----------------------------------------
 Mulliken charges used for AMS results%charges...

 dE(predicted):    -0.25495E-02, dE(actual):    -0.40119E-02, Trust radius:    0.400000, all in a.u.
 
----------------------------------------------------------------------
Geometry Convergence after Step   2       (Hartree/Angstrom,Angstrom)
----------------------------------------------------------------------
current energy                               -2.61019704 Hartree
energy change                      -0.00401195     0.00001000    F
constrained gradient max            0.02562648     0.00010000    F
constrained gradient rms            0.00714852     0.00006667    F
gradient max                        0.02562648
gradient rms                        0.00714852
cart. step max                      0.21232346     0.00100000    F
cart. step rms                      0.05412690     0.00066667    F
 
 
--------
Geometry
--------
Formula: H4BrO4Pa
Atoms
  Index Symbol   x (angstrom)   y (angstrom)   z (angstrom)
      1     Pa     0.45686429     0.08887440    -0.03363548
      2      O     1.07945830     1.34766391    -1.60211214
      3      H     0.99352106     2.19100541    -2.05200056
      4      O    -0.81974156     1.11942074     0.79942130
      5      H    -0.82903895    -2.42240182     0.68490986
      6      O    -0.28288667    -1.48615396    -1.30004938
      7      H    -0.21909349    -1.77460868    -2.21381205
      8      O    -0.64235792    -1.82026818     1.42182377
      9      H    -1.49078209    -1.54824744     1.79064356
     10     Br     2.97711581    -1.00775722     0.36624778
 
Total System Charge             0.00000
Bonding info available!
 
 *** GO1_GOStep3 ***



 ======================
 RI Hartree-Fock Scheme
 ======================
  
 Fit Set Quality     : GOOD
 Threshold Quality   : GOOD
 Integration Quality : GOOD
 Response Quality    : DEFAULT
 Is Range Separated  :  F
 
 RIHartreeFock Dependency: number of modified vectors:           4
  
 Hartree-Fock exchange energy:   -591.740954802505     

 Energy gradients wrt nuclear displacements
 ==========================================

     Atom      Cartesian (a.u./angstrom)
                 X         Y         Z
 ----------------------------------------
     1 Pa    0.000992  0.008319  0.014019
     2 O     0.002760 -0.000508 -0.004109
     3 H    -0.000777  0.000124  0.002676
     4 O     0.001716 -0.003705 -0.007238
     5 H     0.001558  0.001418 -0.000305
     6 O    -0.000549 -0.004678 -0.002544
     7 H    -0.000171  0.000778  0.001114
     8 O    -0.003177 -0.003017  0.002306
     9 H     0.001880  0.001071 -0.000706
    10 Br   -0.004232  0.000198 -0.005212
 ----------------------------------------
 Mulliken charges used for AMS results%charges...

 dE(predicted):    -0.25751E-02, dE(actual):    -0.29250E-02, Trust radius:    0.400000, all in a.u.
 
----------------------------------------------------------------------
Geometry Convergence after Step   3       (Hartree/Angstrom,Angstrom)
----------------------------------------------------------------------
current energy                               -2.61312203 Hartree
energy change                      -0.00292499     0.00001000    F
constrained gradient max            0.01406602     0.00010000    F
constrained gradient rms            0.00399108     0.00006667    F
gradient max                        0.01406602
gradient rms                        0.00399108
cart. step max                      0.14745358     0.00100000    F
cart. step rms                      0.03733792     0.00066667    F
 
 
--------
Geometry
--------
Formula: H4BrO4Pa
Atoms
  Index Symbol   x (angstrom)   y (angstrom)   z (angstrom)
      1     Pa     0.47187546     0.07819759    -0.05390032
      2      O     1.06601794     1.33375694    -1.62683880
      3      H     0.97712270     2.16575276    -2.09711695
      4      O    -0.77476505     1.11610822     0.81594970
      5      H    -0.81948066    -2.43914977     0.67884378
      6      O    -0.32413930    -1.44825450    -1.32701414
      7      H    -0.27488673    -1.72914775    -2.24440653
      8      O    -0.61773093    -1.83051970     1.40564128
      9      H    -1.45971525    -1.56889647     1.79657729
     10     Br     2.97876060    -0.99032017     0.51370136
 
Total System Charge             0.00000
Bonding info available!
 
 *** GO1_GOStep4 ***



 ======================
 RI Hartree-Fock Scheme
 ======================
  
 Fit Set Quality     : GOOD
 Threshold Quality   : GOOD
 Integration Quality : GOOD
 Response Quality    : DEFAULT
 Is Range Separated  :  F
 
 RIHartreeFock Dependency: number of modified vectors:           4
  
 Hartree-Fock exchange energy:   -591.744791755909     

 Energy gradients wrt nuclear displacements
 ==========================================

     Atom      Cartesian (a.u./angstrom)
                 X         Y         Z
 ----------------------------------------
     1 Pa    0.004229  0.003919  0.003071
     2 O    -0.000432 -0.003231  0.000410
     3 H    -0.001307  0.000320  0.002302
     4 O     0.001472 -0.003933 -0.007695
     5 H     0.001459  0.001606 -0.000388
     6 O    -0.001440  0.002425  0.002670
     7 H     0.000604  0.000811  0.000800
     8 O    -0.002004 -0.002239  0.002549
     9 H     0.001143  0.000391 -0.000892
    10 Br   -0.003723 -0.000070 -0.002827
 ----------------------------------------
 Mulliken charges used for AMS results%charges...

 dE(predicted):    -0.68012E-03, dE(actual):    -0.10926E-02, Trust radius:    0.400000, all in a.u.
 
----------------------------------------------------------------------
Geometry Convergence after Step   4       (Hartree/Angstrom,Angstrom)
----------------------------------------------------------------------
current energy                               -2.61421460 Hartree
energy change                      -0.00109257     0.00001000    F
constrained gradient max            0.00771382     0.00010000    F
constrained gradient rms            0.00257092     0.00006667    F
gradient max                        0.00771382
gradient rms                        0.00257092
cart. step max                      0.11264090     0.00100000    F
cart. step rms                      0.03086611     0.00066667    F
 
 
--------
Geometry
--------
Formula: H4BrO4Pa
Atoms
  Index Symbol   x (angstrom)   y (angstrom)   z (angstrom)
      1     Pa     0.47913521     0.06871394    -0.07335104
      2      O     1.05454520     1.32693355    -1.64839781
      3      H     0.97185520     2.14676010    -2.14089373
      4      O    -0.72420648     1.10971232     0.85818309
      5      H    -0.83349314    -2.45418018     0.67178220
      6      O    -0.34896434    -1.42819196    -1.35288187
      7      H    -0.31492238    -1.70447156    -2.27276254
      8      O    -0.60566808    -1.84009703     1.38592274
      9      H    -1.43473128    -1.58326963     1.80749337
     10     Br     2.97950887    -0.95438241     0.62634227
 
Total System Charge             0.00000
Bonding info available!
 
 *** GO1_GOStep5 ***



 ======================
 RI Hartree-Fock Scheme
 ======================
  
 Fit Set Quality     : GOOD
 Threshold Quality   : GOOD
 Integration Quality : GOOD
 Response Quality    : DEFAULT
 Is Range Separated  :  F
 
 RIHartreeFock Dependency: number of modified vectors:           4
  
 Hartree-Fock exchange energy:   -591.742085706878     

 Energy gradients wrt nuclear displacements
 ==========================================

     Atom      Cartesian (a.u./angstrom)
                 X         Y         Z
 ----------------------------------------
     1 Pa    0.006679 -0.000500 -0.005253
     2 O    -0.000945 -0.003947  0.002168
     3 H    -0.001907  0.000457  0.001668
     4 O    -0.001439 -0.001686 -0.004841
     5 H     0.000578  0.001357 -0.000695
     6 O    -0.001657  0.005738  0.005530
     7 H     0.000943  0.000672  0.000298
     8 O     0.000048 -0.001140  0.003263
     9 H    -0.000163 -0.000273 -0.001160
    10 Br   -0.002138 -0.000678 -0.000978
 ----------------------------------------
 Mulliken charges used for AMS results%charges...

 dE(predicted):    -0.40923E-03, dE(actual):    -0.75121E-03, Trust radius:    0.400000, all in a.u.
 
----------------------------------------------------------------------
Geometry Convergence after Step   5       (Hartree/Angstrom,Angstrom)
----------------------------------------------------------------------
current energy                               -2.61496581 Hartree
energy change                      -0.00075121     0.00001000    F
constrained gradient max            0.00662457     0.00010000    F
constrained gradient rms            0.00269488     0.00006667    F
gradient max                        0.00662457
gradient rms                        0.00269488
cart. step max                      0.12104876     0.00100000    F
cart. step rms                      0.04032935     0.00066667    F
 
 
--------
Geometry
--------
Formula: H4BrO4Pa
Atoms
  Index Symbol   x (angstrom)   y (angstrom)   z (angstrom)
      1     Pa     0.47901196     0.05647557    -0.09891882
      2      O     1.03824103     1.32509102    -1.67326513
      3      H     0.97856623     2.12716660    -2.19737011
      4      O    -0.64382352     1.09481544     0.93758595
      5      H    -0.87883267    -2.47320898     0.66354406
      6      O    -0.36743306    -1.41893456    -1.39103081
      7      H    -0.35472620    -1.69091189    -2.31313148
      8      O    -0.60324673    -1.85332655     1.35505076
      9      H    -1.40267411    -1.59698670     1.83158120
     10     Br     2.97797584    -0.88265282     0.74739102
 
Total System Charge             0.00000
Bonding info available!
 
 *** GO1_GOStep6 ***



 ======================
 RI Hartree-Fock Scheme
 ======================
  
 Fit Set Quality     : GOOD
 Threshold Quality   : GOOD
 Integration Quality : GOOD
 Response Quality    : DEFAULT
 Is Range Separated  :  F
 
 RIHartreeFock Dependency: number of modified vectors:           4
  
 Hartree-Fock exchange energy:   -591.735152517542     

 Energy gradients wrt nuclear displacements
 ==========================================

     Atom      Cartesian (a.u./angstrom)
                 X         Y         Z
 ----------------------------------------
     1 Pa    0.006481 -0.004154 -0.012716
     2 O     0.000469 -0.003007  0.002019
     3 H    -0.002631  0.000499  0.000660
     4 O    -0.004274  0.001327  0.000855
     5 H    -0.000727  0.000924 -0.000836
     6 O    -0.001908  0.006341  0.006307
     7 H     0.000933  0.000386 -0.000318
     8 O     0.002479 -0.000013  0.003958
     9 H    -0.001817 -0.000866 -0.001489
    10 Br    0.000995 -0.001438  0.001562
 ----------------------------------------
 Mulliken charges used for AMS results%charges...

 dE(predicted):    -0.50121E-03, dE(actual):    -0.84725E-03, Trust radius:    0.400000, all in a.u.
 
----------------------------------------------------------------------
Geometry Convergence after Step   6       (Hartree/Angstrom,Angstrom)
----------------------------------------------------------------------
current energy                               -2.61581305 Hartree
energy change                      -0.00084725     0.00001000    F
constrained gradient max            0.01267329     0.00010000    F
constrained gradient rms            0.00357098     0.00006667    F
gradient max                        0.01267329
gradient rms                        0.00357098
cart. step max                      0.05675047     0.00100000    F
cart. step rms                      0.02392501     0.00066667    F
 
 
--------
Geometry
--------
Formula: H4BrO4Pa
Atoms
  Index Symbol   x (angstrom)   y (angstrom)   z (angstrom)
      1     Pa     0.46793015     0.05071784    -0.11021291
      2      O     1.02685790     1.33154590    -1.67971551
      3      H     0.99574377     2.12288663    -2.22205572
      4      O    -0.59447814     1.08308232     0.99433642
      5      H    -0.93058630    -2.48145383     0.66185094
      6      O    -0.36152815    -1.43029597    -1.41592188
      7      H    -0.35917455    -1.70147648    -2.33837513
      8      O    -0.61603651    -1.86091134     1.33552719
      9      H    -1.38459214    -1.59947195     1.85794907
     10     Br     2.97892275    -0.82709598     0.77805420
 
Total System Charge             0.00000
Bonding info available!
 
 *** GO1_GOStep7 ***



 ======================
 RI Hartree-Fock Scheme
 ======================
  
 Fit Set Quality     : GOOD
 Threshold Quality   : GOOD
 Integration Quality : GOOD
 Response Quality    : DEFAULT
 Is Range Separated  :  F
 
 RIHartreeFock Dependency: number of modified vectors:           4
  
 Hartree-Fock exchange energy:   -591.729937292993     

 Energy gradients wrt nuclear displacements
 ==========================================

     Atom      Cartesian (a.u./angstrom)
                 X         Y         Z
 ----------------------------------------
     1 Pa    0.002835 -0.003407 -0.011578
     2 O     0.002642 -0.000860  0.000165
     3 H    -0.002820  0.000447  0.000032
     4 O    -0.003737  0.001877  0.003593
     5 H    -0.001226  0.000601 -0.000893
     6 O    -0.002345  0.003414  0.003747
     7 H     0.000558  0.000192 -0.000444
     8 O     0.003036 -0.000133  0.004068
     9 H    -0.002234 -0.000553 -0.001302
    10 Br    0.003290 -0.001577  0.002614
 ----------------------------------------
 Mulliken charges used for AMS results%charges...

 dE(predicted):    -0.29651E-03, dE(actual):    -0.47234E-03, Trust radius:    0.400000, all in a.u.
 
----------------------------------------------------------------------
Geometry Convergence after Step   7       (Hartree/Angstrom,Angstrom)
----------------------------------------------------------------------
current energy                               -2.61628540 Hartree
energy change                      -0.00047234     0.00001000    F
constrained gradient max            0.01154192     0.00010000    F
constrained gradient rms            0.00309199     0.00006667    F
gradient max                        0.01154192
gradient rms                        0.00309199
cart. step max                      0.06056339     0.00100000    F
cart. step rms                      0.02263166     0.00066667    F
 
 
--------
Geometry
--------
Formula: H4BrO4Pa
Atoms
  Index Symbol   x (angstrom)   y (angstrom)   z (angstrom)
      1     Pa     0.44836586     0.05011893    -0.11033064
      2      O     1.01556551     1.34338984    -1.67212896
      3      H     1.02058904     2.12672735    -2.22623500
      4      O    -0.56847792     1.07848878     1.03615783
      5      H    -0.99114969    -2.48313399     0.66415416
      6      O    -0.33543004    -1.45412496    -1.43141330
      7      H    -0.33532887    -1.72726649    -2.35307592
      8      O    -0.64101235    -1.86506038     1.32166437
      9      H    -1.37385424    -1.59676333     1.88926034
     10     Br     2.98379148    -0.78484859     0.74338378
 
Total System Charge             0.00000
Bonding info available!
 
 *** GO1_GOStep8 ***



 ======================
 RI Hartree-Fock Scheme
 ======================
  
 Fit Set Quality     : GOOD
 Threshold Quality   : GOOD
 Integration Quality : GOOD
 Response Quality    : DEFAULT
 Is Range Separated  :  F
 
 RIHartreeFock Dependency: number of modified vectors:           4
  
 Hartree-Fock exchange energy:   -591.727348764524     

 Energy gradients wrt nuclear displacements
 ==========================================

     Atom      Cartesian (a.u./angstrom)
                 X         Y         Z
 ----------------------------------------
     1 Pa   -0.002184  0.000444 -0.003082
     2 O     0.005018  0.001774 -0.002263
     3 H    -0.002688  0.000239 -0.000333
     4 O    -0.001240  0.000518  0.002715
     5 H    -0.001075  0.000473 -0.000984
     6 O    -0.002596 -0.001361 -0.000568
     7 H    -0.000072  0.000053 -0.000255
     8 O     0.001773 -0.001407  0.003543
     9 H    -0.001424  0.000521 -0.000843
    10 Br    0.004488 -0.001253  0.002070
 ----------------------------------------
 Mulliken charges used for AMS results%charges...
 Rebuilding optimization coordinates

 dE(predicted):    -0.28046E-03, dE(actual):    -0.30355E-03, Trust radius:    0.800000, all in a.u.
 
----------------------------------------------------------------------
Geometry Convergence after Step   8       (Hartree/Angstrom,Angstrom)
----------------------------------------------------------------------
current energy                               -2.61658895 Hartree
energy change                      -0.00030355     0.00001000    F
constrained gradient max            0.00493519     0.00010000    F
constrained gradient rms            0.00201664     0.00006667    F
gradient max                        0.00493519
gradient rms                        0.00201664
cart. step max                      0.03871435     0.00100000    F
cart. step rms                      0.01474532     0.00066667    F
 
 
--------
Geometry
--------
Formula: H4BrO4Pa
Atoms
  Index Symbol   x (angstrom)   y (angstrom)   z (angstrom)
      1     Pa     0.43391443     0.05242017    -0.10691063
      2      O     1.00487505     1.35043602    -1.66333522
      3      H     1.03812124     2.12763894    -2.22440400
      4      O    -0.56179198     1.08318328     1.05240674
      5      H    -1.02598481    -2.48465306     0.66920734
      6      O    -0.31293902    -1.46634761    -1.43782230
      7      H    -0.30965646    -1.74110927    -2.35874859
      8      O    -0.65807316    -1.86544641     1.31481072
      9      H    -1.36701663    -1.59806974     1.91156319
     10     Br     2.98161012    -0.77052516     0.70466943
 
Total System Charge             0.00000
Bonding info available!
 
 *** GO1_GOStep9 ***



 ======================
 RI Hartree-Fock Scheme
 ======================
  
 Fit Set Quality     : GOOD
 Threshold Quality   : GOOD
 Integration Quality : GOOD
 Response Quality    : DEFAULT
 Is Range Separated  :  F
 
 RIHartreeFock Dependency: number of modified vectors:           4
  
 Hartree-Fock exchange energy:   -591.729265174195     

 Energy gradients wrt nuclear displacements
 ==========================================

     Atom      Cartesian (a.u./angstrom)
                 X         Y         Z
 ----------------------------------------
     1 Pa   -0.004512  0.003501  0.002706
     2 O     0.005624  0.002378 -0.002563
     3 H    -0.002482 -0.000086 -0.000320
     4 O     0.000818 -0.000931  0.000481
     5 H    -0.000585  0.000769 -0.000787
     6 O    -0.002128 -0.003534 -0.002712
     7 H    -0.000428  0.000057  0.000050
     8 O     0.000177 -0.002597  0.002807
     9 H    -0.000327  0.001261 -0.000651
    10 Br    0.003844 -0.000820  0.000991
 ----------------------------------------
 Mulliken charges used for AMS results%charges...

 dE(predicted):    -0.12187E-03, dE(actual):    -0.92220E-04, Trust radius:    0.800000, all in a.u.
 
----------------------------------------------------------------------
Geometry Convergence after Step   9       (Hartree/Angstrom,Angstrom)
----------------------------------------------------------------------
current energy                               -2.61668117 Hartree
energy change                      -0.00009222     0.00001000    F
constrained gradient max            0.00553306     0.00010000    F
constrained gradient rms            0.00224100     0.00006667    F
gradient max                        0.00553306
gradient rms                        0.00224100
cart. step max                      0.00776774     0.00100000    F
cart. step rms                      0.00388476     0.00066667    F
 
 
--------
Geometry
--------
Formula: H4BrO4Pa
Atoms
  Index Symbol   x (angstrom)   y (angstrom)   z (angstrom)
      1     Pa     0.43017155     0.05365904    -0.10713665
      2      O     0.99863480     1.35124885    -1.66265516
      3      H     1.04378142     2.12454565    -2.22810682
      4      O    -0.55816987     1.08734233     1.05572568
      5      H    -1.03174859    -2.48829512     0.67274763
      6      O    -0.30843722    -1.46452657    -1.44113776
      7      H    -0.30373096    -1.73923114    -2.36204516
      8      O    -0.66073267    -1.86478198     1.31198439
      9      H    -1.36247537    -1.60277119     1.91933093
     10     Br     2.97576569    -0.76966273     0.70272958
 
Total System Charge             0.00000
Bonding info available!
 
 *** GO1_GOStep10 ***



 ======================
 RI Hartree-Fock Scheme
 ======================
  
 Fit Set Quality     : GOOD
 Threshold Quality   : GOOD
 Integration Quality : GOOD
 Response Quality    : DEFAULT
 Is Range Separated  :  F
 
 RIHartreeFock Dependency: number of modified vectors:           5
  
 Hartree-Fock exchange energy:   -591.730010202995     

 Energy gradients wrt nuclear displacements
 ==========================================

     Atom      Cartesian (a.u./angstrom)
                 X         Y         Z
 ----------------------------------------
     1 Pa   -0.004049  0.003574  0.002350
     2 O     0.005100  0.001767 -0.001758
     3 H    -0.002375 -0.000151 -0.000338
     4 O     0.001072 -0.000974  0.000140
     5 H    -0.000484  0.000879 -0.000631
     6 O    -0.001779 -0.003107 -0.002448
     7 H    -0.000443  0.000071  0.000093
     8 O    -0.000026 -0.002717  0.002485
     9 H    -0.000137  0.001296 -0.000654
    10 Br    0.003119 -0.000637  0.000761
 ----------------------------------------
 Mulliken charges used for AMS results%charges...

 dE(predicted):    -0.43005E-04, dE(actual):    -0.48557E-04, Trust radius:    0.800000, all in a.u.
 
----------------------------------------------------------------------
Geometry Convergence after Step  10       (Hartree/Angstrom,Angstrom)
----------------------------------------------------------------------
current energy                               -2.61672973 Hartree
energy change                      -0.00004856     0.00001000    F
constrained gradient max            0.00500533     0.00010000    F
constrained gradient rms            0.00200942     0.00006667    F
gradient max                        0.00500533
gradient rms                        0.00200942
cart. step max                      0.05182095     0.00100000    F
cart. step rms                      0.02813906     0.00066667    F
 
 
--------
Geometry
--------
Formula: H4BrO4Pa
Atoms
  Index Symbol   x (angstrom)   y (angstrom)   z (angstrom)
      1     Pa     0.40277013     0.06540404    -0.10803603
      2      O     0.95499675     1.36060406    -1.65738843
      3      H     1.08411753     2.09471102    -2.26007225
      4      O    -0.53776199     1.11962852     1.07739333
      5      H    -1.06001018    -2.51684386     0.70226752
      6      O    -0.27841747    -1.44484086    -1.46373116
      7      H    -0.26116071    -1.71924790    -2.38454026
      8      O    -0.67903342    -1.85567304     1.29401960
      9      H    -1.33125542    -1.64282164     1.97115188
     10     Br     2.92881357    -0.77339319     0.69037246
 
Total System Charge             0.00000
Bonding info available!
 
 *** GO1_GOStep11 ***



 ======================
 RI Hartree-Fock Scheme
 ======================
  
 Fit Set Quality     : GOOD
 Threshold Quality   : GOOD
 Integration Quality : GOOD
 Response Quality    : DEFAULT
 Is Range Separated  :  F
 
 RIHartreeFock Dependency: number of modified vectors:           4
  
 Hartree-Fock exchange energy:   -591.742572397916     

 Energy gradients wrt nuclear displacements
 ==========================================

     Atom      Cartesian (a.u./angstrom)
                 X         Y         Z
 ----------------------------------------
     1 Pa    0.001281  0.001778 -0.002411
     2 O     0.001194 -0.002495  0.003924
     3 H    -0.001581 -0.000494 -0.000581
     4 O     0.001250  0.000065 -0.000590
     5 H    -0.000962  0.001229  0.000309
     6 O     0.000645  0.000639  0.000233
     7 H    -0.000485  0.000115  0.000096
     8 O     0.001250 -0.002307  0.000560
     9 H    -0.000246  0.000854 -0.000694
    10 Br   -0.002345  0.000616 -0.000845
 ----------------------------------------
 Mulliken charges used for AMS results%charges...

 dE(predicted):    -0.29817E-03, dE(actual):    -0.16872E-03, Trust radius:    0.800000, all in a.u.
 
----------------------------------------------------------------------
Geometry Convergence after Step  11       (Hartree/Angstrom,Angstrom)
----------------------------------------------------------------------
current energy                               -2.61689845 Hartree
energy change                      -0.00016872     0.00001000    F
constrained gradient max            0.00397978     0.00010000    F
constrained gradient rms            0.00137675     0.00006667    F
gradient max                        0.00397978
gradient rms                        0.00137675
cart. step max                      0.01177510     0.00100000    F
cart. step rms                      0.00562859     0.00066667    F
 
 
--------
Geometry
--------
Formula: H4BrO4Pa
Atoms
  Index Symbol   x (angstrom)   y (angstrom)   z (angstrom)
      1     Pa     0.39587633     0.06892976    -0.10829668
      2      O     0.94915175     1.36592790    -1.65666528
      3      H     1.09589263     2.09025347    -2.26711441
      4      O    -0.53758547     1.12486743     1.08194580
      5      H    -1.05899800    -2.52513737     0.71005292
      6      O    -0.27464317    -1.44141776    -1.46737089
      7      H    -0.25433694    -1.71683186    -2.38784719
      8      O    -0.68404355    -1.85163065     1.29171812
      9      H    -1.32816498    -1.65159481     1.98042992
     10     Br     2.91991018    -0.77583897     0.68458436
 
Total System Charge             0.00000
Bonding info available!
 
 *** GO1_GOStep12 ***



 ======================
 RI Hartree-Fock Scheme
 ======================
  
 Fit Set Quality     : GOOD
 Threshold Quality   : GOOD
 Integration Quality : GOOD
 Response Quality    : DEFAULT
 Is Range Separated  :  F
 
 RIHartreeFock Dependency: number of modified vectors:           4
  
 Hartree-Fock exchange energy:   -591.742590661348     

 Energy gradients wrt nuclear displacements
 ==========================================

     Atom      Cartesian (a.u./angstrom)
                 X         Y         Z
 ----------------------------------------
     1 Pa    0.001934  0.000515 -0.002211
     2 O     0.001057 -0.002185  0.003698
     3 H    -0.001363 -0.000395 -0.000790
     4 O     0.000805  0.000624 -0.000146
     5 H    -0.001138  0.000902  0.000105
     6 O     0.000845  0.000817  0.000379
     7 H    -0.000516  0.000090  0.000029
     8 O     0.001587 -0.001849  0.000484
     9 H    -0.000404  0.000778 -0.000501
    10 Br   -0.002806  0.000703 -0.001046
 ----------------------------------------
 Mulliken charges used for AMS results%charges...
 
----------------------------------------------------------------------
Geometry Convergence after Step  12       (Hartree/Angstrom,Angstrom)
----------------------------------------------------------------------
current energy                               -2.61689788 Hartree
energy change                       0.00000057     0.00001000    T
constrained gradient max            0.00374747     0.00010000    F
constrained gradient rms            0.00131913     0.00006667    F
gradient max                        0.00374747
gradient rms                        0.00131913
cart. step max                      0.03684554     0.00100000    F
cart. step rms                      0.01665448     0.00066667    F
 
 
--------
Geometry
--------
Formula: H4BrO4Pa
Atoms
  Index Symbol   x (angstrom)   y (angstrom)   z (angstrom)
      1     Pa     0.37573904     0.08043896    -0.11144297
      2      O     0.93825276     1.38538663    -1.65661603
      3      H     1.13273817     2.07847639    -2.28934744
      4      O    -0.54242287     1.13571465     1.09259310
      5      H    -1.03773810    -2.55301649     0.73656088
      6      O    -0.27286044    -1.42926738    -1.47779512
      7      H    -0.24317760    -1.70884731    -2.39685078
      8      O    -0.69770910    -1.83609716     1.28684634
      9      H    -1.32338298    -1.67756517     2.00265804
     10     Br     2.89361990    -0.78769597     0.67483065
 
Total System Charge             0.00000
Bonding info available!
 
 *** GO1_GOStep13 ***



 ======================
 RI Hartree-Fock Scheme
 ======================
  
 Fit Set Quality     : GOOD
 Threshold Quality   : GOOD
 Integration Quality : GOOD
 Response Quality    : DEFAULT
 Is Range Separated  :  F
 
 RIHartreeFock Dependency: number of modified vectors:           4
  
 Hartree-Fock exchange energy:   -591.740942700328     

 Energy gradients wrt nuclear displacements
 ==========================================

     Atom      Cartesian (a.u./angstrom)
                 X         Y         Z
 ----------------------------------------
     1 Pa    0.002298 -0.003375 -0.000777
     2 O     0.001393  0.000438  0.001212
     3 H    -0.000861 -0.000429 -0.001148
     4 O    -0.000389  0.001793  0.001213
     5 H    -0.001468  0.000110 -0.000117
     6 O     0.000904  0.000945  0.000790
     7 H    -0.000522  0.000015 -0.000323
     8 O     0.002460 -0.000267  0.000466
     9 H    -0.000948  0.000203 -0.000201
    10 Br   -0.002868  0.000567 -0.001115
 ----------------------------------------
 Mulliken charges used for AMS results%charges...

 dE(predicted):    -0.86633E-04, dE(actual):     0.76516E-04, Trust radius:    0.064453, all in a.u.
 
----------------------------------------------------------------------
Geometry Convergence after Step  13       (Hartree/Angstrom,Angstrom)
----------------------------------------------------------------------
current energy                               -2.61682136 Hartree
energy change                       0.00007652     0.00001000    F
constrained gradient max            0.00334442     0.00010000    F
constrained gradient rms            0.00128354     0.00006667    F
gradient max                        0.00334442
gradient rms                        0.00128354
cart. step max                      0.01394102     0.00100000    F
cart. step rms                      0.00469034     0.00066667    F
 
 
--------
Geometry
--------
Formula: H4BrO4Pa
Atoms
  Index Symbol   x (angstrom)   y (angstrom)   z (angstrom)
      1     Pa     0.37199989     0.08307655    -0.11412327
      2      O     0.94040517     1.39093945    -1.65772149
      3      H     1.14288075     2.08033711    -2.29187192
      4      O    -0.54850684     1.13394232     1.09103588
      5      H    -1.02379707    -2.56020581     0.74354696
      6      O    -0.27858626    -1.42724733    -1.47944655
      7      H    -0.24694256    -1.70885864    -2.39769020
      8      O    -0.69994860    -1.83079198     1.28689952
      9      H    -1.32450721    -1.68148137     2.00543479
     10     Br     2.89006153    -0.79218314     0.67537294
 
Total System Charge             0.00000
Bonding info available!
 
 *** GO1_GOStep14 ***



 ======================
 RI Hartree-Fock Scheme
 ======================
  
 Fit Set Quality     : GOOD
 Threshold Quality   : GOOD
 Integration Quality : GOOD
 Response Quality    : DEFAULT
 Is Range Separated  :  F
 
 RIHartreeFock Dependency: number of modified vectors:           4
  
 Hartree-Fock exchange energy:   -591.739658910601     

 Energy gradients wrt nuclear displacements
 ==========================================

     Atom      Cartesian (a.u./angstrom)
                 X         Y         Z
 ----------------------------------------
     1 Pa    0.001198 -0.003273  0.000248
     2 O     0.001818  0.001599  0.000034
     3 H    -0.000799 -0.000476 -0.001126
     4 O    -0.000265  0.001272  0.001021
     5 H    -0.001182 -0.000107 -0.000400
     6 O     0.000507  0.000516  0.000760
     7 H    -0.000455  0.000019 -0.000497
     8 O     0.002075 -0.000088  0.000723
     9 H    -0.000968  0.000289  0.000034
    10 Br   -0.001928  0.000248 -0.000797
 ----------------------------------------
 Mulliken charges used for AMS results%charges...

 dE(predicted):    -0.27266E-04, dE(actual):     0.15148E-03, Trust radius:    0.020000, all in a.u.
 
----------------------------------------------------------------------
Geometry Convergence after Step  14       (Hartree/Angstrom,Angstrom)
----------------------------------------------------------------------
current energy                               -2.61666989 Hartree
energy change                       0.00015148     0.00001000    F
constrained gradient max            0.00324342     0.00010000    F
constrained gradient rms            0.00109242     0.00006667    F
gradient max                        0.00324342
gradient rms                        0.00109242
cart. step max                      0.00501511     0.00100000    F
cart. step rms                      0.00244495     0.00066667    F
 
 
--------
Geometry
--------
Formula: H4BrO4Pa
Atoms
  Index Symbol   x (angstrom)   y (angstrom)   z (angstrom)
      1     Pa     0.37154674     0.08350102    -0.11663212
      2      O     0.94345499     1.39217149    -1.65831181
      3      H     1.14645463     2.08370745    -2.28979692
      4      O    -0.55243570     1.13038707     1.08780720
      5      H    -1.01878196    -2.56131148     0.74538009
      6      O    -0.28312561    -1.42787677    -1.48009116
      7      H    -0.25186594    -1.71055928    -2.39764421
      8      O    -0.70034942    -1.82850822     1.28652703
      9      H    -1.32342350    -1.68162804     2.00627753
     10     Br     2.89158455    -0.79235608     0.67792101
 
Total System Charge             0.00000
Bonding info available!
 
 *** GO1_GOStep15 ***



 ======================
 RI Hartree-Fock Scheme
 ======================
  
 Fit Set Quality     : GOOD
 Threshold Quality   : GOOD
 Integration Quality : GOOD
 Response Quality    : DEFAULT
 Is Range Separated  :  F
 
 RIHartreeFock Dependency: number of modified vectors:           4
  
 Hartree-Fock exchange energy:   -591.740425427244     

 Energy gradients wrt nuclear displacements
 ==========================================

     Atom      Cartesian (a.u./angstrom)
                 X         Y         Z
 ----------------------------------------
     1 Pa    0.000008 -0.001744  0.000664
     2 O     0.001957  0.001777 -0.000113
     3 H    -0.000863 -0.000638 -0.000949
     4 O     0.000296  0.000315  0.000299
     5 H    -0.000623  0.000593 -0.000038
     6 O     0.000289 -0.000059 -0.000212
     7 H    -0.000495  0.000267  0.000389
     8 O     0.000906 -0.000799  0.000702
     9 H    -0.000463  0.000323 -0.000270
    10 Br   -0.001011 -0.000034 -0.000471
 ----------------------------------------
 Mulliken charges used for AMS results%charges...

 dE(predicted):    -0.15626E-04, dE(actual):    -0.79031E-04, Trust radius:    0.040000, all in a.u.
 
----------------------------------------------------------------------
Geometry Convergence after Step  15       (Hartree/Angstrom,Angstrom)
----------------------------------------------------------------------
current energy                               -2.61674892 Hartree
energy change                      -0.00007903     0.00001000    F
constrained gradient max            0.00186442     0.00010000    F
constrained gradient rms            0.00075735     0.00006667    F
gradient max                        0.00186442
gradient rms                        0.00075735
cart. step max                      0.00847102     0.00100000    F
cart. step rms                      0.00377797     0.00066667    F
 
 
--------
Geometry
--------
Formula: H4BrO4Pa
Atoms
  Index Symbol   x (angstrom)   y (angstrom)   z (angstrom)
      1     Pa     0.36966818     0.08458850    -0.12012624
      2      O     0.94693091     1.39377847    -1.65819220
      3      H     1.15274280     2.08707624    -2.28676080
      4      O    -0.55994133     1.12807047     1.08160845
      5      H    -1.01031094    -2.56506761     0.75114844
      6      O    -0.28876273    -1.42693707    -1.48240624
      7      H    -0.25613788    -1.71102200    -2.39968820
      8      O    -0.70146768    -1.82405235     1.28644997
      9      H    -1.32096918    -1.68345858     2.01008039
     10     Br     2.89130665    -0.79544893     0.67932311
 
Total System Charge             0.00000
Bonding info available!
 
 *** GO1_GOStep16 ***



 ======================
 RI Hartree-Fock Scheme
 ======================
  
 Fit Set Quality     : GOOD
 Threshold Quality   : GOOD
 Integration Quality : GOOD
 Response Quality    : DEFAULT
 Is Range Separated  :  F
 
 RIHartreeFock Dependency: number of modified vectors:           4
  
 Hartree-Fock exchange energy:   -591.740840903899     

 Energy gradients wrt nuclear displacements
 ==========================================

     Atom      Cartesian (a.u./angstrom)
                 X         Y         Z
 ----------------------------------------
     1 Pa   -0.001048 -0.000104  0.000374
     2 O     0.001841  0.001499  0.000296
     3 H    -0.000869 -0.000706 -0.000825
     4 O     0.000735 -0.000603 -0.000370
     5 H    -0.000308  0.000725 -0.000096
     6 O     0.000035 -0.000231 -0.000109
     7 H    -0.000454  0.000225  0.000263
     8 O     0.000012 -0.000671  0.001205
     9 H     0.000053  0.000248 -0.000607
    10 Br    0.000004 -0.000384 -0.000129
 ----------------------------------------
 Mulliken charges used for AMS results%charges...

 dE(predicted):    -0.16997E-04, dE(actual):    -0.12734E-03, Trust radius:    0.080000, all in a.u.
 
----------------------------------------------------------------------
Geometry Convergence after Step  16       (Hartree/Angstrom,Angstrom)
----------------------------------------------------------------------
current energy                               -2.61687626 Hartree
energy change                      -0.00012734     0.00001000    F
constrained gradient max            0.00171640     0.00010000    F
constrained gradient rms            0.00065699     0.00006667    F
gradient max                        0.00171640
gradient rms                        0.00065699
cart. step max                      0.01052125     0.00100000    F
cart. step rms                      0.00516202     0.00066667    F
 
 
--------
Geometry
--------
Formula: H4BrO4Pa
Atoms
  Index Symbol   x (angstrom)   y (angstrom)   z (angstrom)
      1     Pa     0.36439780     0.08734116    -0.12300206
      2      O     0.94747741     1.39724138    -1.65712479
      3      H     1.16280616     2.08581228    -2.28767790
      4      O    -0.56629233     1.13062346     1.07790896
      5      H    -1.00011882    -2.57333471     0.76166969
      6      O    -0.29239934    -1.42286740    -1.48696124
      7      H    -0.25572879    -1.70877407    -2.40367377
      8      O    -0.70548638    -1.81809921     1.28482686
      9      H    -1.31722158    -1.68998228     2.01742473
     10     Br     2.88562465    -0.80043347     0.67804618
 
Total System Charge             0.00000
Bonding info available!
 
 *** GO1_GOStep17 ***



 ======================
 RI Hartree-Fock Scheme
 ======================
  
 Fit Set Quality     : GOOD
 Threshold Quality   : GOOD
 Integration Quality : GOOD
 Response Quality    : DEFAULT
 Is Range Separated  :  F
 
 RIHartreeFock Dependency: number of modified vectors:           4
  
 Hartree-Fock exchange energy:   -591.740942484336     

 Energy gradients wrt nuclear displacements
 ==========================================

     Atom      Cartesian (a.u./angstrom)
                 X         Y         Z
 ----------------------------------------
     1 Pa   -0.001247  0.000405 -0.000285
     2 O     0.001582  0.001205  0.000770
     3 H    -0.000794 -0.000725 -0.000827
     4 O     0.000655 -0.000729 -0.000408
     5 H    -0.000368  0.000687  0.000027
     6 O    -0.000114 -0.000220  0.000091
     7 H    -0.000400  0.000177  0.000124
     8 O     0.000312 -0.000184  0.000980
     9 H    -0.000169 -0.000008 -0.000509
    10 Br    0.000542 -0.000608  0.000038
 ----------------------------------------
 Mulliken charges used for AMS results%charges...

 dE(predicted):    -0.15829E-04, dE(actual):    -0.54011E-04, Trust radius:    0.160000, all in a.u.
 
----------------------------------------------------------------------
Geometry Convergence after Step  17       (Hartree/Angstrom,Angstrom)
----------------------------------------------------------------------
current energy                               -2.61693027 Hartree
energy change                      -0.00005401     0.00001000    F
constrained gradient max            0.00145595     0.00010000    F
constrained gradient rms            0.00062523     0.00006667    F
gradient max                        0.00145595
gradient rms                        0.00062523
cart. step max                      0.01980177     0.00100000    F
cart. step rms                      0.00940807     0.00066667    F
 
 
--------
Geometry
--------
Formula: H4BrO4Pa
Atoms
  Index Symbol   x (angstrom)   y (angstrom)   z (angstrom)
      1     Pa     0.35317310     0.09201998    -0.12679996
      2      O     0.94672942     1.40317635    -1.65414818
      3      H     1.18012928     2.08042805    -2.29050182
      4      O    -0.57429864     1.13785041     1.07469990
      5      H    -0.98550942    -2.58865989     0.78147146
      6      O    -0.29587907    -1.41513431    -1.49673372
      7      H    -0.25059000    -1.70414605    -2.41226094
      8      O    -0.71551374    -1.80852184     1.28077122
      9      H    -1.30876690    -1.70191180     2.03195800
     10     Br     2.87358475    -0.80757376     0.67298069
 
Total System Charge             0.00000
Bonding info available!
 
 *** GO1_GOStep18 ***



 ======================
 RI Hartree-Fock Scheme
 ======================
  
 Fit Set Quality     : GOOD
 Threshold Quality   : GOOD
 Integration Quality : GOOD
 Response Quality    : DEFAULT
 Is Range Separated  :  F
 
 RIHartreeFock Dependency: number of modified vectors:           4
  
 Hartree-Fock exchange energy:   -591.740920621181     

 Energy gradients wrt nuclear displacements
 ==========================================

     Atom      Cartesian (a.u./angstrom)
                 X         Y         Z
 ----------------------------------------
     1 Pa   -0.001225  0.000714 -0.001007
     2 O     0.001202  0.000723  0.001521
     3 H    -0.000651 -0.000712 -0.000928
     4 O     0.000327 -0.000450 -0.000188
     5 H    -0.000748  0.000362  0.000246
     6 O    -0.000313 -0.000284  0.000236
     7 H    -0.000318  0.000082 -0.000167
     8 O     0.001348  0.000906  0.000513
     9 H    -0.000707 -0.000518 -0.000351
    10 Br    0.001085 -0.000823  0.000124
 ----------------------------------------
 Mulliken charges used for AMS results%charges...

 dE(predicted):    -0.18896E-04, dE(actual):     0.22446E-04, Trust radius:    0.040000, all in a.u.
 
----------------------------------------------------------------------
Geometry Convergence after Step  18       (Hartree/Angstrom,Angstrom)
----------------------------------------------------------------------
current energy                               -2.61690782 Hartree
energy change                       0.00002245     0.00001000    F
constrained gradient max            0.00157127     0.00010000    F
constrained gradient rms            0.00072386     0.00006667    F
gradient max                        0.00157127
gradient rms                        0.00072386
cart. step max                      0.00481551     0.00100000    F
cart. step rms                      0.00230067     0.00066667    F
 
 
--------
Geometry
--------
Formula: H4BrO4Pa
Atoms
  Index Symbol   x (angstrom)   y (angstrom)   z (angstrom)
      1     Pa     0.35074422     0.09210874    -0.12776095
      2      O     0.94736069     1.40258875    -1.65359163
      3      H     1.18304755     2.08056033    -2.28839493
      4      O    -0.57594250     1.14044817     1.07249862
      5      H    -0.98340700    -2.59300509     0.78628697
      6      O    -0.29699589    -1.41359811    -1.49988287
      7      H    -0.24906119    -1.70339662    -2.41504339
      8      O    -0.71880241    -1.80707171     1.27950528
      9      H    -1.30540122    -1.70291702     2.03634096
     10     Br     2.87151653    -0.80819030     0.67147859
 
Total System Charge             0.00000
Bonding info available!
 
 *** GO1_GOStep19 ***



 ======================
 RI Hartree-Fock Scheme
 ======================
  
 Fit Set Quality     : GOOD
 Threshold Quality   : GOOD
 Integration Quality : GOOD
 Response Quality    : DEFAULT
 Is Range Separated  :  F
 
 RIHartreeFock Dependency: number of modified vectors:           4
  
 Hartree-Fock exchange energy:   -591.740778956027     

 Energy gradients wrt nuclear displacements
 ==========================================

     Atom      Cartesian (a.u./angstrom)
                 X         Y         Z
 ----------------------------------------
     1 Pa   -0.000992  0.000828 -0.001209
     2 O     0.001064  0.000383  0.001854
     3 H    -0.000620 -0.000652 -0.000965
     4 O     0.000164 -0.000194 -0.000066
     5 H    -0.000635  0.000102 -0.000073
     6 O    -0.000396 -0.000316  0.000109
     7 H    -0.000294  0.000049 -0.000192
     8 O     0.001282  0.000865  0.000506
     9 H    -0.000734 -0.000250 -0.000062
    10 Br    0.001161 -0.000815  0.000098
 ----------------------------------------
 Mulliken charges used for AMS results%charges...

 dE(predicted):    -0.75644E-05, dE(actual):    -0.18560E-05, Trust radius:    0.040000, all in a.u.
 
----------------------------------------------------------------------
Geometry Convergence after Step  19       (Hartree/Angstrom,Angstrom)
----------------------------------------------------------------------
current energy                               -2.61690968 Hartree
energy change                      -0.00000186     0.00001000    T
constrained gradient max            0.00190341     0.00010000    F
constrained gradient rms            0.00071277     0.00006667    F
gradient max                        0.00190341
gradient rms                        0.00071277
cart. step max                      0.00548440     0.00100000    F
cart. step rms                      0.00302180     0.00066667    F
 
 
--------
Geometry
--------
Formula: H4BrO4Pa
Atoms
  Index Symbol   x (angstrom)   y (angstrom)   z (angstrom)
      1     Pa     0.34983802     0.08991966    -0.12860819
      2      O     0.94831009     1.39796428    -1.65500604
      3      H     1.18148961     2.08327886    -2.28291052
      4      O    -0.57286920     1.14460523     1.07006850
      5      H    -0.98599031    -2.59842062     0.79047454
      6      O    -0.29732373    -1.41266312    -1.50399654
      7      H    -0.24694634    -1.70272878    -2.41884115
      8      O    -0.72306117    -1.80813514     1.27740706
      9      H    -1.30051890    -1.70062588     2.04063315
     10     Br     2.87013070    -0.80566734     0.67221586
 
Total System Charge             0.00000
Bonding info available!
 
 *** GO1_GOStep20 ***



 ======================
 RI Hartree-Fock Scheme
 ======================
  
 Fit Set Quality     : GOOD
 Threshold Quality   : GOOD
 Integration Quality : GOOD
 Response Quality    : DEFAULT
 Is Range Separated  :  F
 
 RIHartreeFock Dependency: number of modified vectors:           4
  
 Hartree-Fock exchange energy:   -591.740932569136     

 Energy gradients wrt nuclear displacements
 ==========================================

     Atom      Cartesian (a.u./angstrom)
                 X         Y         Z
 ----------------------------------------
     1 Pa   -0.000176  0.000350 -0.001302
     2 O     0.000947 -0.000033  0.002055
     3 H    -0.000623 -0.000551 -0.000980
     4 O    -0.000135  0.000473  0.000258
     5 H    -0.000132  0.000027 -0.000612
     6 O    -0.000440 -0.000172 -0.000251
     7 H    -0.000287  0.000039  0.000005
     8 O     0.000408 -0.000101  0.000753
     9 H    -0.000335  0.000541  0.000137
    10 Br    0.000773 -0.000574 -0.000063
 ----------------------------------------
 Mulliken charges used for AMS results%charges...

 dE(predicted):    -0.16341E-04, dE(actual):    -0.27750E-04, Trust radius:    0.080000, all in a.u.
 
----------------------------------------------------------------------
Geometry Convergence after Step  20       (Hartree/Angstrom,Angstrom)
----------------------------------------------------------------------
current energy                               -2.61693743 Hartree
energy change                      -0.00002775     0.00001000    F
constrained gradient max            0.00210477     0.00010000    F
constrained gradient rms            0.00061374     0.00006667    F
gradient max                        0.00210477
gradient rms                        0.00061374
cart. step max                      0.01068034     0.00100000    F
cart. step rms                      0.00512206     0.00066667    F
 
 
--------
Geometry
--------
Formula: H4BrO4Pa
Atoms
  Index Symbol   x (angstrom)   y (angstrom)   z (angstrom)
      1     Pa     0.34611315     0.08800563    -0.13180120
      2      O     0.94916483     1.39432815    -1.65736839
      3      H     1.18286033     2.08698176    -2.27699379
      4      O    -0.56831090     1.14917585     1.06793536
      5      H    -0.98900748    -2.60738993     0.80115487
      6      O    -0.29768854    -1.41085466    -1.51204678
      7      H    -0.24310448    -1.70193598    -2.42630096
      8      O    -0.73135161    -1.80671387     1.27308625
      9      H    -1.29081121    -1.70112979     2.04961199
     10     Br     2.86519471    -0.80294000     0.67415930
 
Total System Charge             0.00000
Bonding info available!
 
 *** GO1_GOStep21 ***



 ======================
 RI Hartree-Fock Scheme
 ======================
  
 Fit Set Quality     : GOOD
 Threshold Quality   : GOOD
 Integration Quality : GOOD
 Response Quality    : DEFAULT
 Is Range Separated  :  F
 
 RIHartreeFock Dependency: number of modified vectors:           4
  
 Hartree-Fock exchange energy:   -591.741466417087     

 Energy gradients wrt nuclear displacements
 ==========================================

     Atom      Cartesian (a.u./angstrom)
                 X         Y         Z
 ----------------------------------------
     1 Pa    0.000284  0.000084 -0.001128
     2 O     0.000903 -0.000379  0.002175
     3 H    -0.000638 -0.000504 -0.000953
     4 O    -0.000237  0.000881  0.000403
     5 H     0.000046  0.000197 -0.000621
     6 O    -0.000518 -0.000042 -0.000542
     7 H    -0.000271 -0.000010  0.000082
     8 O    -0.000001 -0.000737  0.000790
     9 H    -0.000057  0.000845 -0.000029
    10 Br    0.000490 -0.000335 -0.000177
 ----------------------------------------
 Mulliken charges used for AMS results%charges...

 dE(predicted):    -0.20624E-04, dE(actual):    -0.29404E-04, Trust radius:    0.160000, all in a.u.
 
----------------------------------------------------------------------
Geometry Convergence after Step  21       (Hartree/Angstrom,Angstrom)
----------------------------------------------------------------------
current energy                               -2.61696683 Hartree
energy change                      -0.00002940     0.00001000    F
constrained gradient max            0.00222296     0.00010000    F
constrained gradient rms            0.00064499     0.00006667    F
gradient max                        0.00222296
gradient rms                        0.00064499
cart. step max                      0.02338502     0.00100000    F
cart. step rms                      0.01032929     0.00066667    F
 
 
--------
Geometry
--------
Formula: H4BrO4Pa
Atoms
  Index Symbol   x (angstrom)   y (angstrom)   z (angstrom)
      1     Pa     0.33861045     0.08460735    -0.14006994
      2      O     0.95168445     1.38888782    -1.66365217
      3      H     1.18640632     2.09925034    -2.26251856
      4      O    -0.56182243     1.15556456     1.06158970
      5      H    -0.99296236    -2.62344357     0.82453989
      6      O    -0.29843753    -1.40919168    -1.52720319
      7      H    -0.23573993    -1.70274899    -2.44013203
      8      O    -0.74798391    -1.80168794     1.26497561
      9      H    -1.27097464    -1.70212610     2.06702945
     10     Br     2.85427835    -0.80158465     0.67687790
 
Total System Charge             0.00000
Bonding info available!
 
 *** GO1_GOStep22 ***



 ======================
 RI Hartree-Fock Scheme
 ======================
  
 Fit Set Quality     : GOOD
 Threshold Quality   : GOOD
 Integration Quality : GOOD
 Response Quality    : DEFAULT
 Is Range Separated  :  F
 
 RIHartreeFock Dependency: number of modified vectors:           4
  
 Hartree-Fock exchange energy:   -591.742475102077     

 Energy gradients wrt nuclear displacements
 ==========================================

     Atom      Cartesian (a.u./angstrom)
                 X         Y         Z
 ----------------------------------------
     1 Pa    0.000602 -0.000182 -0.000368
     2 O     0.001142 -0.000815  0.002121
     3 H    -0.000694 -0.000388 -0.000858
     4 O    -0.000351  0.001169  0.000226
     5 H    -0.000149  0.000426 -0.000271
     6 O    -0.000659  0.000106 -0.000902
     7 H    -0.000286 -0.000064  0.000184
     8 O     0.000192 -0.001064  0.000486
     9 H    -0.000028  0.000842 -0.000333
    10 Br    0.000231 -0.000032 -0.000287
 ----------------------------------------
 Mulliken charges used for AMS results%charges...

 dE(predicted):    -0.42962E-04, dE(actual):    -0.68993E-04, Trust radius:    0.319999, all in a.u.
 
----------------------------------------------------------------------
Geometry Convergence after Step  22       (Hartree/Angstrom,Angstrom)
----------------------------------------------------------------------
current energy                               -2.61703582 Hartree
energy change                      -0.00006899     0.00001000    F
constrained gradient max            0.00216566     0.00010000    F
constrained gradient rms            0.00066977     0.00006667    F
gradient max                        0.00216566
gradient rms                        0.00066977
cart. step max                      0.04677772     0.00100000    F
cart. step rms                      0.02112640     0.00066667    F
 
 
--------
Geometry
--------
Formula: H4BrO4Pa
Atoms
  Index Symbol   x (angstrom)   y (angstrom)   z (angstrom)
      1     Pa     0.32278782     0.07758971    -0.15881000
      2      O     0.95333522     1.37954520    -1.68040365
      3      H     1.19175920     2.12771251    -2.22970976
      4      O    -0.54409175     1.16458899     1.05253734
      5      H    -1.00333699    -2.64861486     0.87131760
      6      O    -0.29664292    -1.40992888    -1.55636448
      7      H    -0.21842893    -1.70869957    -2.46639526
      8      O    -0.78311522    -1.79015219     1.24861118
      9      H    -1.22763176    -1.70334070     2.09781465
     10     Br     2.82842411    -0.80117306     0.68283903
 
Total System Charge             0.00000
Bonding info available!
 
 *** GO1_GOStep23 ***



 ======================
 RI Hartree-Fock Scheme
 ======================
  
 Fit Set Quality     : GOOD
 Threshold Quality   : GOOD
 Integration Quality : GOOD
 Response Quality    : DEFAULT
 Is Range Separated  :  F
 
 RIHartreeFock Dependency: number of modified vectors:           4
  
 Hartree-Fock exchange energy:   -591.744650597926     

 Energy gradients wrt nuclear displacements
 ==========================================

     Atom      Cartesian (a.u./angstrom)
                 X         Y         Z
 ----------------------------------------
     1 Pa    0.000758 -0.001129  0.001530
     2 O     0.001634 -0.000779  0.000987
     3 H    -0.000778 -0.000383 -0.000497
     4 O    -0.000062  0.001152  0.000048
     5 H    -0.001395  0.001098  0.001809
     6 O    -0.000705  0.000566 -0.001274
     7 H    -0.000269 -0.000167  0.000386
     8 O     0.002053 -0.000287 -0.000972
     9 H    -0.000484 -0.000763 -0.001373
    10 Br   -0.000753  0.000693 -0.000644
 ----------------------------------------
 Mulliken charges used for AMS results%charges...

 dE(predicted):    -0.10193E-03, dE(actual):    -0.12827E-03, Trust radius:    0.639998, all in a.u.
 
----------------------------------------------------------------------
Geometry Convergence after Step  23       (Hartree/Angstrom,Angstrom)
----------------------------------------------------------------------
current energy                               -2.61716409 Hartree
energy change                      -0.00012827     0.00001000    F
constrained gradient max            0.00213608     0.00010000    F
constrained gradient rms            0.00098079     0.00006667    F
gradient max                        0.00213608
gradient rms                        0.00098079
cart. step max                      0.10673863     0.00100000    F
cart. step rms                      0.04509186     0.00066667    F
 
 
--------
Geometry
--------
Formula: H4BrO4Pa
Atoms
  Index Symbol   x (angstrom)   y (angstrom)   z (angstrom)
      1     Pa     0.28859509     0.06321762    -0.20315215
      2      O     0.95453253     1.36071837    -1.72220846
      3      H     1.21164412     2.19271819    -2.12297113
      4      O    -0.52948468     1.17675398     1.01576043
      5      H    -1.00671388    -2.67611199     0.96503428
      6      O    -0.29939449    -1.42216032    -1.60827528
      7      H    -0.18974230    -1.73347645    -2.51113194
      8      O    -0.85287104    -1.76121372     1.22187797
      9      H    -1.12635009    -1.69854603     2.14277089
     10     Br     2.77284352    -0.81437252     0.68373204
 
Total System Charge             0.00000
Bonding info available!
 
 *** GO1_GOStep24 ***



 ======================
 RI Hartree-Fock Scheme
 ======================
  
 Fit Set Quality     : GOOD
 Threshold Quality   : GOOD
 Integration Quality : GOOD
 Response Quality    : DEFAULT
 Is Range Separated  :  F
 
 RIHartreeFock Dependency: number of modified vectors:           4
  
 Hartree-Fock exchange energy:   -591.748602072513     

 Energy gradients wrt nuclear displacements
 ==========================================

     Atom      Cartesian (a.u./angstrom)
                 X         Y         Z
 ----------------------------------------
     1 Pa    0.000627 -0.001911  0.005069
     2 O     0.001996 -0.000991 -0.001458
     3 H    -0.000675 -0.000447  0.000743
     4 O     0.000320 -0.000082 -0.000869
     5 H    -0.004304  0.002287  0.009832
     6 O    -0.000801  0.001356 -0.000969
     7 H    -0.000093 -0.000321  0.000343
     8 O     0.006611  0.006685 -0.007835
     9 H    -0.001561 -0.008324 -0.003464
    10 Br   -0.002119  0.001748 -0.001390
 ----------------------------------------
 Mulliken charges used for AMS results%charges...

 dE(predicted):    -0.13436E-03, dE(actual):     0.10066E-04, Trust radius:    0.160000, all in a.u.
 
----------------------------------------------------------------------
Geometry Convergence after Step  24       (Hartree/Angstrom,Angstrom)
----------------------------------------------------------------------
current energy                               -2.61715403 Hartree
energy change                       0.00001007     0.00001000    F
constrained gradient max            0.00978621     0.00010000    F
constrained gradient rms            0.00367704     0.00006667    F
gradient max                        0.00978621
gradient rms                        0.00367704
cart. step max                      0.02484228     0.00100000    F
cart. step rms                      0.01016760     0.00066667    F
 
 
--------
Geometry
--------
Formula: H4BrO4Pa
Atoms
  Index Symbol   x (angstrom)   y (angstrom)   z (angstrom)
      1     Pa     0.30015118     0.06384167    -0.19906622
      2      O     0.95747083     1.36471394    -1.72230075
      3      H     1.19625336     2.20098317    -2.12595233
      4      O    -0.53254087     1.16941084     1.01680886
      5      H    -1.00743397    -2.67052562     0.94019200
      6      O    -0.29545470    -1.42943140    -1.59401509
      7      H    -0.19298928    -1.73851770    -2.49852246
      8      O    -0.83714430    -1.76701185     1.22898246
      9      H    -1.14872818    -1.68092161     2.13670755
     10     Br     2.78347473    -0.82501431     0.67860265
 
Total System Charge             0.00000
Bonding info available!
 
 *** GO1_GOStep25 ***



 ======================
 RI Hartree-Fock Scheme
 ======================
  
 Fit Set Quality     : GOOD
 Threshold Quality   : GOOD
 Integration Quality : GOOD
 Response Quality    : DEFAULT
 Is Range Separated  :  F
 
 RIHartreeFock Dependency: number of modified vectors:           4
  
 Hartree-Fock exchange energy:   -591.745999400106     

 Energy gradients wrt nuclear displacements
 ==========================================

     Atom      Cartesian (a.u./angstrom)
                 X         Y         Z
 ----------------------------------------
     1 Pa    0.000642 -0.001067  0.005426
     2 O     0.002469 -0.000242 -0.002340
     3 H    -0.000693 -0.000100  0.000611
     4 O     0.000391 -0.000617 -0.001282
     5 H    -0.002807 -0.000099  0.003169
     6 O    -0.000810  0.001017 -0.000580
     7 H    -0.000128 -0.000252  0.000241
     8 O     0.004321  0.002074 -0.003896
     9 H    -0.001178 -0.002114 -0.000005
    10 Br   -0.002206  0.001398 -0.001346
 ----------------------------------------
 Mulliken charges used for AMS results%charges...

 dE(predicted):    -0.20489E-03, dE(actual):    -0.23170E-03, Trust radius:    0.319999, all in a.u.
 
----------------------------------------------------------------------
Geometry Convergence after Step  25       (Hartree/Angstrom,Angstrom)
----------------------------------------------------------------------
current energy                               -2.61738573 Hartree
energy change                      -0.00023170     0.00001000    F
constrained gradient max            0.00543598     0.00010000    F
constrained gradient rms            0.00198377     0.00006667    F
gradient max                        0.00543598
gradient rms                        0.00198377
cart. step max                      0.08555481     0.00100000    F
cart. step rms                      0.03250994     0.00066667    F
 
 
--------
Geometry
--------
Formula: H4BrO4Pa
Atoms
  Index Symbol   x (angstrom)   y (angstrom)   z (angstrom)
      1     Pa     0.28705928     0.08186164    -0.17054121
      2      O     0.94871919     1.38589768    -1.67208232
      3      H     1.23933599     2.12376626    -2.21150715
      4      O    -0.57636503     1.18645542     1.03114869
      5      H    -0.94737232    -2.66914079     0.91120216
      6      O    -0.31214409    -1.39800682    -1.58336925
      7      H    -0.20744752    -1.70777229    -2.48717153
      8      O    -0.81646021    -1.77286635     1.23966812
      9      H    -1.18056338    -1.71196981     2.12881361
     10     Br     2.78829687    -0.83069780     0.67527554
 
Total System Charge             0.00000
Bonding info available!
 
 *** GO1_GOStep26 ***



 ======================
 RI Hartree-Fock Scheme
 ======================
  
 Fit Set Quality     : GOOD
 Threshold Quality   : GOOD
 Integration Quality : GOOD
 Response Quality    : DEFAULT
 Is Range Separated  :  F
 
 RIHartreeFock Dependency: number of modified vectors:           4
  
 Hartree-Fock exchange energy:   -591.742270842051     

 Energy gradients wrt nuclear displacements
 ==========================================

     Atom      Cartesian (a.u./angstrom)
                 X         Y         Z
 ----------------------------------------
     1 Pa    0.001415 -0.003056 -0.001003
     2 O    -0.000337 -0.002756  0.003306
     3 H     0.000222  0.000758 -0.001282
     4 O    -0.002102  0.004269  0.002030
     5 H    -0.001371  0.000635  0.001067
     6 O    -0.001074  0.000230 -0.002024
     7 H     0.000002 -0.000272  0.000254
     8 O     0.002841  0.000639 -0.001180
     9 H    -0.000695 -0.000469 -0.000782
    10 Br    0.001098  0.000023 -0.000386
 ----------------------------------------
 Mulliken charges used for AMS results%charges...

 dE(predicted):    -0.15021E-03, dE(actual):     0.25331E-03, Trust radius:    0.080000, all in a.u.
 
----------------------------------------------------------------------
Geometry Convergence after Step  26       (Hartree/Angstrom,Angstrom)
----------------------------------------------------------------------
current energy                               -2.61713242 Hartree
energy change                       0.00025331     0.00001000    F
constrained gradient max            0.00419312     0.00010000    F
constrained gradient rms            0.00164349     0.00006667    F
gradient max                        0.00419312
gradient rms                        0.00164349
cart. step max                      0.02726322     0.00100000    F
cart. step rms                      0.00957870     0.00066667    F
 
 
--------
Geometry
--------
Formula: H4BrO4Pa
Atoms
  Index Symbol   x (angstrom)   y (angstrom)   z (angstrom)
      1     Pa     0.28638931     0.07923561    -0.18178587
      2      O     0.94836437     1.38564429    -1.68853467
      3      H     1.23383153     2.15102948    -2.19054108
      4      O    -0.56690588     1.17948563     1.02817413
      5      H    -0.94714090    -2.67034168     0.91792922
      6      O    -0.30944109    -1.40796902    -1.58551361
      7      H    -0.20522307    -1.71884290    -2.48913542
      8      O    -0.82226587    -1.76942559     1.23678190
      9      H    -1.16965420    -1.69911352     2.13223487
     10     Br     2.77510459    -0.84217514     0.68182719
 
Total System Charge             0.00000
Bonding info available!
 
 *** GO1_GOStep27 ***



 ======================
 RI Hartree-Fock Scheme
 ======================
  
 Fit Set Quality     : GOOD
 Threshold Quality   : GOOD
 Integration Quality : GOOD
 Response Quality    : DEFAULT
 Is Range Separated  :  F
 
 RIHartreeFock Dependency: number of modified vectors:           4
  
 Hartree-Fock exchange energy:   -591.743115199980     

 Energy gradients wrt nuclear displacements
 ==========================================

     Atom      Cartesian (a.u./angstrom)
                 X         Y         Z
 ----------------------------------------
     1 Pa    0.000334 -0.002565  0.000968
     2 O     0.000651 -0.000878  0.000726
     3 H     0.000007  0.000307 -0.000574
     4 O    -0.001013  0.002277  0.000683
     5 H    -0.001117 -0.000006 -0.000220
     6 O    -0.000921  0.000612 -0.000997
     7 H    -0.000010 -0.000236  0.000151
     8 O     0.002502 -0.000303 -0.000436
     9 H    -0.000746  0.000698  0.000075
    10 Br    0.000313  0.000094 -0.000376
 ----------------------------------------
 Mulliken charges used for AMS results%charges...

 dE(predicted):    -0.85570E-04, dE(actual):    -0.16217E-03, Trust radius:    0.160000, all in a.u.
 
----------------------------------------------------------------------
Geometry Convergence after Step  27       (Hartree/Angstrom,Angstrom)
----------------------------------------------------------------------
current energy                               -2.61729459 Hartree
energy change                      -0.00016217     0.00001000    F
constrained gradient max            0.00257894     0.00010000    F
constrained gradient rms            0.00095748     0.00006667    F
gradient max                        0.00257894
gradient rms                        0.00095748
cart. step max                      0.03069416     0.00100000    F
cart. step rms                      0.01425998     0.00066667    F
 
 
--------
Geometry
--------
Formula: H4BrO4Pa
Atoms
  Index Symbol   x (angstrom)   y (angstrom)   z (angstrom)
      1     Pa     0.27773477     0.07723878    -0.19967698
      2      O     0.94556103     1.38679400    -1.70871408
      3      H     1.23437646     2.18170731    -2.15984693
      4      O    -0.55546914     1.17253813     1.02498336
      5      H    -0.93908327    -2.67250242     0.93519264
      6      O    -0.30660933    -1.41971482    -1.59441961
      7      H    -0.20003366    -1.73318243    -2.49703952
      8      O    -0.83860412    -1.76044157     1.22994048
      9      H    -1.14383043    -1.68622926     2.14039626
     10     Br     2.74901647    -0.85868057     0.69062103
 
Total System Charge             0.00000
Bonding info available!
 
 *** GO1_GOStep28 ***



 ======================
 RI Hartree-Fock Scheme
 ======================
  
 Fit Set Quality     : GOOD
 Threshold Quality   : GOOD
 Integration Quality : GOOD
 Response Quality    : DEFAULT
 Is Range Separated  :  F
 
 RIHartreeFock Dependency: number of modified vectors:           4
  
 Hartree-Fock exchange energy:   -591.745094600570     

 Energy gradients wrt nuclear displacements
 ==========================================

     Atom      Cartesian (a.u./angstrom)
                 X         Y         Z
 ----------------------------------------
     1 Pa   -0.001201 -0.001112  0.002744
     2 O     0.001466  0.000645 -0.001515
     3 H    -0.000166 -0.000227  0.000163
     4 O     0.000349 -0.000292 -0.000904
     5 H    -0.001313 -0.000007 -0.000331
     6 O    -0.000710  0.000807  0.000053
     7 H    -0.000035 -0.000155  0.000038
     8 O     0.002801 -0.000523 -0.000101
     9 H    -0.000838  0.000752  0.000125
    10 Br   -0.000353  0.000112 -0.000272
 ----------------------------------------
[...]
    30          3887.1567             220.6227

 Zero-point energy (Hartree):     0.0510

 ------------
 Normal Modes
 ------------

 Number of removed rigid normal modes: 6
 
 Mode:     7      Frequency (cm-1):       60.0260     Intensity (km/mol):        1.0845
 Index  Atom      ---- Displacements (x/y/z) ----
     1    Pa      -0.000190   0.009719   0.016114
     2     O      -0.118456   0.093370   0.008307
     3     H      -0.184757   0.177665   0.067341
     4     O      -0.025892  -0.001527   0.002063
     5     H      -0.258830  -0.078356   0.004336
     6     O       0.371901  -0.205289   0.044389
     7     H       0.660670  -0.249642   0.031179
     8     O      -0.164420   0.138574   0.065198
     9     H      -0.012435   0.287404   0.101788
    10    Br      -0.014853  -0.035296  -0.074099
 
 Mode:     8      Frequency (cm-1):       67.9971     Intensity (km/mol):        6.6733
 Index  Atom      ---- Displacements (x/y/z) ----
     1    Pa      -0.018459   0.009636   0.014804
     2     O       0.225299  -0.002774   0.212225
     3     H       0.298469  -0.071016   0.180437
     4     O      -0.408831   0.000357  -0.386844
     5     H       0.288839   0.315035   0.361020
     6     O       0.025593   0.040559  -0.019460
     7     H      -0.036071  -0.036682   0.031533
     8     O       0.221506   0.094552   0.230792
     9     H      -0.034678  -0.059110   0.129445
    10    Br       0.034559  -0.056996  -0.059749
 
 Mode:     9      Frequency (cm-1):       86.8030     Intensity (km/mol):        3.8770
 Index  Atom      ---- Displacements (x/y/z) ----
     1    Pa       0.023088  -0.029651  -0.024476
     2     O      -0.110738   0.176842   0.105946
     3     H      -0.307927   0.421591   0.271977
     4     O      -0.009721  -0.112411   0.024925
     5     H      -0.188454   0.109895   0.270908
     6     O      -0.116386   0.091612  -0.071432
     7     H      -0.348234   0.145381  -0.070620
     8     O      -0.098522   0.178210   0.145720
     9     H      -0.062116   0.466527   0.054956
    10    Br       0.011958   0.004458   0.023339
 
 Mode:    10      Frequency (cm-1):       91.1942     Intensity (km/mol):        0.2841
 Index  Atom      ---- Displacements (x/y/z) ----
     1    Pa      -0.034268  -0.036374  -0.002906
     2     O       0.242414  -0.097350   0.168728
     3     H       0.518277  -0.040766   0.467331
     4     O       0.186488   0.098722   0.106604
     5     H      -0.071329   0.007301   0.047879
     6     O       0.069319   0.051244  -0.133379
     7     H       0.366812   0.228046  -0.268000
     8     O      -0.063232   0.056051   0.092513
     9     H       0.046180   0.154804   0.122793
    10    Br       0.001177   0.079999  -0.043738
 
 Mode:    11      Frequency (cm-1):       97.8238     Intensity (km/mol):       12.2154
 Index  Atom      ---- Displacements (x/y/z) ----
     1    Pa       0.021842  -0.010336   0.031241
     2     O       0.085996  -0.086077  -0.001936
     3     H       0.150044  -0.265063  -0.187749
     4     O      -0.143758  -0.052957  -0.093755
     5     H      -0.543415  -0.295370  -0.025601
     6     O      -0.104534   0.006871   0.065505
     7     H      -0.273269  -0.044121   0.115631
     8     O      -0.323182   0.016122  -0.139379
     9     H      -0.394299   0.068091  -0.204543
    10    Br       0.048001   0.060629  -0.053233
 
 Mode:    12      Frequency (cm-1):      127.3308     Intensity (km/mol):        3.9002
 Index  Atom      ---- Displacements (x/y/z) ----
     1    Pa      -0.006900  -0.013696   0.022833
     2     O      -0.122699  -0.068666  -0.123651
     3     H      -0.321596   0.042682  -0.136121
     4     O      -0.003921   0.130981  -0.110433
     5     H      -0.047687   0.002049   0.031884
     6     O       0.049351   0.151319  -0.133715
     7     H       0.334180   0.654877  -0.443337
     8     O      -0.031694   0.017124   0.010598
     9     H      -0.120882  -0.095383  -0.001020
    10    Br       0.044276  -0.014390   0.012558
 
 Mode:    13      Frequency (cm-1):      152.1720     Intensity (km/mol):       25.1195
 Index  Atom      ---- Displacements (x/y/z) ----
     1    Pa       0.005997   0.012561   0.001277
     2     O       0.026829  -0.095066  -0.111915
     3     H       0.267225  -0.569599  -0.548566
     4     O      -0.086912  -0.239688   0.143755
     5     H      -0.001636   0.061631   0.163543
     6     O       0.065984   0.103054  -0.085671
     7     H       0.147688   0.139577  -0.115414
     8     O       0.022046   0.045011   0.088132
     9     H       0.067394   0.266511   0.029348
    10    Br      -0.029360   0.002366  -0.004674
 
 Mode:    14      Frequency (cm-1):      185.6247     Intensity (km/mol):       17.8601
 Index  Atom      ---- Displacements (x/y/z) ----
     1    Pa      -0.089983   0.032705  -0.037357
     2     O       0.037669  -0.005996   0.039034
     3     H       0.462507  -0.336361  -0.058429
     4     O      -0.007481  -0.059984   0.128978
     5     H      -0.071254   0.006409  -0.377632
     6     O       0.007299  -0.042489   0.000969
     7     H       0.085683  -0.292021   0.125072
     8     O      -0.071346   0.196086  -0.145794
     9     H       0.277609   0.379563   0.002181
    10    Br       0.260653  -0.110408   0.108607
 
 Mode:    15      Frequency (cm-1):      219.5372     Intensity (km/mol):      100.5336
 Index  Atom      ---- Displacements (x/y/z) ----
     1    Pa       0.002626   0.004768   0.003423
     2     O       0.059242  -0.077164  -0.070415
     3     H      -0.178462   0.520608   0.530221
     4     O      -0.053786  -0.077832   0.026128
     5     H       0.012864  -0.042038  -0.149190
     6     O      -0.062671  -0.049829   0.054661
     7     H       0.379793   0.348888  -0.218675
     8     O       0.040027   0.074160  -0.062906
     9     H       0.145551   0.109898  -0.010643
    10    Br      -0.008797   0.000553  -0.001312
 
 Mode:    16      Frequency (cm-1):      243.1646     Intensity (km/mol):       39.9549
 Index  Atom      ---- Displacements (x/y/z) ----
     1    Pa      -0.002401   0.034855  -0.026755
     2     O       0.037793  -0.028050  -0.058449
     3     H      -0.031349   0.376861   0.422612
     4     O      -0.014821  -0.054346   0.023672
     5     H      -0.140266  -0.162721   0.370553
     6     O      -0.029080  -0.008704   0.026616
     7     H       0.348328   0.031228  -0.044245
     8     O      -0.168048  -0.310842   0.258193
     9     H      -0.235025  -0.263996   0.196890
    10    Br       0.043071  -0.020338   0.015571
 
 Mode:    17      Frequency (cm-1):      250.4690     Intensity (km/mol):       27.8204
 Index  Atom      ---- Displacements (x/y/z) ----
     1    Pa      -0.002768  -0.000632   0.000630
     2     O      -0.001614  -0.004295  -0.007824
     3     H       0.003287   0.042197   0.057956
     4     O       0.017351  -0.007085   0.031878
     5     H       0.021245   0.403961   0.482849
     6     O      -0.006465  -0.005254   0.005164
     7     H       0.191900  -0.120516   0.042386
     8     O       0.028298   0.025753  -0.037323
     9     H      -0.615485  -0.128580  -0.380938
    10    Br       0.005585  -0.002516  -0.002785
 
 Mode:    18      Frequency (cm-1):      290.3549     Intensity (km/mol):       45.5073
 Index  Atom      ---- Displacements (x/y/z) ----
     1    Pa       0.003332   0.001964  -0.004624
     2     O      -0.048958   0.066446   0.024107
     3     H       0.536175  -0.304413   0.004730
     4     O       0.003980  -0.000159  -0.006993
     5     H      -0.027674  -0.017278   0.067920
     6     O      -0.024230  -0.095521   0.057258
     7     H      -0.028285   0.668711  -0.357741
     8     O       0.006337  -0.004868   0.005108
     9     H      -0.102293  -0.076897  -0.035140
    10    Br      -0.001839  -0.002287   0.001519
 
 Mode:    19      Frequency (cm-1):      297.3862     Intensity (km/mol):      195.8769
 Index  Atom      ---- Displacements (x/y/z) ----
     1    Pa      -0.006674   0.004091   0.000415
     2     O       0.027264  -0.053328  -0.035291
     3     H      -0.101734   0.198723   0.194929
     4     O      -0.001936  -0.008685   0.026248
     5     H       0.023079   0.103227   0.084728
     6     O       0.114723  -0.017162  -0.001110
     7     H      -0.887773   0.268440  -0.027477
     8     O      -0.001075  -0.004474  -0.001181
     9     H      -0.099781  -0.015064  -0.059012
    10    Br       0.004987  -0.002114  -0.001384
 
 Mode:    20      Frequency (cm-1):      353.3059     Intensity (km/mol):      184.2898
 Index  Atom      ---- Displacements (x/y/z) ----
     1    Pa      -0.004354   0.003336  -0.005830
     2     O       0.089012   0.009639   0.078325
     3     H      -0.695696  -0.017803  -0.593575
     4     O       0.014310  -0.005508   0.019844
     5     H       0.028733   0.076744   0.033379
     6     O      -0.012822  -0.061440   0.025493
     7     H       0.061664   0.310068  -0.186552
     8     O      -0.009311  -0.013572   0.003931
     9     H      -0.027070   0.008218  -0.015638
    10    Br       0.004366  -0.000217   0.000942
 
 Mode:    21      Frequency (cm-1):      416.3663     Intensity (km/mol):      278.6438
 Index  Atom      ---- Displacements (x/y/z) ----
     1    Pa       0.001113  -0.001756   0.002841
     2     O      -0.013124  -0.003583   0.002662
     3     H       0.057906  -0.020584   0.036836
     4     O      -0.010521   0.027071  -0.018727
     5     H       0.238546   0.514949   0.118115
     6     O       0.001215   0.009523   0.026839
     7     H       0.041409   0.054894  -0.003400
     8     O      -0.036704  -0.090002  -0.033574
     9     H       0.301206   0.729018  -0.138220
    10    Br       0.000567   0.000369  -0.003866
 
 Mode:    22      Frequency (cm-1):      511.0773     Intensity (km/mol):       69.9720
 Index  Atom      ---- Displacements (x/y/z) ----
     1    Pa      -0.003299   0.002542  -0.000715
     2     O       0.001350  -0.007442   0.006312
     3     H      -0.040092   0.006301  -0.008891
     4     O      -0.002534   0.035296   0.002506
     5     H      -0.409062  -0.622523   0.373714
     6     O       0.001981  -0.008543  -0.008915
     7     H      -0.019183  -0.012546  -0.003954
     8     O       0.080971  -0.027635  -0.009165
     9     H      -0.020361   0.470708  -0.268828
    10    Br      -0.000675  -0.003737   0.002796
 
 Mode:    23      Frequency (cm-1):      570.8300     Intensity (km/mol):      236.9210
 Index  Atom      ---- Displacements (x/y/z) ----
     1    Pa       0.029328   0.046372   0.008237
     2     O      -0.232560  -0.325207   0.247775
     3     H      -0.192850  -0.290091   0.327496
     4     O      -0.028539  -0.000704   0.018763
     5     H       0.097087   0.170281  -0.035555
     6     O      -0.132370  -0.294085  -0.373889
     7     H      -0.169753  -0.331586  -0.348514
     8     O      -0.012035  -0.008005  -0.006251
     9     H       0.036562   0.021004   0.013119
    10    Br      -0.000750  -0.002978  -0.000536
 
 Mode:    24      Frequency (cm-1):      619.7726     Intensity (km/mol):      189.0575
 Index  Atom      ---- Displacements (x/y/z) ----
     1    Pa       0.011502   0.001133  -0.049968
     2     O      -0.225918  -0.317252   0.294022
     3     H      -0.248766  -0.347605   0.244816
     4     O      -0.025881   0.014306   0.038878
     5     H      -0.057925  -0.122059  -0.039126
     6     O       0.112797   0.255799   0.362412
     7     H       0.222066   0.327831   0.313813
     8     O       0.015328   0.032561  -0.002987
     9     H      -0.063114  -0.154835   0.018200
    10    Br      -0.006720   0.003427  -0.000902
 
 Mode:    25      Frequency (cm-1):      861.1650     Intensity (km/mol):      291.3817
 Index  Atom      ---- Displacements (x/y/z) ----
     1    Pa      -0.037717   0.035896   0.032960
     2     O      -0.037328  -0.065978   0.048840
     3     H      -0.060858  -0.045721   0.066887
     4     O       0.573057  -0.507365  -0.546484
     5     H      -0.086233  -0.081990   0.126141
     6     O       0.019161   0.032059   0.042146
     7     H      -0.027328   0.039202   0.048680
     8     O       0.017749   0.005428  -0.017479
     9     H       0.017856   0.209712  -0.102366
    10    Br      -0.003643   0.001970  -0.002409
 
 Mode:    26      Frequency (cm-1):     1599.2513     Intensity (km/mol):       86.0032
 Index  Atom      ---- Displacements (x/y/z) ----
     1    Pa       0.000054   0.000092   0.000019
     2     O      -0.000064   0.000028  -0.000090
     3     H       0.000807  -0.000205  -0.000009
     4     O       0.001327   0.000042  -0.000682
     5     H       0.217648  -0.123897  -0.678189
     6     O      -0.000263  -0.000100   0.000123
     7     H       0.000435  -0.000530   0.000022
     8     O       0.014085  -0.012606   0.068053
     9     H      -0.478015   0.283214  -0.404521
    10    Br       0.000093   0.000267   0.000110
 
 Mode:    27      Frequency (cm-1):     3695.7680     Intensity (km/mol):       56.6930
 Index  Atom      ---- Displacements (x/y/z) ----
     1    Pa      -0.000059  -0.000041   0.000046
     2     O       0.000156   0.000132  -0.000103
     3     H      -0.000562  -0.000542   0.000404
     4     O       0.000069   0.000149  -0.000120
     5     H      -0.775902   0.433012  -0.289810
     6     O       0.000079   0.000109   0.000097
     7     H      -0.000346  -0.001219  -0.002294
     8     O       0.036529  -0.018977   0.034163
     9     H       0.199397  -0.120414  -0.263360
    10    Br       0.000082  -0.000083   0.000057
 
 Mode:    28      Frequency (cm-1):     3833.0845     Intensity (km/mol):      140.7780
 Index  Atom      ---- Displacements (x/y/z) ----
     1    Pa      -0.000020   0.000010  -0.000004
     2     O       0.000117   0.000139  -0.000103
     3     H      -0.002047  -0.003089   0.002284
     4     O       0.000215  -0.000180  -0.000167
     5     H      -0.272772   0.149587  -0.130305
     6     O      -0.000025  -0.000233  -0.000432
     7     H       0.000898   0.004263   0.007994
     8     O       0.047697  -0.028189  -0.038799
     9     H      -0.484522   0.300913   0.745823
    10    Br       0.000014  -0.000030   0.000027
 
 Mode:    29      Frequency (cm-1):     3874.1227     Intensity (km/mol):      218.7260
 Index  Atom      ---- Displacements (x/y/z) ----
     1    Pa       0.000011   0.000002   0.000003
     2     O       0.002171   0.003576  -0.002751
     3     H      -0.036475  -0.060007   0.045301
     4     O       0.000018  -0.000158  -0.000167
     5     H      -0.000423  -0.000099  -0.000161
     6     O       0.007082   0.029945   0.054819
     7     H      -0.111547  -0.471796  -0.868288
     8     O       0.000349  -0.000103  -0.000456
     9     H      -0.004789   0.002687   0.007132
    10    Br      -0.000024   0.000012  -0.000015
 
 Mode:    30      Frequency (cm-1):     3887.1567     Intensity (km/mol):      220.6227
 Index  Atom      ---- Displacements (x/y/z) ----
     1    Pa      -0.000005  -0.000001   0.000010
     2     O       0.027684   0.045237  -0.034152
     3     H      -0.435175  -0.714422   0.537860
     4     O      -0.000230   0.000121   0.000230
     5     H       0.002224  -0.000807   0.000732
     6     O      -0.000699  -0.002700  -0.004761
     7     H       0.009292   0.039523   0.072428
     8     O      -0.000280   0.000098   0.000175
     9     H       0.002401  -0.001051  -0.003572
    10    Br       0.000028  -0.000019   0.000018

PES point character: Geometry corresponds to a local minimum on the PES.




 ============================
 Statistical Thermal Analysis  ***  ideal gas assumed  ***
 ============================
  
 Pressure:                  1.000000 atm.
 Temperature:             298.150000 K



 Moments of Inertia [amu*bohr^2] and principal axis
 ==================================================

        1100.1528       2362.8940       2694.5781
 ------------------------------------------------
           0.7715         -0.6362          0.0066
          -0.4645         -0.5704         -0.6774
           0.4347          0.5196         -0.7356


 The rotational contribution to the molecular entropy includes
 a term, dependent on the symmetry number sigma. The results 
 reported below were computed using sigma = 1, determined from
 the point group symmetry of the input geometry (NOSYM). 
 If this is not the correct symmetry, try symmetrizing the molecule before
 running the calculation (note: linear molecules should be aligned along one
 of the Cartesian axes).
 Contributions from frequencies below 20 1/cm are not included in vibrational sums.
 Their contributions, if any, are reported separately.


     Temp                                                        Transl      Rotat     Vibrat     Total
     ----                                                        ------      -----     ------     -----

     298.15   Entropy (cal/mol-K):                               43.681     30.328     39.581    113.591
              Nuclear Internal Energy (kcal/mol):                 0.889      0.889     37.907     39.685
              Constant Volume Heat Capacity (cal/mol-K):          2.981      2.981     31.132     37.093
          (c) Constant Volume Heat Capacity (cal/mol-K):          2.981      2.981     27.212     33.174

       Summary of energy terms
                                                   hartree              eV         kcal/mol           kJ/mol
                                      --------------------     -----------       ----------      -----------
      Energy from Engine:               -2.618721783891441        -71.2590         -1643.27         -6875.45
      Nuclear Internal Energy:           0.063241800209127          1.7209            39.68           166.04
  (c) Nuclear Internal Energy:           0.061227630411329          1.6661            38.42           160.75
      Internal Energy U:                -2.555479983682314        -69.5381         -1603.59         -6709.41
      pV/n = RT:                         0.000944186013486          0.0257             0.59             2.48
      Enthalpy H:                       -2.554535797668828        -69.5125         -1603.00         -6706.93
      -T*S:                             -0.053970572579567         -1.4686           -33.87          -141.70
  (c) -T*S:                             -0.052508674140237         -1.4288           -32.95          -137.86
      Gibbs free energy:                -2.608506370248395        -70.9811         -1636.86         -6848.63
 
 
 
  (c) The properties marked with this symbol have been corrected using 'low vibrational frequency free rotor
      interpolation corrections'. For those terms all positive frequencies are used (also ones below 20 1/cm),
      but the contribution to the partition function of small vibrational frequencies is modified as described
      in the following paper:
      S. Grimme, 'Supramolecular Binding Thermodynamics by Dispersion-Corrected Density Functional Theory'
      (Chem. Eur. J. 2012, 18, 9955-9964)
      Configuration: Dampener Frequency          :   100.000 1/cm
                     Dampener Alpha              :     4.000
                     Averaging Moment of Inertia : 1.000E-44 kg m2

--------------
Atomic charges
--------------
  Index   Atom    Charge
      1     Pa    2.3777
      2      O   -0.6035
      3      H    0.0109
      4      O   -0.7109
      5      H    0.2301
      6      O   -0.6096
      7      H    0.0357
      8      O   -0.4145
      9      H    0.2271
     10     Br   -0.5431


Dipole moment vector    (Debye):    -1.96684869   -1.03676360   -1.13593670
              magnitude (Debye):     2.49674282


Final PES point is a local minimum. Geometry optimization successful!


AMS application finished. Exiting.
NORMAL TERMINATION
     Total cpu time:  122288.11
  Total system time:    3524.97
 Total elapsed time:  125810.36
