 Entering Gaussian System, Link 0=/home/pcmt/gaussian/g16.C.01/g16/g16
 AtFile(1): /home/shaaban/basis.gaussian/Pa-def-TZVP
 AtFile(1): /home/shaaban/basis.gaussian/Pa-ECP60MWB
 Initial command:
 /home/pcmt/gaussian/g16.C.01/g16/l1.exe "/state/partition2/shaaban/972845.phlam-s-sakura/Gau-145215.inp" -scrdir="/state/partition2/shaaban/972845.phlam-s-sakura/"
 Entering Link 1 = /home/pcmt/gaussian/g16.C.01/g16/l1.exe PID=    145224.
  
 Copyright (c) 1988-2019, Gaussian, Inc.  All Rights Reserved.
  
 This is part of the Gaussian(R) 16 program.  It is based on
 the Gaussian(R) 09 system (copyright 2009, Gaussian, Inc.),
 the Gaussian(R) 03 system (copyright 2003, Gaussian, Inc.),
 the Gaussian(R) 98 system (copyright 1998, Gaussian, Inc.),
 the Gaussian(R) 94 system (copyright 1995, Gaussian, Inc.),
 the Gaussian 92(TM) system (copyright 1992, Gaussian, Inc.),
 the Gaussian 90(TM) system (copyright 1990, Gaussian, Inc.),
 the Gaussian 88(TM) system (copyright 1988, Gaussian, Inc.),
 the Gaussian 86(TM) system (copyright 1986, Carnegie Mellon
 University), and the Gaussian 82(TM) system (copyright 1983,
 Carnegie Mellon University). Gaussian is a federally registered
 trademark of Gaussian, Inc.
  
 This software contains proprietary and confidential information,
 including trade secrets, belonging to Gaussian, Inc.
  
 This software is provided under written license and may be
 used, copied, transmitted, or stored only in accord with that
 written license.
  
 The following legend is applicable only to US Government
 contracts under FAR:
  
                    RESTRICTED RIGHTS LEGEND
  
 Use, reproduction and disclosure by the US Government is
 subject to restrictions as set forth in subparagraphs (a)
 and (c) of the Commercial Computer Software - Restricted
 Rights clause in FAR 52.227-19.
  
 Gaussian, Inc.
 340 Quinnipiac St., Bldg. 40, Wallingford CT 06492
  
  
 ---------------------------------------------------------------
 Warning -- This program may not be used in any manner that
 competes with the business of Gaussian, Inc. or will provide
 assistance to any competitor of Gaussian, Inc.  The licensee
 of this program is prohibited from giving any competitor of
 Gaussian, Inc. access to this program.  By using this program,
 the user acknowledges that Gaussian, Inc. is engaged in the
 business of creating and licensing software in the field of
 computational chemistry and represents and warrants to the
 licensee that it is not a competitor of Gaussian, Inc. and that
 it will not use this program in any manner prohibited above.
 ---------------------------------------------------------------
  

 Cite this work as:
 Gaussian 16, Revision C.01,
 M. J. Frisch, G. W. Trucks, H. B. Schlegel, G. E. Scuseria, 
 M. A. Robb, J. R. Cheeseman, G. Scalmani, V. Barone, 
 G. A. Petersson, H. Nakatsuji, X. Li, M. Caricato, A. V. Marenich, 
 J. Bloino, B. G. Janesko, R. Gomperts, B. Mennucci, H. P. Hratchian, 
 J. V. Ortiz, A. F. Izmaylov, J. L. Sonnenberg, D. Williams-Young, 
 F. Ding, F. Lipparini, F. Egidi, J. Goings, B. Peng, A. Petrone, 
 T. Henderson, D. Ranasinghe, V. G. Zakrzewski, J. Gao, N. Rega, 
 G. Zheng, W. Liang, M. Hada, M. Ehara, K. Toyota, R. Fukuda, 
 J. Hasegawa, M. Ishida, T. Nakajima, Y. Honda, O. Kitao, H. Nakai, 
 T. Vreven, K. Throssell, J. A. Montgomery, Jr., J. E. Peralta, 
 F. Ogliaro, M. J. Bearpark, J. J. Heyd, E. N. Brothers, K. N. Kudin, 
 V. N. Staroverov, T. A. Keith, R. Kobayashi, J. Normand, 
 K. Raghavachari, A. P. Rendell, J. C. Burant, S. S. Iyengar, 
 J. Tomasi, M. Cossi, J. M. Millam, M. Klene, C. Adamo, R. Cammi, 
 J. W. Ochterski, R. L. Martin, K. Morokuma, O. Farkas, 
 J. B. Foresman, and D. J. Fox, Gaussian, Inc., Wallingford CT, 2019.
 
 ******************************************
 Gaussian 16:  ES64L-G16RevC.01  3-Jul-2019
                 4-Jul-2023 
 ******************************************
 %mem=16Gb
 %NProc=8
 Will use up to    8 processors via shared memory.
 %chk=pa_oh4_f-bp86-cosmors-deftzvp-gp.chk
 ----------------------------------------------------------------------
 #p BP86/GEN Pseudo=Read GFInput GFPrint IOP(6/7=3) Symm=(Loose) Int=(U
 ltraFine) Guess=(Harris) Scf=(NoVarAcc,MaxCycle=100,conver=8)
 ----------------------------------------------------------------------
 1/38=1,172=1/1;
 2/12=2,17=4,18=3,40=1/2;
 3/5=7,11=2,16=1,17=8,24=110,25=1,30=1,74=404,75=-5/1,2,3;
 4/11=8/1;
 5/5=2,6=8,7=100,38=1/2;
 6/7=3,8=2,9=2,10=2,28=1/1;
 99/5=1,9=1/99;
 Leave Link    1 at Tue Jul  4 09:43:30 2023, MaxMem=  2147483648 cpu:               0.7 elap:               0.1
 (Enter /home/pcmt/gaussian/g16.C.01/g16/l101.exe)
 -----------------------------------------------------------
 pa_oh4_f-bp86-cosmors-deftzvp-gp.com SGP in PCM calculation
 -----------------------------------------------------------
 Symbolic Z-matrix:
 Charge =  0 Multiplicity = 1
 Pa                    0.53233   0.05164   0.26729 
 O                     1.40167   1.70134  -0.74663 
 H                     1.06236   2.35629  -1.36976 
 O                    -1.36935   0.94005   0.17127 
 H                    -2.07479   1.32576  -0.36025 
 O                     0.30295  -1.03212  -1.53444 
 H                    -0.11047  -1.8659   -1.78508 
 O                    -0.20722  -1.51218   1.49637 
 H                    -1.10688  -1.78134   1.72185 
 F                     2.51493  -0.65833   0.66295 
 
 ITRead=  0  0  0  0  0  0  0  0  0  0
 MicOpt= -1 -1 -1 -1 -1 -1 -1 -1 -1 -1
 NAtoms=     10 NQM=       10 NQMF=       0 NMMI=      0 NMMIF=      0
                NMic=       0 NMicF=      0.
                    Isotopes and Nuclear Properties:
 (Nuclear quadrupole moments (NQMom) in fm**2, nuclear magnetic moments (NMagM)
  in nuclear magnetons)

  Atom         1           2           3           4           5           6           7           8           9          10
 IAtWgt=         231          16           1          16           1          16           1          16           1          19
 AtmWgt= 231.0359000  15.9949146   1.0078250  15.9949146   1.0078250  15.9949146   1.0078250  15.9949146   1.0078250  18.9984032
 NucSpn=           3           0           1           0           1           0           1           0           1           1
 AtZEff=  -0.0000000  -0.0000000  -0.0000000  -0.0000000  -0.0000000  -0.0000000  -0.0000000  -0.0000000  -0.0000000  -0.0000000
 NQMom= -172.0000000   0.0000000   0.0000000   0.0000000   0.0000000   0.0000000   0.0000000   0.0000000   0.0000000   0.0000000
 NMagM=    2.0100000   0.0000000   2.7928460   0.0000000   2.7928460   0.0000000   2.7928460   0.0000000   2.7928460   2.6288670
 AtZNuc=  91.0000000   8.0000000   1.0000000   8.0000000   1.0000000   8.0000000   1.0000000   8.0000000   1.0000000   9.0000000
 Leave Link  101 at Tue Jul  4 09:43:31 2023, MaxMem=  2147483648 cpu:               0.8 elap:               0.1
 (Enter /home/pcmt/gaussian/g16.C.01/g16/l202.exe)
                          Input orientation:                          
 ---------------------------------------------------------------------
 Center     Atomic      Atomic             Coordinates (Angstroms)
 Number     Number       Type             X           Y           Z
 ---------------------------------------------------------------------
      1         91           0        0.532328    0.051643    0.267288
      2          8           0        1.401667    1.701337   -0.746625
      3          1           0        1.062365    2.356287   -1.369761
      4          8           0       -1.369353    0.940054    0.171275
      5          1           0       -2.074789    1.325756   -0.360254
      6          8           0        0.302949   -1.032121   -1.534437
      7          1           0       -0.110469   -1.865900   -1.785083
      8          8           0       -0.207223   -1.512184    1.496372
      9          1           0       -1.106881   -1.781338    1.721854
     10          9           0        2.514928   -0.658332    0.662951
 ---------------------------------------------------------------------
                    Distance matrix (angstroms):
                    1          2          3          4          5
     1  Pa   0.000000
     2  O    2.122560   0.000000
     3  H    2.876152   0.965600   0.000000
     4  O    2.101162   3.016727   3.208388   0.000000
     5  H    2.968878   3.517967   3.452945   0.963810   0.000000
     6  O    2.115034   3.049527   3.476368   3.097663   3.548511
     7  H    2.881386   4.011250   4.401692   3.644928   4.009409
     8  O    2.122060   4.236305   4.979120   3.019917   3.871533
     9  H    2.857025   4.951286   5.602111   3.143114   3.863426
    10  F    2.142735   2.965518   3.915327   4.228974   5.103828
                    6          7          8          9         10
     6  O    0.000000
     7  H    0.963808   0.000000
     8  O    3.110713   3.301881   0.000000
     9  H    3.626621   3.646724   0.965748   0.000000
    10  F    3.140236   3.787321   2.972164   3.936993   0.000000
 Stoichiometry    FH4O4Pa
 Framework group  C1[X(FH4O4Pa)]
 Deg. of freedom    24
 Full point group                 C1      NOp   1
 Largest Abelian subgroup         C1      NOp   1
 Largest concise Abelian subgroup C1      NOp   1
                         Standard orientation:                         
 ---------------------------------------------------------------------
 Center     Atomic      Atomic             Coordinates (Angstroms)
 Number     Number       Type             X           Y           Z
 ---------------------------------------------------------------------
      1         91           0        0.002495   -0.010468   -0.109660
      2          8           0       -2.039395   -0.582375   -0.203826
      3          1           0       -2.869072   -0.131657   -0.001656
      4          8           0       -0.508798    2.012925   -0.353259
      5          1           0       -1.012310    2.779068   -0.055887
      6          8           0       -0.035969    0.059490    2.003867
      7          1           0        0.580979    0.332605    2.692132
      8          8           0        2.070177    0.444908   -0.252711
      9          1           0        2.546265    1.284800   -0.228410
     10          9           0        0.515444   -2.087975   -0.219963
 ---------------------------------------------------------------------
 Rotational constants (GHZ):           2.1187485           2.0610255           1.5491306
 Leave Link  202 at Tue Jul  4 09:43:31 2023, MaxMem=  2147483648 cpu:               0.1 elap:               0.1
 (Enter /home/pcmt/gaussian/g16.C.01/g16/l301.exe)
 General basis read from cards:  (5D, 7F)
 Centers:       1
 S 3 1.00
     Exponent=  1.2047376000D+04 Coefficients=  3.4500000000D-04
     Exponent=  1.8116841000D+03 Coefficients=  2.7420000000D-03
     Exponent=  3.4770104000D+02 Coefficients=  1.0053000000D-02
 S 1 1.00
     Exponent=  9.8678010000D+01 Coefficients=  1.0000000000D+00
 S 3 1.00
     Exponent=  5.7507376000D+01 Coefficients=  5.1528000000D-02
     Exponent=  3.3502601000D+01 Coefficients= -2.3692400000D-01
     Exponent=  1.9554451000D+01 Coefficients=  7.1904800000D-01
 S 1 1.00
     Exponent=  9.7164210000D+00 Coefficients=  1.0000000000D+00
 S 1 1.00
     Exponent=  2.6920960000D+00 Coefficients=  1.0000000000D+00
 S 1 1.00
     Exponent=  1.4538470000D+00 Coefficients=  1.0000000000D+00
 S 1 1.00
     Exponent=  5.7435200000D-01 Coefficients=  1.0000000000D+00
 S 1 1.00
     Exponent=  2.6346800000D-01 Coefficients=  1.0000000000D+00
 S 1 1.00
     Exponent=  5.6557000000D-02 Coefficients=  1.0000000000D+00
 S 1 1.00
     Exponent=  2.3169000000D-02 Coefficients=  1.0000000000D+00
 P 5 1.00
     Exponent=  2.9033676000D+03 Coefficients=  3.5000000000D-05
     Exponent=  6.4486356000D+02 Coefficients=  2.0500000000D-04
     Exponent=  2.2025896000D+02 Coefficients=  1.2510000000D-03
     Exponent=  8.0276401000D+01 Coefficients=  2.4570000000D-03
     Exponent=  2.4080211000D+01 Coefficients=  1.1190000000D-02
 P 1 1.00
     Exponent=  1.4077580000D+01 Coefficients=  1.0000000000D+00
 P 1 1.00
     Exponent=  8.2658460000D+00 Coefficients=  1.0000000000D+00
 P 1 1.00
     Exponent=  3.5948000000D+00 Coefficients=  1.0000000000D+00
 P 1 1.00
     Exponent=  1.7531110000D+00 Coefficients=  1.0000000000D+00
 P 1 1.00
     Exponent=  6.5776700000D-01 Coefficients=  1.0000000000D+00
 P 1 1.00
     Exponent=  2.8463900000D-01 Coefficients=  1.0000000000D+00
 P 1 1.00
     Exponent=  1.0054300000D-01 Coefficients=  1.0000000000D+00
 P 1 1.00
     Exponent=  3.0190000000D-02 Coefficients=  1.0000000000D+00
 D 6 1.00
     Exponent=  4.4814991000D+02 Coefficients=  2.6000000000D-05
     Exponent=  1.5446145000D+02 Coefficients=  2.2800000000D-04
     Exponent=  6.0925377000D+01 Coefficients=  9.0400000000D-04
     Exponent=  1.7032091000D+01 Coefficients=  2.5647000000D-02
     Exponent=  1.0018877000D+01 Coefficients= -1.0575100000D-01
     Exponent=  3.4091930000D+00 Coefficients=  4.4743200000D-01
 D 1 1.00
     Exponent=  1.6702130000D+00 Coefficients=  1.0000000000D+00
 D 1 1.00
     Exponent=  7.4109500000D-01 Coefficients=  1.0000000000D+00
 D 1 1.00
     Exponent=  2.6139300000D-01 Coefficients=  1.0000000000D+00
 D 1 1.00
     Exponent=  8.2811000000D-02 Coefficients=  1.0000000000D+00
 F 5 1.00
     Exponent=  8.7991327000D+01 Coefficients=  2.2600000000D-04
     Exponent=  2.8340195000D+01 Coefficients=  2.3230000000D-03
     Exponent=  1.2440994000D+01 Coefficients=  4.5850000000D-03
     Exponent=  3.9572960000D+00 Coefficients=  1.5696100000D-01
     Exponent=  1.8759440000D+00 Coefficients=  3.4497700000D-01
 F 1 1.00
     Exponent=  8.2758900000D-01 Coefficients=  1.0000000000D+00
 F 1 1.00
     Exponent=  3.3274800000D-01 Coefficients=  1.0000000000D+00
 F 1 1.00
     Exponent=  1.1468500000D-01 Coefficients=  1.0000000000D+00
 G 1 1.00
     Exponent=  3.5000000000D-01 Coefficients=  1.0000000000D+00
 ****
 Centers:       2      4      6      8
 Def2TZVP
 ****
 Centers:       3      5      7      9
 Def2TZVP
 ****
 Centers:      10
 Def2TZVP
 ****
 ======================================================================================================
                                       Pseudopotential Parameters
 ======================================================================================================
  Center     Atomic      Valence      Angular      Power
  Number     Number     Electrons     Momentum     of R      Exponent        Coefficient   SO-Coeffient
 ======================================================================================================
    1         91           31
                                      H and up 
                                                     2        1.0000000        0.00000000    0.00000000
                                      S - H
                                                     2       15.2691737      475.47573283    0.00000000
                                      P - H
                                                     2        9.9577370      207.66485962    0.00000000
                                      D - H
                                                     2        8.9431413      156.67411988    0.00000000
                                      F - H
                                                     2        7.0104666       67.98223685    0.00000000
                                      G - H
                                                     2       12.2010560      -57.63059989    0.00000000
    2          8
                                   No pseudopotential on this center.
    3          1
                                   No pseudopotential on this center.
    4          8
                                   No pseudopotential on this center.
    5          1
                                   No pseudopotential on this center.
    6          8
                                   No pseudopotential on this center.
    7          1
                                   No pseudopotential on this center.
    8          8
                                   No pseudopotential on this center.
    9          1
                                   No pseudopotential on this center.
   10          9
                                   No pseudopotential on this center.
 ======================================================================================================
 Ernie: Thresh=  0.10000D-02 Tol=  0.10000D-05 Strict=F.
 AO basis set in the form of general basis input (Overlap normalization):
      1 0
 S   3 1.00       0.000000000000
      0.1204737600D+05  0.2857094961D-01
      0.1811684100D+04  0.2270769386D+00
      0.3477010400D+03  0.8325326273D+00
 S   3 1.00       0.000000000000
      0.5750737600D+02  0.9569327984D-01
      0.3350260100D+02 -0.4399944619D+00
      0.1955445100D+02  0.1335352847D+01
 S   1 1.00       0.000000000000
      0.9867801000D+02  0.1000000000D+01
 S   1 1.00       0.000000000000
      0.9716421000D+01  0.1000000000D+01
 S   1 1.00       0.000000000000
      0.2692096000D+01  0.1000000000D+01
 S   1 1.00       0.000000000000
      0.1453847000D+01  0.1000000000D+01
 S   1 1.00       0.000000000000
      0.5743520000D+00  0.1000000000D+01
 S   1 1.00       0.000000000000
      0.2634680000D+00  0.1000000000D+01
 S   1 1.00       0.000000000000
      0.5655700000D-01  0.1000000000D+01
 S   1 1.00       0.000000000000
      0.2316900000D-01  0.1000000000D+01
 P   5 1.00       0.000000000000
      0.2903367600D+04  0.2594222647D-02
      0.6448635600D+03  0.1519473264D-01
      0.2202589600D+03  0.9272492945D-01
      0.8027640100D+02  0.1821144298D+00
      0.2408021100D+02  0.8294100404D+00
 P   1 1.00       0.000000000000
      0.1407758000D+02  0.1000000000D+01
 P   1 1.00       0.000000000000
      0.8265846000D+01  0.1000000000D+01
 P   1 1.00       0.000000000000
      0.3594800000D+01  0.1000000000D+01
 P   1 1.00       0.000000000000
      0.1753111000D+01  0.1000000000D+01
 P   1 1.00       0.000000000000
      0.6577670000D+00  0.1000000000D+01
 P   1 1.00       0.000000000000
      0.2846390000D+00  0.1000000000D+01
 P   1 1.00       0.000000000000
      0.1005430000D+00  0.1000000000D+01
 P   1 1.00       0.000000000000
      0.3019000000D-01  0.1000000000D+01
 D   6 1.00       0.000000000000
      0.4481499100D+03  0.6556927566D-04
      0.1544614500D+03  0.5749921096D-03
      0.6092537700D+02  0.2279793277D-02
      0.1703209100D+02  0.6467904664D-01
      0.1001887700D+02 -0.2666929411D+00
      0.3409193000D+01  0.1128376621D+01
 D   1 1.00       0.000000000000
      0.1670213000D+01  0.1000000000D+01
 D   1 1.00       0.000000000000
      0.7410950000D+00  0.1000000000D+01
 D   1 1.00       0.000000000000
      0.2613930000D+00  0.1000000000D+01
 D   1 1.00       0.000000000000
      0.8281100000D-01  0.1000000000D+01
 F   5 1.00       0.000000000000
      0.8799132700D+02  0.4766318191D-03
      0.2834019500D+02  0.4899184583D-02
      0.1244099400D+02  0.9669720755D-02
      0.3957296000D+01  0.3310292343D+00
      0.1875944000D+01  0.7275531640D+00
 F   1 1.00       0.000000000000
      0.8275890000D+00  0.1000000000D+01
 F   1 1.00       0.000000000000
      0.3327480000D+00  0.1000000000D+01
 F   1 1.00       0.000000000000
      0.1146850000D+00  0.1000000000D+01
 G   1 1.00       0.000000000000
      0.3500000000D+00  0.1000000000D+01
 ****
      2 0
 S   6 1.00       0.000000000000
      0.2703238263D+05  0.5722733521D-03
      0.4052387139D+04  0.4435323349D-02
      0.9223272271D+03  0.2302010771D-01
      0.2612407099D+03  0.9282249067D-01
      0.8535464135D+02  0.2937850001D+00
      0.3103503524D+02  0.6740160450D+00
 S   2 1.00       0.000000000000
      0.1226086073D+02  0.6383993703D+00
      0.4998707601D+01  0.3953458713D+00
 S   1 1.00       0.000000000000
      0.1170310816D+01  0.1000000000D+01
 S   1 1.00       0.000000000000
      0.4647474099D+00  0.1000000000D+01
 S   1 1.00       0.000000000000
      0.1850453636D+00  0.1000000000D+01
 P   4 1.00       0.000000000000
      0.6327495480D+02  0.1201833222D-01
      0.1462704938D+02  0.8300542179D-01
      0.4450122346D+01  0.3199174393D+00
      0.1527579965D+01  0.7071554292D+00
 P   1 1.00       0.000000000000
      0.5293511794D+00  0.1000000000D+01
 P   1 1.00       0.000000000000
      0.1747842127D+00  0.1000000000D+01
 D   1 1.00       0.000000000000
      0.2314000000D+01  0.1000000000D+01
 D   1 1.00       0.000000000000
      0.6450000000D+00  0.1000000000D+01
 F   1 1.00       0.000000000000
      0.1428000000D+01  0.1000000000D+01
 ****
      3 0
 S   3 1.00       0.000000000000
      0.3406134100D+02  0.2543930721D-01
      0.5123574600D+01  0.1900859489D+00
      0.1164662600D+01  0.8524411301D+00
 S   1 1.00       0.000000000000
      0.3272304100D+00  0.1000000000D+01
 S   1 1.00       0.000000000000
      0.1030724100D+00  0.1000000000D+01
 P   1 1.00       0.000000000000
      0.8000000000D+00  0.1000000000D+01
 ****
      4 0
 S   6 1.00       0.000000000000
      0.2703238263D+05  0.5722733521D-03
      0.4052387139D+04  0.4435323349D-02
      0.9223272271D+03  0.2302010771D-01
      0.2612407099D+03  0.9282249067D-01
      0.8535464135D+02  0.2937850001D+00
      0.3103503524D+02  0.6740160450D+00
 S   2 1.00       0.000000000000
      0.1226086073D+02  0.6383993703D+00
      0.4998707601D+01  0.3953458713D+00
 S   1 1.00       0.000000000000
      0.1170310816D+01  0.1000000000D+01
 S   1 1.00       0.000000000000
      0.4647474099D+00  0.1000000000D+01
 S   1 1.00       0.000000000000
      0.1850453636D+00  0.1000000000D+01
 P   4 1.00       0.000000000000
      0.6327495480D+02  0.1201833222D-01
      0.1462704938D+02  0.8300542179D-01
      0.4450122346D+01  0.3199174393D+00
      0.1527579965D+01  0.7071554292D+00
 P   1 1.00       0.000000000000
      0.5293511794D+00  0.1000000000D+01
 P   1 1.00       0.000000000000
      0.1747842127D+00  0.1000000000D+01
 D   1 1.00       0.000000000000
      0.2314000000D+01  0.1000000000D+01
 D   1 1.00       0.000000000000
      0.6450000000D+00  0.1000000000D+01
 F   1 1.00       0.000000000000
      0.1428000000D+01  0.1000000000D+01
 ****
      5 0
 S   3 1.00       0.000000000000
      0.3406134100D+02  0.2543930721D-01
      0.5123574600D+01  0.1900859489D+00
      0.1164662600D+01  0.8524411301D+00
 S   1 1.00       0.000000000000
      0.3272304100D+00  0.1000000000D+01
 S   1 1.00       0.000000000000
      0.1030724100D+00  0.1000000000D+01
 P   1 1.00       0.000000000000
      0.8000000000D+00  0.1000000000D+01
 ****
      6 0
 S   6 1.00       0.000000000000
      0.2703238263D+05  0.5722733521D-03
      0.4052387139D+04  0.4435323349D-02
      0.9223272271D+03  0.2302010771D-01
      0.2612407099D+03  0.9282249067D-01
      0.8535464135D+02  0.2937850001D+00
      0.3103503524D+02  0.6740160450D+00
 S   2 1.00       0.000000000000
      0.1226086073D+02  0.6383993703D+00
      0.4998707601D+01  0.3953458713D+00
 S   1 1.00       0.000000000000
      0.1170310816D+01  0.1000000000D+01
 S   1 1.00       0.000000000000
      0.4647474099D+00  0.1000000000D+01
 S   1 1.00       0.000000000000
      0.1850453636D+00  0.1000000000D+01
 P   4 1.00       0.000000000000
      0.6327495480D+02  0.1201833222D-01
      0.1462704938D+02  0.8300542179D-01
      0.4450122346D+01  0.3199174393D+00
      0.1527579965D+01  0.7071554292D+00
 P   1 1.00       0.000000000000
      0.5293511794D+00  0.1000000000D+01
 P   1 1.00       0.000000000000
      0.1747842127D+00  0.1000000000D+01
 D   1 1.00       0.000000000000
      0.2314000000D+01  0.1000000000D+01
 D   1 1.00       0.000000000000
      0.6450000000D+00  0.1000000000D+01
 F   1 1.00       0.000000000000
      0.1428000000D+01  0.1000000000D+01
 ****
      7 0
 S   3 1.00       0.000000000000
      0.3406134100D+02  0.2543930721D-01
      0.5123574600D+01  0.1900859489D+00
      0.1164662600D+01  0.8524411301D+00
 S   1 1.00       0.000000000000
      0.3272304100D+00  0.1000000000D+01
 S   1 1.00       0.000000000000
      0.1030724100D+00  0.1000000000D+01
 P   1 1.00       0.000000000000
      0.8000000000D+00  0.1000000000D+01
 ****
      8 0
 S   6 1.00       0.000000000000
      0.2703238263D+05  0.5722733521D-03
      0.4052387139D+04  0.4435323349D-02
      0.9223272271D+03  0.2302010771D-01
      0.2612407099D+03  0.9282249067D-01
      0.8535464135D+02  0.2937850001D+00
      0.3103503524D+02  0.6740160450D+00
 S   2 1.00       0.000000000000
      0.1226086073D+02  0.6383993703D+00
      0.4998707601D+01  0.3953458713D+00
 S   1 1.00       0.000000000000
      0.1170310816D+01  0.1000000000D+01
 S   1 1.00       0.000000000000
      0.4647474099D+00  0.1000000000D+01
 S   1 1.00       0.000000000000
      0.1850453636D+00  0.1000000000D+01
 P   4 1.00       0.000000000000
      0.6327495480D+02  0.1201833222D-01
      0.1462704938D+02  0.8300542179D-01
      0.4450122346D+01  0.3199174393D+00
      0.1527579965D+01  0.7071554292D+00
 P   1 1.00       0.000000000000
      0.5293511794D+00  0.1000000000D+01
 P   1 1.00       0.000000000000
      0.1747842127D+00  0.1000000000D+01
 D   1 1.00       0.000000000000
      0.2314000000D+01  0.1000000000D+01
 D   1 1.00       0.000000000000
      0.6450000000D+00  0.1000000000D+01
 F   1 1.00       0.000000000000
      0.1428000000D+01  0.1000000000D+01
 ****
      9 0
 S   3 1.00       0.000000000000
      0.3406134100D+02  0.2543930721D-01
      0.5123574600D+01  0.1900859489D+00
      0.1164662600D+01  0.8524411301D+00
 S   1 1.00       0.000000000000
      0.3272304100D+00  0.1000000000D+01
 S   1 1.00       0.000000000000
      0.1030724100D+00  0.1000000000D+01
 P   1 1.00       0.000000000000
      0.8000000000D+00  0.1000000000D+01
 ****
     10 0
 S   6 1.00       0.000000000000
      0.3547910044D+05  0.5618499111D-03
      0.5318472898D+04  0.4355197381D-02
      0.1210481098D+04  0.2261824715D-01
      0.3428551814D+03  0.9140305514D-01
      0.1120194318D+03  0.2911687069D+00
      0.4071474025D+02  0.6777270856D+00
 S   2 1.00       0.000000000000
      0.1603967811D+02  0.6329641788D+00
      0.6503818674D+01  0.4013647573D+00
 S   1 1.00       0.000000000000
      0.1544047751D+01  0.1000000000D+01
 S   1 1.00       0.000000000000
      0.6122345286D+00  0.1000000000D+01
 S   1 1.00       0.000000000000
      0.2402797970D+00  0.1000000000D+01
 P   4 1.00       0.000000000000
      0.8023390048D+02  0.1232134514D-01
      0.1859401074D+02  0.8571339535D-01
      0.5686790265D+01  0.3263310550D+00
      0.1951100629D+01  0.6997111464D+00
 P   1 1.00       0.000000000000
      0.6697021130D+00  0.1000000000D+01
 P   1 1.00       0.000000000000
      0.2165130041D+00  0.1000000000D+01
 D   1 1.00       0.000000000000
      0.3107000000D+01  0.1000000000D+01
 D   1 1.00       0.000000000000
      0.8550000000D+00  0.1000000000D+01
 F   1 1.00       0.000000000000
      0.1917000000D+01  0.1000000000D+01
 ****

 AO basis set (Overlap normalization):
 Atom Pa1      Shell     1 S   3     bf    1 -     1          0.004714542193         -0.019782558575         -0.207227728745
      0.1204737600D+05  0.2857094961D-01
      0.1811684100D+04  0.2270769386D+00
      0.3477010400D+03  0.8325326273D+00
 Atom Pa1      Shell     2 S   3     bf    2 -     2          0.004714542193         -0.019782558575         -0.207227728745
      0.5750737600D+02  0.9569327984D-01
      0.3350260100D+02 -0.4399944619D+00
      0.1955445100D+02  0.1335352847D+01
 Atom Pa1      Shell     3 S   1     bf    3 -     3          0.004714542193         -0.019782558575         -0.207227728745
      0.9867801000D+02  0.1000000000D+01
 Atom Pa1      Shell     4 S   1     bf    4 -     4          0.004714542193         -0.019782558575         -0.207227728745
      0.9716421000D+01  0.1000000000D+01
 Atom Pa1      Shell     5 S   1     bf    5 -     5          0.004714542193         -0.019782558575         -0.207227728745
      0.2692096000D+01  0.1000000000D+01
 Atom Pa1      Shell     6 S   1     bf    6 -     6          0.004714542193         -0.019782558575         -0.207227728745
      0.1453847000D+01  0.1000000000D+01
 Atom Pa1      Shell     7 S   1     bf    7 -     7          0.004714542193         -0.019782558575         -0.207227728745
      0.5743520000D+00  0.1000000000D+01
 Atom Pa1      Shell     8 S   1     bf    8 -     8          0.004714542193         -0.019782558575         -0.207227728745
      0.2634680000D+00  0.1000000000D+01
 Atom Pa1      Shell     9 S   1     bf    9 -     9          0.004714542193         -0.019782558575         -0.207227728745
      0.5655700000D-01  0.1000000000D+01
 Atom Pa1      Shell    10 S   1     bf   10 -    10          0.004714542193         -0.019782558575         -0.207227728745
      0.2316900000D-01  0.1000000000D+01
 Atom Pa1      Shell    11 P   5     bf   11 -    13          0.004714542193         -0.019782558575         -0.207227728745
      0.2903367600D+04  0.2594222647D-02
      0.6448635600D+03  0.1519473264D-01
      0.2202589600D+03  0.9272492945D-01
      0.8027640100D+02  0.1821144298D+00
      0.2408021100D+02  0.8294100404D+00
 Atom Pa1      Shell    12 P   1     bf   14 -    16          0.004714542193         -0.019782558575         -0.207227728745
      0.1407758000D+02  0.1000000000D+01
 Atom Pa1      Shell    13 P   1     bf   17 -    19          0.004714542193         -0.019782558575         -0.207227728745
      0.8265846000D+01  0.1000000000D+01
 Atom Pa1      Shell    14 P   1     bf   20 -    22          0.004714542193         -0.019782558575         -0.207227728745
      0.3594800000D+01  0.1000000000D+01
 Atom Pa1      Shell    15 P   1     bf   23 -    25          0.004714542193         -0.019782558575         -0.207227728745
      0.1753111000D+01  0.1000000000D+01
 Atom Pa1      Shell    16 P   1     bf   26 -    28          0.004714542193         -0.019782558575         -0.207227728745
      0.6577670000D+00  0.1000000000D+01
 Atom Pa1      Shell    17 P   1     bf   29 -    31          0.004714542193         -0.019782558575         -0.207227728745
      0.2846390000D+00  0.1000000000D+01
 Atom Pa1      Shell    18 P   1     bf   32 -    34          0.004714542193         -0.019782558575         -0.207227728745
      0.1005430000D+00  0.1000000000D+01
 Atom Pa1      Shell    19 P   1     bf   35 -    37          0.004714542193         -0.019782558575         -0.207227728745
      0.3019000000D-01  0.1000000000D+01
 Atom Pa1      Shell    20 D   6     bf   38 -    42          0.004714542193         -0.019782558575         -0.207227728745
      0.4481499100D+03  0.6556927566D-04
      0.1544614500D+03  0.5749921096D-03
      0.6092537700D+02  0.2279793277D-02
      0.1703209100D+02  0.6467904664D-01
      0.1001887700D+02 -0.2666929411D+00
      0.3409193000D+01  0.1128376621D+01
 Atom Pa1      Shell    21 D   1     bf   43 -    47          0.004714542193         -0.019782558575         -0.207227728745
      0.1670213000D+01  0.1000000000D+01
 Atom Pa1      Shell    22 D   1     bf   48 -    52          0.004714542193         -0.019782558575         -0.207227728745
      0.7410950000D+00  0.1000000000D+01
 Atom Pa1      Shell    23 D   1     bf   53 -    57          0.004714542193         -0.019782558575         -0.207227728745
      0.2613930000D+00  0.1000000000D+01
 Atom Pa1      Shell    24 D   1     bf   58 -    62          0.004714542193         -0.019782558575         -0.207227728745
      0.8281100000D-01  0.1000000000D+01
 Atom Pa1      Shell    25 F   5     bf   63 -    69          0.004714542193         -0.019782558575         -0.207227728745
      0.8799132700D+02  0.4766318191D-03
      0.2834019500D+02  0.4899184583D-02
      0.1244099400D+02  0.9669720755D-02
      0.3957296000D+01  0.3310292343D+00
      0.1875944000D+01  0.7275531640D+00
 Atom Pa1      Shell    26 F   1     bf   70 -    76          0.004714542193         -0.019782558575         -0.207227728745
      0.8275890000D+00  0.1000000000D+01
 Atom Pa1      Shell    27 F   1     bf   77 -    83          0.004714542193         -0.019782558575         -0.207227728745
      0.3327480000D+00  0.1000000000D+01
 Atom Pa1      Shell    28 F   1     bf   84 -    90          0.004714542193         -0.019782558575         -0.207227728745
      0.1146850000D+00  0.1000000000D+01
 Atom Pa1      Shell    29 G   1     bf   91 -    99          0.004714542193         -0.019782558575         -0.207227728745
      0.3500000000D+00  0.1000000000D+01
 Atom O2       Shell    30 S   6     bf  100 -   100         -3.853898777641         -1.100529203185         -0.385176033264
      0.2703238263D+05  0.5722733521D-03
      0.4052387139D+04  0.4435323349D-02
      0.9223272271D+03  0.2302010771D-01
      0.2612407099D+03  0.9282249067D-01
      0.8535464135D+02  0.2937850001D+00
      0.3103503524D+02  0.6740160450D+00
 Atom O2       Shell    31 S   2     bf  101 -   101         -3.853898777641         -1.100529203185         -0.385176033264
      0.1226086073D+02  0.6383993703D+00
      0.4998707601D+01  0.3953458713D+00
 Atom O2       Shell    32 S   1     bf  102 -   102         -3.853898777641         -1.100529203185         -0.385176033264
      0.1170310816D+01  0.1000000000D+01
 Atom O2       Shell    33 S   1     bf  103 -   103         -3.853898777641         -1.100529203185         -0.385176033264
      0.4647474099D+00  0.1000000000D+01
 Atom O2       Shell    34 S   1     bf  104 -   104         -3.853898777641         -1.100529203185         -0.385176033264
      0.1850453636D+00  0.1000000000D+01
 Atom O2       Shell    35 P   4     bf  105 -   107         -3.853898777641         -1.100529203185         -0.385176033264
      0.6327495480D+02  0.1201833222D-01
      0.1462704938D+02  0.8300542179D-01
      0.4450122346D+01  0.3199174393D+00
      0.1527579965D+01  0.7071554292D+00
 Atom O2       Shell    36 P   1     bf  108 -   110         -3.853898777641         -1.100529203185         -0.385176033264
      0.5293511794D+00  0.1000000000D+01
 Atom O2       Shell    37 P   1     bf  111 -   113         -3.853898777641         -1.100529203185         -0.385176033264
      0.1747842127D+00  0.1000000000D+01
 Atom O2       Shell    38 D   1     bf  114 -   118         -3.853898777641         -1.100529203185         -0.385176033264
      0.2314000000D+01  0.1000000000D+01
 Atom O2       Shell    39 D   1     bf  119 -   123         -3.853898777641         -1.100529203185         -0.385176033264
      0.6450000000D+00  0.1000000000D+01
 Atom O2       Shell    40 F   1     bf  124 -   130         -3.853898777641         -1.100529203185         -0.385176033264
      0.1428000000D+01  0.1000000000D+01
 Atom H3       Shell    41 S   3     bf  131 -   131         -5.421761015463         -0.248796068113         -0.003130283565
      0.3406134100D+02  0.2543930721D-01
      0.5123574600D+01  0.1900859489D+00
      0.1164662600D+01  0.8524411301D+00
 Atom H3       Shell    42 S   1     bf  132 -   132         -5.421761015463         -0.248796068113         -0.003130283565
      0.3272304100D+00  0.1000000000D+01
 Atom H3       Shell    43 S   1     bf  133 -   133         -5.421761015463         -0.248796068113         -0.003130283565
      0.1030724100D+00  0.1000000000D+01
 Atom H3       Shell    44 P   1     bf  134 -   136         -5.421761015463         -0.248796068113         -0.003130283565
      0.8000000000D+00  0.1000000000D+01
 Atom O4       Shell    45 S   6     bf  137 -   137         -0.961488876536          3.803877560303         -0.667562587697
      0.2703238263D+05  0.5722733521D-03
      0.4052387139D+04  0.4435323349D-02
      0.9223272271D+03  0.2302010771D-01
      0.2612407099D+03  0.9282249067D-01
      0.8535464135D+02  0.2937850001D+00
      0.3103503524D+02  0.6740160450D+00
 Atom O4       Shell    46 S   2     bf  138 -   138         -0.961488876536          3.803877560303         -0.667562587697
      0.1226086073D+02  0.6383993703D+00
      0.4998707601D+01  0.3953458713D+00
 Atom O4       Shell    47 S   1     bf  139 -   139         -0.961488876536          3.803877560303         -0.667562587697
      0.1170310816D+01  0.1000000000D+01
 Atom O4       Shell    48 S   1     bf  140 -   140         -0.961488876536          3.803877560303         -0.667562587697
      0.4647474099D+00  0.1000000000D+01
 Atom O4       Shell    49 S   1     bf  141 -   141         -0.961488876536          3.803877560303         -0.667562587697
      0.1850453636D+00  0.1000000000D+01
 Atom O4       Shell    50 P   4     bf  142 -   144         -0.961488876536          3.803877560303         -0.667562587697
      0.6327495480D+02  0.1201833222D-01
      0.1462704938D+02  0.8300542179D-01
      0.4450122346D+01  0.3199174393D+00
      0.1527579965D+01  0.7071554292D+00
 Atom O4       Shell    51 P   1     bf  145 -   147         -0.961488876536          3.803877560303         -0.667562587697
      0.5293511794D+00  0.1000000000D+01
 Atom O4       Shell    52 P   1     bf  148 -   150         -0.961488876536          3.803877560303         -0.667562587697
      0.1747842127D+00  0.1000000000D+01
 Atom O4       Shell    53 D   1     bf  151 -   155         -0.961488876536          3.803877560303         -0.667562587697
      0.2314000000D+01  0.1000000000D+01
 Atom O4       Shell    54 D   1     bf  156 -   160         -0.961488876536          3.803877560303         -0.667562587697
      0.6450000000D+00  0.1000000000D+01
 Atom O4       Shell    55 F   1     bf  161 -   167         -0.961488876536          3.803877560303         -0.667562587697
      0.1428000000D+01  0.1000000000D+01
 Atom H5       Shell    56 S   3     bf  168 -   168         -1.912987768772          5.251678098712         -0.105610616677
      0.3406134100D+02  0.2543930721D-01
      0.5123574600D+01  0.1900859489D+00
      0.1164662600D+01  0.8524411301D+00
 Atom H5       Shell    57 S   1     bf  169 -   169         -1.912987768772          5.251678098712         -0.105610616677
      0.3272304100D+00  0.1000000000D+01
 Atom H5       Shell    58 S   1     bf  170 -   170         -1.912987768772          5.251678098712         -0.105610616677
      0.1030724100D+00  0.1000000000D+01
 Atom H5       Shell    59 P   1     bf  171 -   173         -1.912987768772          5.251678098712         -0.105610616677
      0.8000000000D+00  0.1000000000D+01
 Atom O6       Shell    60 S   6     bf  174 -   174         -0.067971630177          0.112420417459          3.786759345497
      0.2703238263D+05  0.5722733521D-03
      0.4052387139D+04  0.4435323349D-02
      0.9223272271D+03  0.2302010771D-01
      0.2612407099D+03  0.9282249067D-01
      0.8535464135D+02  0.2937850001D+00
      0.3103503524D+02  0.6740160450D+00
 Atom O6       Shell    61 S   2     bf  175 -   175         -0.067971630177          0.112420417459          3.786759345497
      0.1226086073D+02  0.6383993703D+00
      0.4998707601D+01  0.3953458713D+00
 Atom O6       Shell    62 S   1     bf  176 -   176         -0.067971630177          0.112420417459          3.786759345497
      0.1170310816D+01  0.1000000000D+01
 Atom O6       Shell    63 S   1     bf  177 -   177         -0.067971630177          0.112420417459          3.786759345497
      0.4647474099D+00  0.1000000000D+01
 Atom O6       Shell    64 S   1     bf  178 -   178         -0.067971630177          0.112420417459          3.786759345497
      0.1850453636D+00  0.1000000000D+01
 Atom O6       Shell    65 P   4     bf  179 -   181         -0.067971630177          0.112420417459          3.786759345497
      0.6327495480D+02  0.1201833222D-01
      0.1462704938D+02  0.8300542179D-01
      0.4450122346D+01  0.3199174393D+00
      0.1527579965D+01  0.7071554292D+00
 Atom O6       Shell    66 P   1     bf  182 -   184         -0.067971630177          0.112420417459          3.786759345497
      0.5293511794D+00  0.1000000000D+01
 Atom O6       Shell    67 P   1     bf  185 -   187         -0.067971630177          0.112420417459          3.786759345497
      0.1747842127D+00  0.1000000000D+01
 Atom O6       Shell    68 D   1     bf  188 -   192         -0.067971630177          0.112420417459          3.786759345497
      0.2314000000D+01  0.1000000000D+01
 Atom O6       Shell    69 D   1     bf  193 -   197         -0.067971630177          0.112420417459          3.786759345497
      0.6450000000D+00  0.1000000000D+01
 Atom O6       Shell    70 F   1     bf  198 -   204         -0.067971630177          0.112420417459          3.786759345497
      0.1428000000D+01  0.1000000000D+01
 Atom H7       Shell    71 S   3     bf  205 -   205          1.097891345411          0.628532165351          5.087392455228
      0.3406134100D+02  0.2543930721D-01
      0.5123574600D+01  0.1900859489D+00
      0.1164662600D+01  0.8524411301D+00
 Atom H7       Shell    72 S   1     bf  206 -   206          1.097891345411          0.628532165351          5.087392455228
      0.3272304100D+00  0.1000000000D+01
 Atom H7       Shell    73 S   1     bf  207 -   207          1.097891345411          0.628532165351          5.087392455228
      0.1030724100D+00  0.1000000000D+01
 Atom H7       Shell    74 P   1     bf  208 -   210          1.097891345411          0.628532165351          5.087392455228
      0.8000000000D+00  0.1000000000D+01
 Atom O8       Shell    75 S   6     bf  211 -   211          3.912066822798          0.840753743255         -0.477553986404
      0.2703238263D+05  0.5722733521D-03
      0.4052387139D+04  0.4435323349D-02
      0.9223272271D+03  0.2302010771D-01
      0.2612407099D+03  0.9282249067D-01
      0.8535464135D+02  0.2937850001D+00
      0.3103503524D+02  0.6740160450D+00
 Atom O8       Shell    76 S   2     bf  212 -   212          3.912066822798          0.840753743255         -0.477553986404
      0.1226086073D+02  0.6383993703D+00
      0.4998707601D+01  0.3953458713D+00
 Atom O8       Shell    77 S   1     bf  213 -   213          3.912066822798          0.840753743255         -0.477553986404
      0.1170310816D+01  0.1000000000D+01
 Atom O8       Shell    78 S   1     bf  214 -   214          3.912066822798          0.840753743255         -0.477553986404
      0.4647474099D+00  0.1000000000D+01
 Atom O8       Shell    79 S   1     bf  215 -   215          3.912066822798          0.840753743255         -0.477553986404
      0.1850453636D+00  0.1000000000D+01
 Atom O8       Shell    80 P   4     bf  216 -   218          3.912066822798          0.840753743255         -0.477553986404
      0.6327495480D+02  0.1201833222D-01
      0.1462704938D+02  0.8300542179D-01
      0.4450122346D+01  0.3199174393D+00
      0.1527579965D+01  0.7071554292D+00
 Atom O8       Shell    81 P   1     bf  219 -   221          3.912066822798          0.840753743255         -0.477553986404
      0.5293511794D+00  0.1000000000D+01
 Atom O8       Shell    82 P   1     bf  222 -   224          3.912066822798          0.840753743255         -0.477553986404
      0.1747842127D+00  0.1000000000D+01
 Atom O8       Shell    83 D   1     bf  225 -   229          3.912066822798          0.840753743255         -0.477553986404
      0.2314000000D+01  0.1000000000D+01
 Atom O8       Shell    84 D   1     bf  230 -   234          3.912066822798          0.840753743255         -0.477553986404
      0.6450000000D+00  0.1000000000D+01
 Atom O8       Shell    85 F   1     bf  235 -   241          3.912066822798          0.840753743255         -0.477553986404
      0.1428000000D+01  0.1000000000D+01
 Atom H9       Shell    86 S   3     bf  242 -   242          4.811744051682          2.427919754073         -0.431632640071
      0.3406134100D+02  0.2543930721D-01
      0.5123574600D+01  0.1900859489D+00
      0.1164662600D+01  0.8524411301D+00
 Atom H9       Shell    87 S   1     bf  243 -   243          4.811744051682          2.427919754073         -0.431632640071
      0.3272304100D+00  0.1000000000D+01
 Atom H9       Shell    88 S   1     bf  244 -   244          4.811744051682          2.427919754073         -0.431632640071
      0.1030724100D+00  0.1000000000D+01
 Atom H9       Shell    89 P   1     bf  245 -   247          4.811744051682          2.427919754073         -0.431632640071
      0.8000000000D+00  0.1000000000D+01
 Atom F10      Shell    90 S   6     bf  248 -   248          0.974047748897         -3.945700140266         -0.415669944908
      0.3547910044D+05  0.5618499111D-03
      0.5318472898D+04  0.4355197381D-02
      0.1210481098D+04  0.2261824715D-01
      0.3428551814D+03  0.9140305514D-01
      0.1120194318D+03  0.2911687069D+00
      0.4071474025D+02  0.6777270856D+00
 Atom F10      Shell    91 S   2     bf  249 -   249          0.974047748897         -3.945700140266         -0.415669944908
      0.1603967811D+02  0.6329641788D+00
      0.6503818674D+01  0.4013647573D+00
 Atom F10      Shell    92 S   1     bf  250 -   250          0.974047748897         -3.945700140266         -0.415669944908
      0.1544047751D+01  0.1000000000D+01
 Atom F10      Shell    93 S   1     bf  251 -   251          0.974047748897         -3.945700140266         -0.415669944908
      0.6122345286D+00  0.1000000000D+01
 Atom F10      Shell    94 S   1     bf  252 -   252          0.974047748897         -3.945700140266         -0.415669944908
      0.2402797970D+00  0.1000000000D+01
 Atom F10      Shell    95 P   4     bf  253 -   255          0.974047748897         -3.945700140266         -0.415669944908
      0.8023390048D+02  0.1232134514D-01
      0.1859401074D+02  0.8571339535D-01
      0.5686790265D+01  0.3263310550D+00
      0.1951100629D+01  0.6997111464D+00
 Atom F10      Shell    96 P   1     bf  256 -   258          0.974047748897         -3.945700140266         -0.415669944908
      0.6697021130D+00  0.1000000000D+01
 Atom F10      Shell    97 P   1     bf  259 -   261          0.974047748897         -3.945700140266         -0.415669944908
      0.2165130041D+00  0.1000000000D+01
 Atom F10      Shell    98 D   1     bf  262 -   266          0.974047748897         -3.945700140266         -0.415669944908
      0.3107000000D+01  0.1000000000D+01
 Atom F10      Shell    99 D   1     bf  267 -   271          0.974047748897         -3.945700140266         -0.415669944908
      0.8550000000D+00  0.1000000000D+01
 Atom F10      Shell   100 F   1     bf  272 -   278          0.974047748897         -3.945700140266         -0.415669944908
      0.1917000000D+01  0.1000000000D+01
 Effective core potential in the form of general ECP input:
      1 0
 Pa1-ECP   5 60
 H component
  1
  2        1.0000000        0.00000000    0.00000000
 S-H projection
  1
  2       15.2691737      475.47573283    0.00000000
 P-H projection
  1
  2        9.9577370      207.66485962    0.00000000
 D-H projection
  1
  2        8.9431413      156.67411988    0.00000000
 F-H projection
  1
  2        7.0104666       67.98223685    0.00000000
 G-H projection
  1
  2       12.2010560      -57.63059989    0.00000000
 
 There are   326 symmetry adapted cartesian basis functions of A   symmetry.
 There are   278 symmetry adapted basis functions of A   symmetry.
   278 basis functions,   495 primitive gaussians,   326 cartesian basis functions
    38 alpha electrons       38 beta electrons
       nuclear repulsion energy       486.6160736905 Hartrees.
 IExCor=  404 DFT=T Ex=B Corr=P86 ExCW=0 ScaHFX=  0.000000
 ScaDFX=  1.000000  1.000000  1.000000  1.000000 ScalE2=  1.000000  1.000000
 IRadAn=      5 IRanWt=     -1 IRanGd=            0 ICorTp=0 IEmpDi=  4
 NAtoms=   10 NActive=   10 NUniq=   10 SFac= 1.00D+00 NAtFMM=   60 NAOKFM=F Big=F
 Integral buffers will be    131072 words long.
 Raffenetti 2 integral format.
 Two-electron integral symmetry is turned on.
 Leave Link  301 at Tue Jul  4 09:43:31 2023, MaxMem=  2147483648 cpu:               1.0 elap:               0.2
 (Enter /home/pcmt/gaussian/g16.C.01/g16/l302.exe)
 NPDir=0 NMtPBC=     1 NCelOv=     1 NCel=       1 NClECP=     1 NCelD=      1
         NCelK=      1 NCelE2=     1 NClLst=     1 CellRange=     0.0.
 One-electron integrals computed using PRISM.
 One-electron integral symmetry used in STVInt
   1 Symmetry operations used in ECPInt.
 ECPInt:  NShTT=    5050 NPrTT=   14698 LenC2=    4877 LenP2D=   11060.
 LDataN:  DoStor=T MaxTD1= 9 Len=  602
 NBasis=   278 RedAO= T EigKep=  6.74D-04  NBF=   278
 NBsUse=   278 1.00D-06 EigRej= -1.00D+00 NBFU=   278
 Precomputing XC quadrature grid using
 IXCGrd= 4 IRadAn=           5 IRanWt=          -1 IRanGd=           0 AccXCQ= 0.00D+00.
 Defaulting to unpruned grid for atomic number  91.
 Generated NRdTot=       0 NPtTot=           0 NUsed=           0 NTot=          32
 NSgBfM=   321   321   321   321   321 MxSgAt=    10 MxSgA2=    10.
 Leave Link  302 at Tue Jul  4 09:43:33 2023, MaxMem=  2147483648 cpu:               6.9 elap:               1.1
 (Enter /home/pcmt/gaussian/g16.C.01/g16/l303.exe)
 DipDrv:  MaxL=1.
 Leave Link  303 at Tue Jul  4 09:43:33 2023, MaxMem=  2147483648 cpu:               0.7 elap:               0.1
 (Enter /home/pcmt/gaussian/g16.C.01/g16/l401.exe)
 ExpMin= 2.32D-02 ExpMax= 3.55D+04 ExpMxC= 1.20D+04 IAcc=3 IRadAn=         5 AccDes= 0.00D+00
 Harris functional with IExCor=  404 and IRadAn=       5 diagonalized for initial guess.
 HarFok:  IExCor=  404 AccDes= 0.00D+00 IRadAn=         5 IDoV= 1 UseB2=F ITyADJ=14
 ICtDFT=  3500011 ScaDFX=  1.000000  1.000000  1.000000  1.000000
 Defaulting to unpruned grid for atomic number  91.
 FoFCou: FMM=F IPFlag=           0 FMFlag=      100000 FMFlg1=           0
         NFxFlg=           0 DoJE=T BraDBF=F KetDBF=T FulRan=T
         wScrn=  0.000000 ICntrl=       500 IOpCl=  0 I1Cent=   200000004 NGrid=           0
         NMat0=    1 NMatS0=      1 NMatT0=    0 NMatD0=    1 NMtDS0=    0 NMtDT0=    0
 Petite list used in FoFCou.
 Harris En= -846.731185548929    
 JPrj=0 DoOrth=F DoCkMO=F.
 Leave Link  401 at Tue Jul  4 09:43:35 2023, MaxMem=  2147483648 cpu:              15.5 elap:               2.1
 (Enter /home/pcmt/gaussian/g16.C.01/g16/l502.exe)
 Keep J ints in memory in canonical form, NReq=769486777.
 FoFCou: FMM=F IPFlag=           0 FMFlag=           0 FMFlg1=           0
         NFxFlg=           0 DoJE=F BraDBF=F KetDBF=F FulRan=T
         wScrn=  0.000000 ICntrl=       600 IOpCl=  0 I1Cent=           0 NGrid=           0
         NMat0=    1 NMatS0=  38781 NMatT0=    0 NMatD0=    1 NMtDS0=    0 NMtDT0=    0
 Symmetry not used in FoFCou.
 Two-electron integral symmetry not used.
 Closed shell SCF:
 Using DIIS extrapolation, IDIIS=  1040.
 NGot=  2147483648 LenX=  1395263057 LenY=  1395156340
 Requested convergence on RMS density matrix=1.00D-08 within 100 cycles.
 Requested convergence on MAX density matrix=1.00D-06.
 Requested convergence on             energy=1.00D-06.
 No special actions if energy rises.

 Cycle   1  Pass 1  IDiag  1:
 Defaulting to unpruned grid for atomic number  91.
 Defaulting to unpruned grid for atomic number  91.
 Defaulting to unpruned grid for atomic number  91.
 Defaulting to unpruned grid for atomic number  91.
 Defaulting to unpruned grid for atomic number  91.
 Defaulting to unpruned grid for atomic number  91.
 Defaulting to unpruned grid for atomic number  91.
 Defaulting to unpruned grid for atomic number  91.
 E= -844.212477637192    
 DIIS: error= 4.69D-02 at cycle   1 NSaved=   1.
 NSaved= 1 IEnMin= 1 EnMin= -844.212477637192     IErMin= 1 ErrMin= 4.69D-02
 ErrMax= 4.69D-02  0.00D+00 EMaxC= 1.00D-01 BMatC= 1.51D+00 BMatP= 1.51D+00
 IDIUse=3 WtCom= 5.31D-01 WtEn= 4.69D-01
 Coeff-Com:  0.100D+01
 Coeff-En:   0.100D+01
 Coeff:      0.100D+01
 Gap=     0.057 Goal=   None    Shift=    0.000
 GapD=    0.057 DampG=0.500 DampE=0.250 DampFc=0.1250 IDamp=-1.
 Damping current iteration by 1.25D-01
 RMSDP=1.52D-02 MaxDP=1.47D+00              OVMax= 9.97D-01

 Cycle   2  Pass 1  IDiag  1:
 E= -844.233936251585     Delta-E=       -0.021458614393 Rises=F Damp=T
 DIIS: error= 1.59D-02 at cycle   2 NSaved=   2.
 NSaved= 2 IEnMin= 2 EnMin= -844.233936251585     IErMin= 2 ErrMin= 1.59D-02
 ErrMax= 1.59D-02  0.00D+00 EMaxC= 1.00D-01 BMatC= 1.93D-01 BMatP= 1.51D+00
 IDIUse=3 WtCom= 8.41D-01 WtEn= 1.59D-01
 Coeff-Com: -0.165D-01 0.102D+01
 Coeff-En:   0.491D+00 0.509D+00
 Coeff:      0.645D-01 0.936D+00
 Gap=     0.055 Goal=   None    Shift=    0.000
 RMSDP=4.32D-03 MaxDP=1.42D-01 DE=-2.15D-02 OVMax= 9.51D-01

 Cycle   3  Pass 1  IDiag  1:
 E= -844.418472242233     Delta-E=       -0.184535990647 Rises=F Damp=F
 DIIS: error= 4.17D-02 at cycle   3 NSaved=   3.
 NSaved= 3 IEnMin= 3 EnMin= -844.418472242233     IErMin= 2 ErrMin= 1.59D-02
 ErrMax= 4.17D-02  0.00D+00 EMaxC= 1.00D-01 BMatC= 9.90D-01 BMatP= 1.93D-01
 IDIUse=2 WtCom= 0.00D+00 WtEn= 1.00D+00
 EnCoef did     2 forward-backward iterations
 Coeff-En:   0.151D+00 0.377D+00 0.472D+00
 Coeff:      0.151D+00 0.377D+00 0.472D+00
 Gap=     0.271 Goal=   None    Shift=    0.000
 RMSDP=9.05D-03 MaxDP=5.82D-01 DE=-1.85D-01 OVMax= 9.31D-01

 Cycle   4  Pass 1  IDiag  1:
 E= -817.935882895182     Delta-E=       26.482589347051 Rises=F Damp=F
 DIIS: error= 4.67D-01 at cycle   4 NSaved=   4.
 NSaved= 4 IEnMin= 3 EnMin= -844.418472242233     IErMin= 2 ErrMin= 1.59D-02
 ErrMax= 4.67D-01  0.00D+00 EMaxC= 1.00D-01 BMatC= 5.61D+01 BMatP= 1.93D-01
 IDIUse=2 WtCom= 0.00D+00 WtEn= 1.00D+00
 EnCoef did   100 forward-backward iterations
 Coeff-En:   0.418D+00 0.148D-01 0.478D+00 0.889D-01
 Coeff:      0.418D+00 0.148D-01 0.478D+00 0.889D-01
 Gap=     0.022 Goal=   None    Shift=    0.000
 RMSDP=4.76D-03 MaxDP=2.59D-01 DE= 2.65D+01 OVMax= 8.23D-01

 Cycle   5  Pass 1  IDiag  1:
 E= -843.070097412275     Delta-E=      -25.134214517093 Rises=F Damp=F
 DIIS: error= 1.32D-01 at cycle   5 NSaved=   5.
 NSaved= 5 IEnMin= 3 EnMin= -844.418472242233     IErMin= 2 ErrMin= 1.59D-02
 ErrMax= 1.32D-01  0.00D+00 EMaxC= 1.00D-01 BMatC= 4.15D+00 BMatP= 1.93D-01
 IDIUse=2 WtCom= 0.00D+00 WtEn= 1.00D+00
 EnCoef did     3 forward-backward iterations
 Coeff-En:   0.382D+00 0.000D+00 0.293D+00 0.000D+00 0.325D+00
 Coeff:      0.382D+00 0.000D+00 0.293D+00 0.000D+00 0.325D+00
 Gap=     0.127 Goal=   None    Shift=    0.000
 RMSDP=2.94D-03 MaxDP=1.42D-01 DE=-2.51D+01 OVMax= 3.45D-01

 Cycle   6  Pass 1  IDiag  1:
 E= -844.933561570642     Delta-E=       -1.863464158367 Rises=F Damp=F
 DIIS: error= 3.94D-02 at cycle   6 NSaved=   6.
 NSaved= 6 IEnMin= 6 EnMin= -844.933561570642     IErMin= 2 ErrMin= 1.59D-02
 ErrMax= 3.94D-02  0.00D+00 EMaxC= 1.00D-01 BMatC= 4.78D-01 BMatP= 1.93D-01
 IDIUse=2 WtCom= 0.00D+00 WtEn= 1.00D+00
 EnCoef did     6 forward-backward iterations
 Coeff-En:   0.165D+00 0.000D+00 0.214D+00 0.000D+00 0.142D+00 0.479D+00
 Coeff:      0.165D+00 0.000D+00 0.214D+00 0.000D+00 0.142D+00 0.479D+00
 Gap=     0.296 Goal=   None    Shift=    0.000
 RMSDP=2.04D-03 MaxDP=1.08D-01 DE=-1.86D+00 OVMax= 3.03D-01

 Cycle   7  Pass 1  IDiag  1:
 E= -845.061596023155     Delta-E=       -0.128034452512 Rises=F Damp=F
 DIIS: error= 3.35D-02 at cycle   7 NSaved=   7.
 NSaved= 7 IEnMin= 7 EnMin= -845.061596023155     IErMin= 2 ErrMin= 1.59D-02
 ErrMax= 3.35D-02  0.00D+00 EMaxC= 1.00D-01 BMatC= 3.07D-01 BMatP= 1.93D-01
 IDIUse=2 WtCom= 0.00D+00 WtEn= 1.00D+00
 Coeff-En:   0.000D+00 0.000D+00 0.000D+00 0.000D+00 0.000D+00 0.417D+00
 Coeff-En:   0.583D+00
 Coeff:      0.000D+00 0.000D+00 0.000D+00 0.000D+00 0.000D+00 0.417D+00
 Coeff:      0.583D+00
 Gap=     0.184 Goal=   None    Shift=    0.000
 RMSDP=1.09D-03 MaxDP=5.76D-02 DE=-1.28D-01 OVMax= 1.21D-01

 Cycle   8  Pass 1  IDiag  1:
 E= -845.245547878243     Delta-E=       -0.183951855089 Rises=F Damp=F
 DIIS: error= 6.99D-03 at cycle   8 NSaved=   8.
 NSaved= 8 IEnMin= 8 EnMin= -845.245547878243     IErMin= 8 ErrMin= 6.99D-03
 ErrMax= 6.99D-03  0.00D+00 EMaxC= 1.00D-01 BMatC= 2.34D-02 BMatP= 1.93D-01
 IDIUse=3 WtCom= 9.30D-01 WtEn= 6.99D-02
 Coeff-Com: -0.282D-01 0.476D-01-0.329D-01-0.252D-02 0.217D-01 0.920D-01
 Coeff-Com:  0.199D+00 0.703D+00
 Coeff-En:   0.000D+00 0.000D+00 0.000D+00 0.000D+00 0.131D-01 0.000D+00
 Coeff-En:   0.000D+00 0.987D+00
 Coeff:     -0.263D-01 0.443D-01-0.306D-01-0.234D-02 0.211D-01 0.856D-01
 Coeff:      0.185D+00 0.723D+00
 Gap=     0.144 Goal=   None    Shift=    0.000
 RMSDP=5.38D-04 MaxDP=2.81D-02 DE=-1.84D-01 OVMax= 3.89D-02

 Cycle   9  Pass 1  IDiag  1:
 E= -845.257989027721     Delta-E=       -0.012441149478 Rises=F Damp=F
 DIIS: error= 4.92D-03 at cycle   9 NSaved=   9.
 NSaved= 9 IEnMin= 9 EnMin= -845.257989027721     IErMin= 9 ErrMin= 4.92D-03
 ErrMax= 4.92D-03  0.00D+00 EMaxC= 1.00D-01 BMatC= 9.90D-03 BMatP= 2.34D-02
 IDIUse=3 WtCom= 9.51D-01 WtEn= 4.92D-02
 Coeff-Com: -0.181D-01 0.746D-02-0.406D-01 0.313D-03 0.133D-01 0.247D-01
 Coeff-Com:  0.118D+00 0.593D+00 0.302D+00
 Coeff-En:   0.000D+00 0.000D+00 0.000D+00 0.000D+00 0.000D+00 0.000D+00
 Coeff-En:   0.000D+00 0.231D+00 0.769D+00
 Coeff:     -0.172D-01 0.710D-02-0.386D-01 0.298D-03 0.127D-01 0.235D-01
 Coeff:      0.112D+00 0.575D+00 0.325D+00
 Gap=     0.133 Goal=   None    Shift=    0.000
 RMSDP=2.48D-04 MaxDP=8.85D-03 DE=-1.24D-02 OVMax= 2.80D-02

 Cycle  10  Pass 1  IDiag  1:
 E= -845.265082281290     Delta-E=       -0.007093253569 Rises=F Damp=F
 DIIS: error= 1.84D-03 at cycle  10 NSaved=  10.
 NSaved=10 IEnMin=10 EnMin= -845.265082281290     IErMin=10 ErrMin= 1.84D-03
 ErrMax= 1.84D-03  0.00D+00 EMaxC= 1.00D-01 BMatC= 1.90D-03 BMatP= 9.90D-03
 IDIUse=3 WtCom= 9.82D-01 WtEn= 1.84D-02
 Coeff-Com:  0.593D-02 0.294D-03-0.326D-02 0.216D-03 0.665D-03-0.151D-01
 Coeff-Com:  0.200D-01 0.149D+00 0.156D+00 0.686D+00
 Coeff-En:   0.000D+00 0.000D+00 0.000D+00 0.000D+00 0.000D+00 0.000D+00
 Coeff-En:   0.000D+00 0.000D+00 0.000D+00 0.100D+01
 Coeff:      0.582D-02 0.289D-03-0.320D-02 0.212D-03 0.653D-03-0.149D-01
 Coeff:      0.196D-01 0.146D+00 0.154D+00 0.692D+00
 Gap=     0.133 Goal=   None    Shift=    0.000
 RMSDP=1.66D-04 MaxDP=1.04D-02 DE=-7.09D-03 OVMax= 1.42D-02

 Cycle  11  Pass 1  IDiag  1:
 E= -845.266397340888     Delta-E=       -0.001315059598 Rises=F Damp=F
 DIIS: error= 1.55D-03 at cycle  11 NSaved=  11.
 NSaved=11 IEnMin=11 EnMin= -845.266397340888     IErMin=11 ErrMin= 1.55D-03
 ErrMax= 1.55D-03  0.00D+00 EMaxC= 1.00D-01 BMatC= 1.58D-03 BMatP= 1.90D-03
 IDIUse=3 WtCom= 9.84D-01 WtEn= 1.55D-02
 Coeff-Com:  0.821D-02 0.953D-02 0.243D-02 0.557D-04-0.138D-02-0.606D-02
 Coeff-Com:  0.107D-01 0.124D+00 0.411D-01-0.333D-01 0.844D+00
 Coeff-En:   0.000D+00 0.000D+00 0.000D+00 0.000D+00 0.000D+00 0.000D+00
 Coeff-En:   0.000D+00 0.000D+00 0.000D+00 0.000D+00 0.100D+01
 Coeff:      0.808D-02 0.938D-02 0.240D-02 0.549D-04-0.136D-02-0.596D-02
 Coeff:      0.106D-01 0.122D+00 0.405D-01-0.328D-01 0.847D+00
 Gap=     0.134 Goal=   None    Shift=    0.000
 RMSDP=7.85D-05 MaxDP=9.61D-03 DE=-1.32D-03 OVMax= 4.42D-03

 Cycle  12  Pass 1  IDiag  1:
 E= -845.266976759063     Delta-E=       -0.000579418175 Rises=F Damp=F
 DIIS: error= 6.68D-04 at cycle  12 NSaved=  12.
 NSaved=12 IEnMin=12 EnMin= -845.266976759063     IErMin=12 ErrMin= 6.68D-04
 ErrMax= 6.68D-04  0.00D+00 EMaxC= 1.00D-01 BMatC= 2.30D-04 BMatP= 1.58D-03
 IDIUse=3 WtCom= 9.93D-01 WtEn= 6.68D-03
 Coeff-Com:  0.354D-02 0.532D-02-0.186D-03-0.642D-05-0.162D-02 0.593D-02
 Coeff-Com:  0.334D-03 0.231D-01-0.104D+00-0.770D+00 0.676D+00 0.116D+01
 Coeff-En:   0.000D+00 0.000D+00 0.000D+00 0.000D+00 0.000D+00 0.000D+00
 Coeff-En:   0.000D+00 0.000D+00 0.000D+00 0.000D+00 0.000D+00 0.100D+01
 Coeff:      0.351D-02 0.528D-02-0.185D-03-0.638D-05-0.160D-02 0.589D-02
 Coeff:      0.332D-03 0.230D-01-0.103D+00-0.765D+00 0.671D+00 0.116D+01
 Gap=     0.131 Goal=   None    Shift=    0.000
 RMSDP=1.41D-04 MaxDP=7.63D-03 DE=-5.79D-04 OVMax= 1.38D-02

 Cycle  13  Pass 1  IDiag  1:
 E= -845.266923064421     Delta-E=        0.000053694642 Rises=F Damp=F
 DIIS: error= 6.92D-04 at cycle  13 NSaved=  13.
 NSaved=13 IEnMin=12 EnMin= -845.266976759063     IErMin=12 ErrMin= 6.68D-04
 ErrMax= 6.92D-04  0.00D+00 EMaxC= 1.00D-01 BMatC= 2.98D-04 BMatP= 2.30D-04
 IDIUse=3 WtCom= 9.93D-01 WtEn= 6.68D-03
 Coeff-Com: -0.789D-03 0.505D-02-0.194D-02-0.563D-04 0.796D-03 0.369D-02
 Coeff-Com:  0.525D-02 0.274D-01-0.434D-01-0.400D+00 0.202D+00 0.856D+00
 Coeff-Com:  0.346D+00
 Coeff-En:   0.000D+00 0.000D+00 0.000D+00 0.000D+00 0.000D+00 0.000D+00
 Coeff-En:   0.000D+00 0.000D+00 0.000D+00 0.000D+00 0.000D+00 0.544D+00
 Coeff-En:   0.456D+00
 Coeff:     -0.784D-03 0.501D-02-0.192D-02-0.560D-04 0.791D-03 0.366D-02
 Coeff:      0.522D-02 0.272D-01-0.431D-01-0.397D+00 0.200D+00 0.854D+00
 Coeff:      0.346D+00
 Gap=     0.132 Goal=   None    Shift=    0.000
 RMSDP=6.97D-05 MaxDP=3.55D-03 DE= 5.37D-05 OVMax= 7.09D-03

 Cycle  14  Pass 1  IDiag  1:
 E= -845.267177566435     Delta-E=       -0.000254502014 Rises=F Damp=F
 DIIS: error= 4.42D-04 at cycle  14 NSaved=  14.
 NSaved=14 IEnMin=14 EnMin= -845.267177566435     IErMin=14 ErrMin= 4.42D-04
 ErrMax= 4.42D-04  0.00D+00 EMaxC= 1.00D-01 BMatC= 1.13D-04 BMatP= 2.30D-04
 IDIUse=3 WtCom= 9.96D-01 WtEn= 4.42D-03
 EnCoef did   100 forward-backward iterations
 Coeff-Com: -0.816D-03 0.195D-02-0.418D-03-0.219D-04 0.585D-03 0.345D-03
 Coeff-Com:  0.260D-03-0.624D-02-0.252D-01-0.137D+00 0.101D+00 0.406D+00
 Coeff-Com:  0.209D+00 0.450D+00
 Coeff-En:   0.000D+00 0.000D+00 0.000D+00 0.000D+00 0.000D+00 0.000D+00
 Coeff-En:   0.000D+00 0.000D+00 0.000D+00 0.000D+00 0.345D-01 0.246D-02
 Coeff-En:   0.000D+00 0.963D+00
 Coeff:     -0.813D-03 0.194D-02-0.416D-03-0.218D-04 0.583D-03 0.344D-03
 Coeff:      0.259D-03-0.622D-02-0.251D-01-0.136D+00 0.100D+00 0.405D+00
 Coeff:      0.208D+00 0.452D+00
 Gap=     0.128 Goal=   None    Shift=    0.000
 RMSDP=2.70D-05 MaxDP=2.25D-03 DE=-2.55D-04 OVMax= 2.00D-03

 Cycle  15  Pass 1  IDiag  1:
 E= -845.267231841139     Delta-E=       -0.000054274703 Rises=F Damp=F
 DIIS: error= 1.45D-04 at cycle  15 NSaved=  15.
 NSaved=15 IEnMin=15 EnMin= -845.267231841139     IErMin=15 ErrMin= 1.45D-04
 ErrMax= 1.45D-04  0.00D+00 EMaxC= 1.00D-01 BMatC= 7.55D-06 BMatP= 1.13D-04
 IDIUse=3 WtCom= 9.99D-01 WtEn= 1.45D-03
 Coeff-Com: -0.106D-02 0.190D-02-0.203D-03-0.341D-04 0.716D-03 0.325D-03
 Coeff-Com:  0.707D-03-0.215D-02-0.573D-02-0.264D-01 0.208D-01 0.181D+00
 Coeff-Com:  0.966D-01 0.281D+00 0.452D+00
 Coeff-En:   0.000D+00 0.000D+00 0.000D+00 0.000D+00 0.000D+00 0.000D+00
 Coeff-En:   0.000D+00 0.000D+00 0.000D+00 0.000D+00 0.000D+00 0.000D+00
 Coeff-En:   0.000D+00 0.000D+00 0.100D+01
 Coeff:     -0.106D-02 0.189D-02-0.203D-03-0.341D-04 0.715D-03 0.324D-03
 Coeff:      0.706D-03-0.215D-02-0.572D-02-0.264D-01 0.208D-01 0.181D+00
 Coeff:      0.964D-01 0.281D+00 0.453D+00
 Gap=     0.130 Goal=   None    Shift=    0.000
 RMSDP=1.95D-05 MaxDP=1.13D-03 DE=-5.43D-05 OVMax= 1.82D-03

 Cycle  16  Pass 1  IDiag  1:
 E= -845.267237531594     Delta-E=       -0.000005690455 Rises=F Damp=F
 DIIS: error= 1.32D-04 at cycle  16 NSaved=  16.
 NSaved=16 IEnMin=16 EnMin= -845.267237531594     IErMin=16 ErrMin= 1.32D-04
 ErrMax= 1.32D-04  0.00D+00 EMaxC= 1.00D-01 BMatC= 1.08D-05 BMatP= 7.55D-06
 IDIUse=3 WtCom= 9.99D-01 WtEn= 1.45D-03
 Coeff-Com: -0.370D-03 0.477D-03 0.219D-03-0.828D-05 0.225D-03 0.293D-03
 Coeff-Com: -0.111D-02-0.736D-02-0.169D-02 0.168D-01 0.150D-01 0.362D-02
 Coeff-Com: -0.136D-01 0.324D-01 0.425D+00 0.530D+00
 Coeff-En:   0.000D+00 0.000D+00 0.000D+00 0.000D+00 0.000D+00 0.000D+00
 Coeff-En:   0.000D+00 0.000D+00 0.000D+00 0.000D+00 0.000D+00 0.000D+00
 Coeff-En:   0.000D+00 0.000D+00 0.115D+00 0.885D+00
 Coeff:     -0.370D-03 0.476D-03 0.218D-03-0.827D-05 0.224D-03 0.292D-03
 Coeff:     -0.111D-02-0.735D-02-0.169D-02 0.168D-01 0.149D-01 0.361D-02
 Coeff:     -0.135D-01 0.323D-01 0.425D+00 0.530D+00
 Gap=     0.129 Goal=   None    Shift=    0.000
 RMSDP=9.12D-06 MaxDP=7.54D-04 DE=-5.69D-06 OVMax= 7.22D-04

 Cycle  17  Pass 1  IDiag  1:
 E= -845.267243637692     Delta-E=       -0.000006106098 Rises=F Damp=F
 DIIS: error= 3.12D-05 at cycle  17 NSaved=  17.
 NSaved=17 IEnMin=17 EnMin= -845.267243637692     IErMin=17 ErrMin= 3.12D-05
 ErrMax= 3.12D-05  0.00D+00 EMaxC= 1.00D-01 BMatC= 3.32D-07 BMatP= 7.55D-06
 IDIUse=1 WtCom= 1.00D+00 WtEn= 0.00D+00
 Coeff-Com: -0.705D-04 0.559D-04 0.902D-04-0.200D-05 0.342D-04 0.268D-03
 Coeff-Com: -0.577D-03-0.227D-02 0.874D-03 0.104D-01 0.286D-02-0.266D-01
 Coeff-Com: -0.205D-01-0.353D-01 0.328D-01 0.209D+00 0.829D+00
 Coeff:     -0.705D-04 0.559D-04 0.902D-04-0.200D-05 0.342D-04 0.268D-03
 Coeff:     -0.577D-03-0.227D-02 0.874D-03 0.104D-01 0.286D-02-0.266D-01
 Coeff:     -0.205D-01-0.353D-01 0.328D-01 0.209D+00 0.829D+00
 Gap=     0.129 Goal=   None    Shift=    0.000
 RMSDP=2.17D-06 MaxDP=1.56D-04 DE=-6.11D-06 OVMax= 1.92D-04

 Cycle  18  Pass 1  IDiag  1:
 E= -845.267243995281     Delta-E=       -0.000000357589 Rises=F Damp=F
 DIIS: error= 6.48D-06 at cycle  18 NSaved=  18.
 NSaved=18 IEnMin=18 EnMin= -845.267243995281     IErMin=18 ErrMin= 6.48D-06
 ErrMax= 6.48D-06  0.00D+00 EMaxC= 1.00D-01 BMatC= 1.48D-08 BMatP= 3.32D-07
 IDIUse=1 WtCom= 1.00D+00 WtEn= 0.00D+00
 Coeff-Com: -0.179D-04 0.269D-04 0.342D-04-0.143D-05 0.604D-05 0.125D-03
 Coeff-Com: -0.218D-03-0.655D-03 0.463D-03 0.262D-02 0.146D-02-0.108D-01
 Coeff-Com: -0.765D-02-0.181D-01-0.318D-01 0.596D-01 0.477D+00 0.527D+00
 Coeff:     -0.179D-04 0.269D-04 0.342D-04-0.143D-05 0.604D-05 0.125D-03
 Coeff:     -0.218D-03-0.655D-03 0.463D-03 0.262D-02 0.146D-02-0.108D-01
 Coeff:     -0.765D-02-0.181D-01-0.318D-01 0.596D-01 0.477D+00 0.527D+00
 Gap=     0.129 Goal=   None    Shift=    0.000
 RMSDP=2.87D-07 MaxDP=8.85D-06 DE=-3.58D-07 OVMax= 2.60D-05

 Cycle  19  Pass 1  IDiag  1:
 E= -845.267244001659     Delta-E=       -0.000000006378 Rises=F Damp=F
 DIIS: error= 2.48D-06 at cycle  19 NSaved=  19.
 NSaved=19 IEnMin=19 EnMin= -845.267244001659     IErMin=19 ErrMin= 2.48D-06
 ErrMax= 2.48D-06  0.00D+00 EMaxC= 1.00D-01 BMatC= 4.91D-09 BMatP= 1.48D-08
 IDIUse=1 WtCom= 1.00D+00 WtEn= 0.00D+00
 Coeff-Com: -0.738D-05 0.138D-04 0.160D-04-0.699D-06 0.186D-05 0.605D-04
 Coeff-Com: -0.999D-04-0.265D-03 0.237D-03 0.883D-03 0.936D-03-0.532D-02
 Coeff-Com: -0.364D-02-0.101D-01-0.243D-01 0.212D-01 0.252D+00 0.363D+00
 Coeff-Com:  0.405D+00
 Coeff:     -0.738D-05 0.138D-04 0.160D-04-0.699D-06 0.186D-05 0.605D-04
 Coeff:     -0.999D-04-0.265D-03 0.237D-03 0.883D-03 0.936D-03-0.532D-02
 Coeff:     -0.364D-02-0.101D-01-0.243D-01 0.212D-01 0.252D+00 0.363D+00
 Coeff:      0.405D+00
 Gap=     0.129 Goal=   None    Shift=    0.000
 RMSDP=1.29D-07 MaxDP=6.26D-06 DE=-6.38D-09 OVMax= 1.67D-05

 Cycle  20  Pass 1  IDiag  1:
 E= -845.267244004186     Delta-E=       -0.000000002527 Rises=F Damp=F
 DIIS: error= 1.36D-06 at cycle  20 NSaved=  20.
 NSaved=20 IEnMin=20 EnMin= -845.267244004186     IErMin=20 ErrMin= 1.36D-06
 ErrMax= 1.36D-06  0.00D+00 EMaxC= 1.00D-01 BMatC= 1.22D-09 BMatP= 4.91D-09
 IDIUse=1 WtCom= 1.00D+00 WtEn= 0.00D+00
 Coeff-Com: -0.152D-05 0.362D-05 0.226D-05-0.154D-06 0.459D-06 0.802D-05
 Coeff-Com: -0.111D-04-0.152D-04 0.460D-04-0.674D-04 0.384D-03-0.104D-02
 Coeff-Com: -0.599D-03-0.274D-02-0.991D-02-0.319D-02 0.542D-01 0.133D+00
 Coeff-Com:  0.323D+00 0.507D+00
 Coeff:     -0.152D-05 0.362D-05 0.226D-05-0.154D-06 0.459D-06 0.802D-05
 Coeff:     -0.111D-04-0.152D-04 0.460D-04-0.674D-04 0.384D-03-0.104D-02
 Coeff:     -0.599D-03-0.274D-02-0.991D-02-0.319D-02 0.542D-01 0.133D+00
 Coeff:      0.323D+00 0.507D+00
 Gap=     0.129 Goal=   None    Shift=    0.000
 RMSDP=6.76D-08 MaxDP=5.09D-06 DE=-2.53D-09 OVMax= 5.36D-06

 Cycle  21  Pass 1  IDiag  1:
 E= -845.267244004938     Delta-E=       -0.000000000752 Rises=F Damp=F
 DIIS: error= 3.08D-07 at cycle  21 NSaved=  20.
 NSaved=20 IEnMin=20 EnMin= -845.267244004938     IErMin=20 ErrMin= 3.08D-07
 ErrMax= 3.08D-07  0.00D+00 EMaxC= 1.00D-01 BMatC= 5.49D-11 BMatP= 1.22D-09
 IDIUse=1 WtCom= 1.00D+00 WtEn= 0.00D+00
 Coeff-Com: -0.263D-06 0.793D-07 0.212D-06 0.545D-07 0.188D-06-0.185D-06
 Coeff-Com:  0.589D-05 0.176D-04 0.363D-05 0.896D-04-0.332D-03-0.163D-03
 Coeff-Com: -0.827D-03-0.294D-02-0.269D-02 0.116D-01 0.344D-01 0.977D-01
 Coeff-Com:  0.185D+00 0.678D+00
 Coeff:     -0.263D-06 0.793D-07 0.212D-06 0.545D-07 0.188D-06-0.185D-06
 Coeff:      0.589D-05 0.176D-04 0.363D-05 0.896D-04-0.332D-03-0.163D-03
 Coeff:     -0.827D-03-0.294D-02-0.269D-02 0.116D-01 0.344D-01 0.977D-01
 Coeff:      0.185D+00 0.678D+00
 Gap=     0.129 Goal=   None    Shift=    0.000
 RMSDP=1.97D-08 MaxDP=1.60D-06 DE=-7.52D-10 OVMax= 1.68D-06

 Cycle  22  Pass 1  IDiag  1:
 E= -845.267244004971     Delta-E=       -0.000000000032 Rises=F Damp=F
 DIIS: error= 4.19D-08 at cycle  22 NSaved=  20.
 NSaved=20 IEnMin=20 EnMin= -845.267244004971     IErMin=20 ErrMin= 4.19D-08
 ErrMax= 4.19D-08  0.00D+00 EMaxC= 1.00D-01 BMatC= 1.08D-12 BMatP= 5.49D-11
 IDIUse=1 WtCom= 1.00D+00 WtEn= 0.00D+00
 Coeff-Com: -0.204D-07-0.598D-08 0.132D-07-0.536D-07 0.194D-07 0.162D-05
 Coeff-Com:  0.281D-05 0.197D-05 0.233D-04-0.624D-04-0.261D-04-0.170D-03
 Coeff-Com: -0.418D-03-0.848D-03 0.220D-02 0.641D-02 0.187D-01 0.386D-01
 Coeff-Com:  0.189D+00 0.747D+00
 Coeff:     -0.204D-07-0.598D-08 0.132D-07-0.536D-07 0.194D-07 0.162D-05
 Coeff:      0.281D-05 0.197D-05 0.233D-04-0.624D-04-0.261D-04-0.170D-03
 Coeff:     -0.418D-03-0.848D-03 0.220D-02 0.641D-02 0.187D-01 0.386D-01
 Coeff:      0.189D+00 0.747D+00
 Gap=     0.129 Goal=   None    Shift=    0.000
 RMSDP=4.02D-09 MaxDP=2.53D-07 DE=-3.23D-11 OVMax= 3.40D-07

 SCF Done:  E(RB-P86) =  -845.267244005     A.U. after   22 cycles
            NFock= 22  Conv=0.40D-08     -V/T= 2.4908
 KE= 5.669785724516D+02 PE=-2.851432822973D+03 EE= 9.525709328262D+02
 Leave Link  502 at Tue Jul  4 09:45:24 2023, MaxMem=  2147483648 cpu:             632.9 elap:             109.2
 (Enter /home/pcmt/gaussian/g16.C.01/g16/l601.exe)
 Copying SCF densities to generalized density rwf, IOpCl= 0 IROHF=0.

 **********************************************************************

            Population analysis using the SCF Density.

 **********************************************************************

 Orbital symmetries:
       Occupied  (A) (A) (A) (A) (A) (A) (A) (A) (A) (A) (A) (A)
                 (A) (A) (A) (A) (A) (A) (A) (A) (A) (A) (A) (A)
                 (A) (A) (A) (A) (A) (A) (A) (A) (A) (A) (A) (A)
                 (A) (A)
       Virtual   (A) (A) (A) (A) (A) (A) (A) (A) (A) (A) (A) (A)
                 (A) (A) (A) (A) (A) (A) (A) (A) (A) (A) (A) (A)
                 (A) (A) (A) (A) (A) (A) (A) (A) (A) (A) (A) (A)
                 (A) (A) (A) (A) (A) (A) (A) (A) (A) (A) (A) (A)
                 (A) (A) (A) (A) (A) (A) (A) (A) (A) (A) (A) (A)
                 (A) (A) (A) (A) (A) (A) (A) (A) (A) (A) (A) (A)
                 (A) (A) (A) (A) (A) (A) (A) (A) (A) (A) (A) (A)
                 (A) (A) (A) (A) (A) (A) (A) (A) (A) (A) (A) (A)
                 (A) (A) (A) (A) (A) (A) (A) (A) (A) (A) (A) (A)
                 (A) (A) (A) (A) (A) (A) (A) (A) (A) (A) (A) (A)
                 (A) (A) (A) (A) (A) (A) (A) (A) (A) (A) (A) (A)
                 (A) (A) (A) (A) (A) (A) (A) (A) (A) (A) (A) (A)
                 (A) (A) (A) (A) (A) (A) (A) (A) (A) (A) (A) (A)
                 (A) (A) (A) (A) (A) (A) (A) (A) (A) (A) (A) (A)
                 (A) (A) (A) (A) (A) (A) (A) (A) (A) (A) (A) (A)
                 (A) (A) (A) (A) (A) (A) (A) (A) (A) (A) (A) (A)
                 (A) (A) (A) (A) (A) (A) (A) (A) (A) (A) (A) (A)
                 (A) (A) (A) (A) (A) (A) (A) (A) (A) (A) (A) (A)
                 (A) (A) (A) (A) (A) (A) (A) (A) (A) (A) (A) (A)
                 (A) (A) (A) (A) (A) (A) (A) (A) (A) (A) (A) (A)
 The electronic state is 1-A.
 Alpha  occ. eigenvalues --  -24.22130 -18.77704 -18.76829 -18.76510 -18.76173
 Alpha  occ. eigenvalues --  -11.11544  -7.18042  -7.17801  -7.17535  -3.53550
 Alpha  occ. eigenvalues --   -3.53486  -3.53362  -3.53291  -3.53086  -1.72896
 Alpha  occ. eigenvalues --   -1.02673  -0.95262  -0.93157  -0.92378  -0.88902
 Alpha  occ. eigenvalues --   -0.80320  -0.79533  -0.78273  -0.45233  -0.44384
 Alpha  occ. eigenvalues --   -0.42532  -0.40232  -0.33643  -0.32853  -0.32536
 Alpha  occ. eigenvalues --   -0.31183  -0.30474  -0.29269  -0.29034  -0.28586
 Alpha  occ. eigenvalues --   -0.27430  -0.27297  -0.26325
 Alpha virt. eigenvalues --   -0.13388  -0.12603  -0.11508  -0.11427  -0.10421
 Alpha virt. eigenvalues --   -0.09863  -0.08148  -0.07419  -0.03340  -0.00117
 Alpha virt. eigenvalues --    0.00584   0.01300   0.02144   0.02829   0.03485
 Alpha virt. eigenvalues --    0.04293   0.06181   0.09580   0.10946   0.12688
 Alpha virt. eigenvalues --    0.16580   0.22670   0.23814   0.24702   0.26242
 Alpha virt. eigenvalues --    0.27432   0.28015   0.28142   0.29128   0.30665
 Alpha virt. eigenvalues --    0.31367   0.35146   0.36133   0.37641   0.39466
 Alpha virt. eigenvalues --    0.41999   0.42574   0.43410   0.44041   0.46389
 Alpha virt. eigenvalues --    0.47517   0.50564   0.51707   0.52581   0.53606
 Alpha virt. eigenvalues --    0.55318   0.56134   0.57924   0.59913   0.63563
 Alpha virt. eigenvalues --    0.67554   0.70412   0.71878   0.74474   0.74926
 Alpha virt. eigenvalues --    0.76847   0.81742   0.83365   0.85933   0.93460
 Alpha virt. eigenvalues --    0.93996   1.02970   1.05718   1.07374   1.08198
 Alpha virt. eigenvalues --    1.09750   1.10234   1.11453   1.12154   1.13348
 Alpha virt. eigenvalues --    1.15206   1.15524   1.16293   1.20115   1.23969
 Alpha virt. eigenvalues --    1.25392   1.26176   1.28068   1.29891   1.34153
 Alpha virt. eigenvalues --    1.34854   1.37458   1.37921   1.41142   1.46756
 Alpha virt. eigenvalues --    1.48419   1.51464   1.54172   1.56393   1.57486
 Alpha virt. eigenvalues --    1.57869   1.59851   1.66742   1.70520   1.71478
 Alpha virt. eigenvalues --    1.72549   1.74836   1.76567   1.80111   1.81610
 Alpha virt. eigenvalues --    1.84920   1.88367   1.90884   1.95917   1.98110
 Alpha virt. eigenvalues --    2.03006   2.09242   2.12747   2.14478   2.15164
 Alpha virt. eigenvalues --    2.17855   2.20570   2.21275   2.23119   2.25198
 Alpha virt. eigenvalues --    2.27561   2.32058   2.35681   2.38700   2.45844
 Alpha virt. eigenvalues --    2.50113   2.53586   2.56192   2.59781   2.61888
 Alpha virt. eigenvalues --    2.63500   2.65708   2.67712   2.69268   2.71084
 Alpha virt. eigenvalues --    2.75476   2.79159   2.89023   2.92885   2.98987
 Alpha virt. eigenvalues --    3.24276   3.24606   3.37069   3.42059   3.44609
 Alpha virt. eigenvalues --    3.58621   3.65469   3.68476   3.69646   3.71090
 Alpha virt. eigenvalues --    3.74852   3.83512   3.85466   3.89447   4.03187
 Alpha virt. eigenvalues --    4.10111   4.13967   4.18212   4.33199   4.99949
 Alpha virt. eigenvalues --    5.00433   5.00988   5.01292   5.01559   5.02105
 Alpha virt. eigenvalues --    5.02748   5.03556   5.06503   5.07558   5.10941
 Alpha virt. eigenvalues --    5.11357   5.13102   5.13779   5.15702   5.17411
 Alpha virt. eigenvalues --    5.30701   5.31396   5.33396   5.35509   5.37829
 Alpha virt. eigenvalues --    5.41655   5.42940   5.44042   6.00142   6.08339
 Alpha virt. eigenvalues --    6.08969   6.10762   6.13303   6.15809   6.18083
 Alpha virt. eigenvalues --    6.19974   6.21963   6.23932   6.26989   6.30091
 Alpha virt. eigenvalues --    6.30606   6.39459   6.42243   6.45144   6.46835
 Alpha virt. eigenvalues --    6.60445   6.64217   6.65241   6.74840   6.77931
 Alpha virt. eigenvalues --    6.77955   6.78101   6.80317   6.83792   6.84394
 Alpha virt. eigenvalues --    6.89028   6.92658   6.96219   7.00046   7.05641
 Alpha virt. eigenvalues --    7.25408   7.34904   7.43349   8.09222   8.13038
 Alpha virt. eigenvalues --    8.15653   8.18537   8.20603   8.39962   8.44117
 Alpha virt. eigenvalues --    8.57976   8.72929   9.05763  29.28725  29.39372
 Alpha virt. eigenvalues --   29.43130  43.20141  43.30485  43.35833  43.37569
 Alpha virt. eigenvalues --   54.05855  56.70452  70.20075  70.25835  70.28338
 Alpha virt. eigenvalues --  142.58850 142.70109 142.74784 202.56700 626.07908
     Molecular Orbital Coefficients:
                           1         2         3         4         5
                           O         O         O         O         O
     Eigenvalues --   -24.22130 -18.77704 -18.76829 -18.76510 -18.76173
   1 1   Pa 1S         -0.00000  -0.00000  -0.00000  -0.00000  -0.00000
   2        2S         -0.00005  -0.00010  -0.00010  -0.00010  -0.00007
   3        3S          0.00000   0.00000   0.00000   0.00000   0.00000
   4        4S          0.00011   0.00023   0.00023   0.00022   0.00015
   5        5S         -0.00038  -0.00089  -0.00086  -0.00084  -0.00061
   6        6S          0.00063   0.00171   0.00162   0.00158   0.00119
   7        7S         -0.00043  -0.00216  -0.00196  -0.00191  -0.00149
   8        8S          0.00041   0.00183   0.00170   0.00170   0.00143
   9        9S         -0.00182  -0.00699  -0.00575  -0.00601  -0.00599
  10       10S          0.00051   0.00146   0.00113   0.00109   0.00164
  11       11PX         0.00000  -0.00001   0.00003  -0.00003  -0.00000
  12       11PY        -0.00002   0.00002   0.00001  -0.00001   0.00000
  13       11PZ        -0.00000  -0.00000  -0.00000  -0.00000   0.00002
  14       12PX        -0.00003   0.00004  -0.00021   0.00021   0.00001
  15       12PY         0.00013  -0.00018  -0.00004   0.00005  -0.00001
  16       12PZ         0.00000   0.00002   0.00001   0.00002  -0.00019
  17       13PX         0.00008  -0.00010   0.00047  -0.00046  -0.00001
  18       13PY        -0.00029   0.00040   0.00010  -0.00012   0.00003
  19       13PZ        -0.00001  -0.00006  -0.00003  -0.00004   0.00043
  20       14PX        -0.00014   0.00019  -0.00092   0.00092   0.00002
  21       14PY         0.00054  -0.00081  -0.00020   0.00023  -0.00006
  22       14PZ         0.00002   0.00011   0.00006   0.00007  -0.00084
  23       15PX         0.00021  -0.00031   0.00146  -0.00146  -0.00004
  24       15PY        -0.00080   0.00131   0.00031  -0.00037   0.00010
  25       15PZ        -0.00002  -0.00018  -0.00009  -0.00011   0.00134
  26       16PX        -0.00032   0.00056  -0.00259   0.00259   0.00007
  27       16PY         0.00119  -0.00236  -0.00055   0.00067  -0.00018
  28       16PZ         0.00003   0.00030   0.00016   0.00019  -0.00222
  29       17PX         0.00079  -0.00090   0.00490  -0.00494  -0.00010
  30       17PY        -0.00290   0.00402   0.00106  -0.00131   0.00024
  31       17PZ        -0.00005  -0.00040  -0.00023  -0.00017   0.00272
  32       18PX        -0.00360   0.00287  -0.01850   0.01871   0.00016
  33       18PY         0.01350  -0.01374  -0.00425   0.00539  -0.00031
  34       18PZ        -0.00010   0.00101   0.00054  -0.00068  -0.00632
  35       19PX         0.00005  -0.00003   0.00018  -0.00027   0.00005
  36       19PY        -0.00029   0.00033   0.00016   0.00006   0.00024
  37       19PZ         0.00011   0.00020   0.00018   0.00007  -0.00016
  38       20D 0        0.00004   0.00005   0.00006   0.00008  -0.00002
  39       20D+1       -0.00001   0.00002  -0.00002   0.00002   0.00001
  40       20D-1        0.00006  -0.00003  -0.00001   0.00001   0.00001
  41       20D+2        0.00011   0.00011  -0.00014  -0.00014   0.00000
  42       20D-2        0.00006   0.00005  -0.00008  -0.00008   0.00000
  43       21D 0       -0.00011  -0.00015  -0.00019  -0.00025   0.00012
  44       21D+1        0.00003  -0.00004   0.00005  -0.00004  -0.00002
  45       21D-1       -0.00015   0.00005   0.00002  -0.00002  -0.00003
  46       21D+2       -0.00030  -0.00034   0.00042   0.00040  -0.00001
  47       21D-2       -0.00016  -0.00016   0.00022   0.00023  -0.00001
  48       22D 0        0.00016   0.00036   0.00039   0.00050  -0.00041
  49       22D+1       -0.00005   0.00004  -0.00006   0.00005   0.00005
  50       22D-1        0.00022  -0.00001  -0.00002   0.00003   0.00004
  51       22D+2        0.00047   0.00073  -0.00083  -0.00078   0.00001
  52       22D-2        0.00025   0.00035  -0.00042  -0.00046   0.00001
[...]
     1  Pa   1.562609
     2  O   -0.286509
     4  O   -0.311153
     6  O   -0.281926
     8  O   -0.280828
    10  F   -0.402192
 Electronic spatial extent (au):  <R**2>=            912.8958
 Charge=              0.0000 electrons
 Dipole moment (field-independent basis, Debye):
    X=             -0.7240    Y=              4.9884    Z=             -0.3001  Tot=              5.0496
 Quadrupole moment (field-independent basis, Debye-Ang):
   XX=            -61.7806   YY=            -68.3368   ZZ=            -61.8668
   XY=              0.3355   XZ=              2.0917   YZ=              2.1465
 Traceless Quadrupole moment (field-independent basis, Debye-Ang):
   XX=              2.2141   YY=             -4.3420   ZZ=              2.1279
   XY=              0.3355   XZ=              2.0917   YZ=              2.1465
 Octapole moment (field-independent basis, Debye-Ang**2):
  XXX=            -15.5116  YYY=             28.5265  ZZZ=             -2.8433  XYY=             -2.9432
  XXY=             18.9844  XXZ=              2.6012  XZZ=             10.4831  YZZ=              0.2001
  YYZ=              2.4511  XYZ=             -0.2093
 Hexadecapole moment (field-independent basis, Debye-Ang**3):
 XXXX=           -341.3449 YYYY=           -367.0725 ZZZZ=           -190.5469 XXXY=             10.5956
 XXXZ=             -5.3984 YYYX=            -19.0070 YYYZ=              7.0058 ZZZX=             26.1993
 ZZZY=             15.8509 XXYY=           -116.1811 XXZZ=           -113.1765 YYZZ=           -110.6491
 XXYZ=             -1.9238 YYXZ=             -2.5432 ZZXY=              2.1953
 N-N= 4.866160736905D+02 E-N=-2.851432830915D+03  KE= 5.669785724516D+02
 Orbital energies and kinetic energies (alpha):
                                 1                 2
   1         O               -24.221302         37.161781
   2         O               -18.777045         29.112260
   3         O               -18.768286         29.112585
   4         O               -18.765099         29.112556
   5         O               -18.761734         29.113584
   6         O               -11.115442          4.704737
   7         O                -7.180423          5.038466
   8         O                -7.178009          5.036891
   9         O                -7.175347          5.036660
  10         O                -3.535503          6.839781
  11         O                -3.534863          6.839723
  12         O                -3.533618          6.839750
  13         O                -3.532910          6.838500
  14         O                -3.530864          6.838288
  15         O                -1.728963          6.484968
  16         O                -1.026726          3.549362
  17         O                -0.952622          2.300437
  18         O                -0.931567          2.535335
  19         O                -0.923783          2.714267
  20         O                -0.889020          2.934894
  21         O                -0.803195          2.583713
  22         O                -0.795327          2.698653
  23         O                -0.782730          2.617685
  24         O                -0.452333          2.450940
  25         O                -0.443842          4.320541
  26         O                -0.425323          3.399151
  27         O                -0.402319          2.340523
  28         O                -0.336432          4.229389
  29         O                -0.328534          2.793095
  30         O                -0.325359          3.433881
  31         O                -0.311834          2.468694
  32         O                -0.304741          2.866856
  33         O                -0.292685          2.359700
  34         O                -0.290337          3.214878
  35         O                -0.285864          3.186317
  36         O                -0.274301          4.078573
  37         O                -0.272970          2.641190
  38         O                -0.263246          3.660683
  39         V                -0.133885        167.919125
  40         V                -0.126030          5.662914
  41         V                -0.115076         10.006912
  42         V                -0.114271          8.878885
  43         V                -0.104210         27.313034
  44         V                -0.098627        178.974741
  45         V                -0.081480          8.252966
  46         V                -0.074187          5.302327
  47         V                -0.033401         17.145407
  48         V                -0.001170          1.339264
  49         V                 0.005840          2.284857
  50         V                 0.013003          1.640755
  51         V                 0.021444          1.631107
  52         V                 0.028289          2.037298
  53         V                 0.034846          1.941300
  54         V                 0.042927          1.524918
  55         V                 0.061810          0.728465
  56         V                 0.095797          6.526394
  57         V                 0.109459          0.872293
  58         V                 0.126877          1.051667
  59         V                 0.165803          2.245674
  60         V                 0.226700          1.279687
  61         V                 0.238139          1.053548
  62         V                 0.247023          1.219461
  63         V                 0.262422          1.401171
  64         V                 0.274320          1.355502
  65         V                 0.280149          1.212164
  66         V                 0.281424          1.208927
  67         V                 0.291281          1.147479
  68         V                 0.306647          2.204544
  69         V                 0.313667          2.296250
  70         V                 0.351464          1.376238
  71         V                 0.361327          1.450683
  72         V                 0.376410          1.774978
  73         V                 0.394660          2.223648
  74         V                 0.419987          1.633886
  75         V                 0.425737          1.520513
  76         V                 0.434099          1.569602
  77         V                 0.440406          1.886504
  78         V                 0.463885          1.703157
  79         V                 0.475166          1.713241
  80         V                 0.505645          2.648068
  81         V                 0.517066          1.867475
  82         V                 0.525811          1.575627
  83         V                 0.536057          2.337828
  84         V                 0.553180          1.714167
  85         V                 0.561344          1.716963
  86         V                 0.579236          1.571477
  87         V                 0.599134          2.578595
  88         V                 0.635633          1.582718
  89         V                 0.675544          2.154402
  90         V                 0.704121          2.063428
  91         V                 0.718784          1.602417
  92         V                 0.744735          1.687431
  93         V                 0.749261          1.697202
  94         V                 0.768472          1.803779
  95         V                 0.817424          1.778337
  96         V                 0.833649          1.763803
  97         V                 0.859327          1.804592
  98         V                 0.934596          3.692602
  99         V                 0.939961          2.273412
 100         V                 1.029703          2.616788
 101         V                 1.057176          2.802675
 102         V                 1.073739          2.733830
 103         V                 1.081976          2.686278
 104         V                 1.097498          2.494271
 105         V                 1.102340          3.196898
 106         V                 1.114531          3.213969
 107         V                 1.121544          2.576194
 108         V                 1.133483          2.891898
 109         V                 1.152058          2.654585
 110         V                 1.155240          2.726685
 111         V                 1.162931          2.335231
 112         V                 1.201148          2.576484
 113         V                 1.239695          2.693417
 114         V                 1.253917          3.715797
 115         V                 1.261761          3.407376
 116         V                 1.280681          3.486187
 117         V                 1.298910          2.694837
 118         V                 1.341526          2.722287
 119         V                 1.348539          2.823045
 120         V                 1.374576          2.372511
 121         V                 1.379211          2.506497
 122         V                 1.411420          2.641815
 123         V                 1.467555          2.961900
 124         V                 1.484194          2.638126
 125         V                 1.514639          3.165927
 126         V                 1.541716          3.258359
 127         V                 1.563926          3.472296
 128         V                 1.574863          3.406940
 129         V                 1.578685          3.401424
 130         V                 1.598512          3.421953
 131         V                 1.667425          3.258317
 132         V                 1.705198          3.408549
 133         V                 1.714781          3.084093
 134         V                 1.725490          3.338766
 135         V                 1.748357          3.399221
 136         V                 1.765670          3.596701
 137         V                 1.801105          3.402074
 138         V                 1.816103          3.634228
 139         V                 1.849196          3.474140
 140         V                 1.883672          3.427864
 141         V                 1.908842          3.567451
 142         V                 1.959173          3.537346
 143         V                 1.981095          3.117210
 144         V                 2.030060          3.216117
 145         V                 2.092421          4.099731
 146         V                 2.127467          3.844490
 147         V                 2.144785          3.530995
 148         V                 2.151643          3.885816
 149         V                 2.178553          3.509341
 150         V                 2.205699          3.878893
 151         V                 2.212753          4.035080
 152         V                 2.231186          4.168203
 153         V                 2.251983          3.923657
 154         V                 2.275613          5.351334
 155         V                 2.320575          4.182948
 156         V                 2.356814          4.273990
 157         V                 2.386998          4.244350
 158         V                 2.458440          4.163339
 159         V                 2.501129          4.319395
 160         V                 2.535862          4.167068
 161         V                 2.561916          6.794497
 162         V                 2.597809          6.669739
 163         V                 2.618881          6.199436
 164         V                 2.635005          5.838628
 165         V                 2.657081          6.309593
 166         V                 2.677122          6.131177
 167         V                 2.692682          6.335456
 168         V                 2.710841          6.408073
 169         V                 2.754758          6.276870
 170         V                 2.791588          6.503768
 171         V                 2.890231          6.867749
 172         V                 2.928853          6.815675
 173         V                 2.989875          6.622728
 174         V                 3.242758          8.725832
 175         V                 3.246065          8.702207
 176         V                 3.370686          8.552202
 177         V                 3.420587          8.609572
 178         V                 3.446092          8.836406
 179         V                 3.586206          7.954933
 180         V                 3.654695          8.518395
 181         V                 3.684764          6.558164
 182         V                 3.696461          7.237699
 183         V                 3.710899          7.508379
 184         V                 3.748518          8.492606
 185         V                 3.835115          9.551144
 186         V                 3.854665          9.511518
 187         V                 3.894465          8.857414
 188         V                 4.031869          9.142860
 189         V                 4.101109          9.559173
 190         V                 4.139674          9.356619
 191         V                 4.182121          9.647615
 192         V                 4.331987         10.197259
 193         V                 4.999489          6.441544
 194         V                 5.004329          6.452040
 195         V                 5.009880          6.446993
 196         V                 5.012920          6.465009
 197         V                 5.015586          6.463977
 198         V                 5.021052          6.480328
 199         V                 5.027483          6.477833
 200         V                 5.035559          6.485511
 201         V                 5.065031          6.683284
 202         V                 5.075578          6.722175
 203         V                 5.109407          6.709187
 204         V                 5.113569          6.693243
 205         V                 5.131019          6.783177
 206         V                 5.137790          6.930232
 207         V                 5.157022          7.024801
 208         V                 5.174106          6.878796
 209         V                 5.307014          7.021738
 210         V                 5.313955          6.903963
 211         V                 5.333965          6.996643
 212         V                 5.355092          7.633662
 213         V                 5.378291          7.029415
 214         V                 5.416552          7.116168
 215         V                 5.429401          7.205273
 216         V                 5.440418          7.188282
 217         V                 6.001420         10.881927
 218         V                 6.083392          9.021246
 219         V                 6.089694          8.955790
 220         V                 6.107623          9.135460
 221         V                 6.133026          9.298390
 222         V                 6.158089          9.294967
 223         V                 6.180834          9.246835
 224         V                 6.199737          9.319676
 225         V                 6.219626          9.323971
 226         V                 6.239317          9.261201
 227         V                 6.269893          9.417858
 228         V                 6.300914          9.414491
 229         V                 6.306055          9.404848
 230         V                 6.394589          9.596621
 231         V                 6.422431          9.622868
 232         V                 6.451437          9.624658
 233         V                 6.468347          9.651165
 234         V                 6.604453         10.058745
 235         V                 6.642166         10.376652
 236         V                 6.652408         10.279009
 237         V                 6.748396          9.283417
 238         V                 6.779307          8.634261
 239         V                 6.779553          8.644329
 240         V                 6.781006          8.654185
 241         V                 6.803166          8.993462
 242         V                 6.837920          8.866882
 243         V                 6.843943          8.853438
 244         V                 6.890276          9.581253
 245         V                 6.926582         10.064861
 246         V                 6.962187          9.913672
 247         V                 7.000457         10.058530
 248         V                 7.056407         10.903224
 249         V                 7.254078         12.926008
 250         V                 7.349043         13.412580
 251         V                 7.433492         13.676184
 252         V                 8.092220         15.311443
 253         V                 8.130376         15.240257
 254         V                 8.156533         13.756208
 255         V                 8.185370         14.345002
 256         V                 8.206032         12.532809
 257         V                 8.399617         13.262687
 258         V                 8.441175         13.304657
 259         V                 8.579764         15.173367
 260         V                 8.729286         14.813182
 261         V                 9.057626         15.426591
 262         V                29.287246         36.026959
 263         V                29.393723         36.124200
 264         V                29.431296         36.172920
 265         V                43.201412        108.559493
 266         V                43.304849        108.647391
 267         V                43.358328        108.730004
 268         V                43.375694        108.726643
 269         V                54.058550         40.009493
 270         V                56.704522        141.625580
 271         V                70.200753         83.947912
 272         V                70.258354         84.062108
 273         V                70.283375         84.104520
 274         V               142.588500        242.426952
 275         V               142.701087        242.568538
 276         V               142.747841        242.627272
 277         V               202.567003        130.074913
 278         V               626.079084       1034.492321
 Total kinetic energy from orbitals= 5.669785724516D+02
 No NMR shielding tensors so no spin-rotation constants.
 Leave Link  601 at Tue Jul  4 09:45:25 2023, MaxMem=  2147483648 cpu:               3.5 elap:               0.6
 (Enter /home/pcmt/gaussian/g16.C.01/g16/l9999.exe)

 Test job not archived.
 1\1\GINC-U-0-13\SP\RBP86\Gen\F1H4O4Pa1\ROOT\04-Jul-2023\0\\#p BP86/GEN
  Pseudo=Read GFInput GFPrint IOP(6/7=3) Symm=(Loose) Int=(UltraFine) G
 uess=(Harris) Scf=(NoVarAcc,MaxCycle=100,conver=8)\\pa_oh4_f-bp86-cosm
 ors-deftzvp-gp.com SGP in PCM calculation\\0,1\Pa,0,0.5323281568,0.051
 6430759,0.2672880064\O,0,1.4016669326,1.7013369316,-0.7466253606\H,0,1
 .0623645272,2.3562869248,-1.3697605192\O,0,-1.3693527966,0.9400540802,
 0.1712745157\H,0,-2.0747894485,1.3257563455,-0.3602536016\O,0,0.302949
 1255,-1.0321205669,-1.5344365723\H,0,-0.1104692258,-1.8658997241,-1.78
 50825337\O,0,-0.2072234195,-1.5121838739,1.4963720622\H,0,-1.106880754
 7,-1.7813383101,1.7218542851\F,0,2.5149276455,-0.6583321535,0.66295143
 36\\Version=ES64L-G16RevC.01\State=1-A\HF=-845.267244\RMSD=4.018e-09\D
 ipole=-1.8846296,0.6235335,-0.078923\Quadrupole=-2.7400776,2.5213736,0
 .2187041,2.0306337,1.2551901,0.4345634\PG=C01 [X(F1H4O4Pa1)]\\@


 IF I AM NOT FOR MYSELF, WHO WILL BE?
 BUT IF I AM ONLY FOR MYSELF, WHAT AM I?
 THOUGH A SEEKER SINCE MY BIRTH,
 HERE IS ALL I'VE LEARNED ON EARTH,
 THIS IS THE GIST OF WHAT I KNOW:
 GIVE ADVICE AND BUY A FOE.

 PRESSED FOR RULES AND VERITIES,
 ALL I RECOLLECT ARE THESE:
 FEED A COLD TO STARVE A FEVER,
 ARGUE WITH NO TRUE-BELIEVER.
 THINK-TOO-LONG IS NEVER-ACT,
 SCRATCH A MYTH AND FIND A FACT.

 STITCH IN TIME SAVES TWENTY STITCHES,
 GIVE THE RICH TO PLEASE THEM, RICHES.
 GIVE TO LOVE YOU HEARTH AND HALL,
 BUT DO NOT GIVE ADVICE AT ALL.

                                  -- HILLEL
 Job cpu time:       0 days  0 hours 11 minutes  2.9 seconds.
 Elapsed time:       0 days  0 hours  1 minutes 53.6 seconds.
 File lengths (MBytes):  RWF=     33 Int=      0 D2E=      0 Chk=      6 Scr=      1
 Normal termination of Gaussian 16 at Tue Jul  4 09:45:26 2023.
