 Entering Gaussian System, Link 0=/home/pcmt/gaussian/g16.C.01/g16/g16
 AtFile(1): /home/shaaban/basis.gaussian/Pa-def-TZVP
 AtFile(1): /home/shaaban/basis.gaussian/Pa-ECP60MWB
 Initial command:
 /home/pcmt/gaussian/g16.C.01/g16/l1.exe "/state/partition2/shaaban/972846.phlam-s-sakura/Gau-145446.inp" -scrdir="/state/partition2/shaaban/972846.phlam-s-sakura/"
 Entering Link 1 = /home/pcmt/gaussian/g16.C.01/g16/l1.exe PID=    145447.
  
 Copyright (c) 1988-2019, Gaussian, Inc.  All Rights Reserved.
  
 This is part of the Gaussian(R) 16 program.  It is based on
 the Gaussian(R) 09 system (copyright 2009, Gaussian, Inc.),
 the Gaussian(R) 03 system (copyright 2003, Gaussian, Inc.),
 the Gaussian(R) 98 system (copyright 1998, Gaussian, Inc.),
 the Gaussian(R) 94 system (copyright 1995, Gaussian, Inc.),
 the Gaussian 92(TM) system (copyright 1992, Gaussian, Inc.),
 the Gaussian 90(TM) system (copyright 1990, Gaussian, Inc.),
 the Gaussian 88(TM) system (copyright 1988, Gaussian, Inc.),
 the Gaussian 86(TM) system (copyright 1986, Carnegie Mellon
 University), and the Gaussian 82(TM) system (copyright 1983,
 Carnegie Mellon University). Gaussian is a federally registered
 trademark of Gaussian, Inc.
  
 This software contains proprietary and confidential information,
 including trade secrets, belonging to Gaussian, Inc.
  
 This software is provided under written license and may be
 used, copied, transmitted, or stored only in accord with that
 written license.
  
 The following legend is applicable only to US Government
 contracts under FAR:
  
                    RESTRICTED RIGHTS LEGEND
  
 Use, reproduction and disclosure by the US Government is
 subject to restrictions as set forth in subparagraphs (a)
 and (c) of the Commercial Computer Software - Restricted
 Rights clause in FAR 52.227-19.
  
 Gaussian, Inc.
 340 Quinnipiac St., Bldg. 40, Wallingford CT 06492
  
  
 ---------------------------------------------------------------
 Warning -- This program may not be used in any manner that
 competes with the business of Gaussian, Inc. or will provide
 assistance to any competitor of Gaussian, Inc.  The licensee
 of this program is prohibited from giving any competitor of
 Gaussian, Inc. access to this program.  By using this program,
 the user acknowledges that Gaussian, Inc. is engaged in the
 business of creating and licensing software in the field of
 computational chemistry and represents and warrants to the
 licensee that it is not a competitor of Gaussian, Inc. and that
 it will not use this program in any manner prohibited above.
 ---------------------------------------------------------------
  

 Cite this work as:
 Gaussian 16, Revision C.01,
 M. J. Frisch, G. W. Trucks, H. B. Schlegel, G. E. Scuseria, 
 M. A. Robb, J. R. Cheeseman, G. Scalmani, V. Barone, 
 G. A. Petersson, H. Nakatsuji, X. Li, M. Caricato, A. V. Marenich, 
 J. Bloino, B. G. Janesko, R. Gomperts, B. Mennucci, H. P. Hratchian, 
 J. V. Ortiz, A. F. Izmaylov, J. L. Sonnenberg, D. Williams-Young, 
 F. Ding, F. Lipparini, F. Egidi, J. Goings, B. Peng, A. Petrone, 
 T. Henderson, D. Ranasinghe, V. G. Zakrzewski, J. Gao, N. Rega, 
 G. Zheng, W. Liang, M. Hada, M. Ehara, K. Toyota, R. Fukuda, 
 J. Hasegawa, M. Ishida, T. Nakajima, Y. Honda, O. Kitao, H. Nakai, 
 T. Vreven, K. Throssell, J. A. Montgomery, Jr., J. E. Peralta, 
 F. Ogliaro, M. J. Bearpark, J. J. Heyd, E. N. Brothers, K. N. Kudin, 
 V. N. Staroverov, T. A. Keith, R. Kobayashi, J. Normand, 
 K. Raghavachari, A. P. Rendell, J. C. Burant, S. S. Iyengar, 
 J. Tomasi, M. Cossi, J. M. Millam, M. Klene, C. Adamo, R. Cammi, 
 J. W. Ochterski, R. L. Martin, K. Morokuma, O. Farkas, 
 J. B. Foresman, and D. J. Fox, Gaussian, Inc., Wallingford CT, 2019.
 
 ******************************************
 Gaussian 16:  ES64L-G16RevC.01  3-Jul-2019
                 4-Jul-2023 
 ******************************************
 %mem=16Gb
 %NProc=8
 Will use up to    8 processors via shared memory.
 %chk=pa_oh4_f-bp86-cosmors-deftzvp-klamt.chk
 ----------------------------------------------------------------------
 #p BP86/GEN Pseudo=Read GFInput GFPrint IOP(6/7=3) Symm=(Loose) Int=(U
 ltraFine) Guess=(Harris) SCRF=(COSMORS) Scf=(NoVarAcc,MaxCycle=100,con
 ver=8)
 ----------------------------------------------------------------------
 1/38=1,172=1/1;
 2/12=2,17=4,18=3,40=1/2;
 3/5=7,11=2,16=1,17=8,24=110,25=1,30=1,70=12101,74=404,75=-5/1,2,3;
 4/11=8/1;
 5/5=2,6=8,7=100,38=1/2;
 6/7=3,8=2,9=2,10=2,28=1/1;
 99/5=1,9=1/99;
 Leave Link    1 at Tue Jul  4 09:45:03 2023, MaxMem=  2147483648 cpu:               0.7 elap:               0.1
 (Enter /home/pcmt/gaussian/g16.C.01/g16/l101.exe)
 --------------------------------------------------------------
 pa_oh4_f-bp86-cosmors-deftzvp-klamt.com SGP in PCM calculation
 --------------------------------------------------------------
 Symbolic Z-matrix:
 Charge =  0 Multiplicity = 1
 Pa                    0.53233   0.05164   0.26729 
 O                     1.40167   1.70134  -0.74663 
 H                     1.06236   2.35629  -1.36976 
 O                    -1.36935   0.94005   0.17127 
 H                    -2.07479   1.32576  -0.36025 
 O                     0.30295  -1.03212  -1.53444 
 H                    -0.11047  -1.8659   -1.78508 
 O                    -0.20722  -1.51218   1.49637 
 H                    -1.10688  -1.78134   1.72185 
 F                     2.51493  -0.65833   0.66295 
 
 ITRead=  0  0  0  0  0  0  0  0  0  0
 MicOpt= -1 -1 -1 -1 -1 -1 -1 -1 -1 -1
 NAtoms=     10 NQM=       10 NQMF=       0 NMMI=      0 NMMIF=      0
                NMic=       0 NMicF=      0.
                    Isotopes and Nuclear Properties:
 (Nuclear quadrupole moments (NQMom) in fm**2, nuclear magnetic moments (NMagM)
  in nuclear magnetons)

  Atom         1           2           3           4           5           6           7           8           9          10
 IAtWgt=         231          16           1          16           1          16           1          16           1          19
 AtmWgt= 231.0359000  15.9949146   1.0078250  15.9949146   1.0078250  15.9949146   1.0078250  15.9949146   1.0078250  18.9984032
 NucSpn=           3           0           1           0           1           0           1           0           1           1
 AtZEff=  -0.0000000  -0.0000000  -0.0000000  -0.0000000  -0.0000000  -0.0000000  -0.0000000  -0.0000000  -0.0000000  -0.0000000
 NQMom= -172.0000000   0.0000000   0.0000000   0.0000000   0.0000000   0.0000000   0.0000000   0.0000000   0.0000000   0.0000000
 NMagM=    2.0100000   0.0000000   2.7928460   0.0000000   2.7928460   0.0000000   2.7928460   0.0000000   2.7928460   2.6288670
 AtZNuc=  91.0000000   8.0000000   1.0000000   8.0000000   1.0000000   8.0000000   1.0000000   8.0000000   1.0000000   9.0000000
 Leave Link  101 at Tue Jul  4 09:45:03 2023, MaxMem=  2147483648 cpu:               0.6 elap:               0.1
 (Enter /home/pcmt/gaussian/g16.C.01/g16/l202.exe)
                          Input orientation:                          
 ---------------------------------------------------------------------
 Center     Atomic      Atomic             Coordinates (Angstroms)
 Number     Number       Type             X           Y           Z
 ---------------------------------------------------------------------
      1         91           0        0.532328    0.051643    0.267288
      2          8           0        1.401667    1.701337   -0.746625
      3          1           0        1.062365    2.356287   -1.369761
      4          8           0       -1.369353    0.940054    0.171275
      5          1           0       -2.074789    1.325756   -0.360254
      6          8           0        0.302949   -1.032121   -1.534437
      7          1           0       -0.110469   -1.865900   -1.785083
      8          8           0       -0.207223   -1.512184    1.496372
      9          1           0       -1.106881   -1.781338    1.721854
     10          9           0        2.514928   -0.658332    0.662951
 ---------------------------------------------------------------------
                    Distance matrix (angstroms):
                    1          2          3          4          5
     1  Pa   0.000000
     2  O    2.122560   0.000000
     3  H    2.876152   0.965600   0.000000
     4  O    2.101162   3.016727   3.208388   0.000000
     5  H    2.968878   3.517967   3.452945   0.963810   0.000000
     6  O    2.115034   3.049527   3.476368   3.097663   3.548511
     7  H    2.881386   4.011250   4.401692   3.644928   4.009409
     8  O    2.122060   4.236305   4.979120   3.019917   3.871533
     9  H    2.857025   4.951286   5.602111   3.143114   3.863426
    10  F    2.142735   2.965518   3.915327   4.228974   5.103828
                    6          7          8          9         10
     6  O    0.000000
     7  H    0.963808   0.000000
     8  O    3.110713   3.301881   0.000000
     9  H    3.626621   3.646724   0.965748   0.000000
    10  F    3.140236   3.787321   2.972164   3.936993   0.000000
 Stoichiometry    FH4O4Pa
 Framework group  C1[X(FH4O4Pa)]
 Deg. of freedom    24
 Full point group                 C1      NOp   1
 Largest Abelian subgroup         C1      NOp   1
 Largest concise Abelian subgroup C1      NOp   1
                         Standard orientation:                         
 ---------------------------------------------------------------------
 Center     Atomic      Atomic             Coordinates (Angstroms)
 Number     Number       Type             X           Y           Z
 ---------------------------------------------------------------------
      1         91           0        0.002495   -0.010468   -0.109660
      2          8           0       -2.039395   -0.582375   -0.203826
      3          1           0       -2.869072   -0.131657   -0.001656
      4          8           0       -0.508798    2.012925   -0.353259
      5          1           0       -1.012310    2.779068   -0.055887
      6          8           0       -0.035969    0.059490    2.003867
      7          1           0        0.580979    0.332605    2.692132
      8          8           0        2.070177    0.444908   -0.252711
      9          1           0        2.546265    1.284800   -0.228410
     10          9           0        0.515444   -2.087975   -0.219963
 ---------------------------------------------------------------------
 Rotational constants (GHZ):           2.1187485           2.0610255           1.5491306
 Leave Link  202 at Tue Jul  4 09:45:03 2023, MaxMem=  2147483648 cpu:               0.1 elap:               0.1
 (Enter /home/pcmt/gaussian/g16.C.01/g16/l301.exe)
 General basis read from cards:  (5D, 7F)
 Centers:       1
 S 3 1.00
     Exponent=  1.2047376000D+04 Coefficients=  3.4500000000D-04
     Exponent=  1.8116841000D+03 Coefficients=  2.7420000000D-03
     Exponent=  3.4770104000D+02 Coefficients=  1.0053000000D-02
 S 1 1.00
     Exponent=  9.8678010000D+01 Coefficients=  1.0000000000D+00
 S 3 1.00
     Exponent=  5.7507376000D+01 Coefficients=  5.1528000000D-02
     Exponent=  3.3502601000D+01 Coefficients= -2.3692400000D-01
     Exponent=  1.9554451000D+01 Coefficients=  7.1904800000D-01
 S 1 1.00
     Exponent=  9.7164210000D+00 Coefficients=  1.0000000000D+00
 S 1 1.00
     Exponent=  2.6920960000D+00 Coefficients=  1.0000000000D+00
 S 1 1.00
     Exponent=  1.4538470000D+00 Coefficients=  1.0000000000D+00
 S 1 1.00
     Exponent=  5.7435200000D-01 Coefficients=  1.0000000000D+00
 S 1 1.00
     Exponent=  2.6346800000D-01 Coefficients=  1.0000000000D+00
 S 1 1.00
     Exponent=  5.6557000000D-02 Coefficients=  1.0000000000D+00
 S 1 1.00
     Exponent=  2.3169000000D-02 Coefficients=  1.0000000000D+00
 P 5 1.00
     Exponent=  2.9033676000D+03 Coefficients=  3.5000000000D-05
     Exponent=  6.4486356000D+02 Coefficients=  2.0500000000D-04
     Exponent=  2.2025896000D+02 Coefficients=  1.2510000000D-03
     Exponent=  8.0276401000D+01 Coefficients=  2.4570000000D-03
     Exponent=  2.4080211000D+01 Coefficients=  1.1190000000D-02
 P 1 1.00
     Exponent=  1.4077580000D+01 Coefficients=  1.0000000000D+00
 P 1 1.00
     Exponent=  8.2658460000D+00 Coefficients=  1.0000000000D+00
 P 1 1.00
     Exponent=  3.5948000000D+00 Coefficients=  1.0000000000D+00
 P 1 1.00
     Exponent=  1.7531110000D+00 Coefficients=  1.0000000000D+00
 P 1 1.00
     Exponent=  6.5776700000D-01 Coefficients=  1.0000000000D+00
 P 1 1.00
     Exponent=  2.8463900000D-01 Coefficients=  1.0000000000D+00
 P 1 1.00
     Exponent=  1.0054300000D-01 Coefficients=  1.0000000000D+00
 P 1 1.00
     Exponent=  3.0190000000D-02 Coefficients=  1.0000000000D+00
 D 6 1.00
     Exponent=  4.4814991000D+02 Coefficients=  2.6000000000D-05
     Exponent=  1.5446145000D+02 Coefficients=  2.2800000000D-04
     Exponent=  6.0925377000D+01 Coefficients=  9.0400000000D-04
     Exponent=  1.7032091000D+01 Coefficients=  2.5647000000D-02
     Exponent=  1.0018877000D+01 Coefficients= -1.0575100000D-01
     Exponent=  3.4091930000D+00 Coefficients=  4.4743200000D-01
 D 1 1.00
     Exponent=  1.6702130000D+00 Coefficients=  1.0000000000D+00
 D 1 1.00
     Exponent=  7.4109500000D-01 Coefficients=  1.0000000000D+00
 D 1 1.00
     Exponent=  2.6139300000D-01 Coefficients=  1.0000000000D+00
 D 1 1.00
     Exponent=  8.2811000000D-02 Coefficients=  1.0000000000D+00
 F 5 1.00
     Exponent=  8.7991327000D+01 Coefficients=  2.2600000000D-04
     Exponent=  2.8340195000D+01 Coefficients=  2.3230000000D-03
     Exponent=  1.2440994000D+01 Coefficients=  4.5850000000D-03
     Exponent=  3.9572960000D+00 Coefficients=  1.5696100000D-01
     Exponent=  1.8759440000D+00 Coefficients=  3.4497700000D-01
 F 1 1.00
     Exponent=  8.2758900000D-01 Coefficients=  1.0000000000D+00
 F 1 1.00
     Exponent=  3.3274800000D-01 Coefficients=  1.0000000000D+00
 F 1 1.00
     Exponent=  1.1468500000D-01 Coefficients=  1.0000000000D+00
 G 1 1.00
     Exponent=  3.5000000000D-01 Coefficients=  1.0000000000D+00
 ****
 Centers:       2      4      6      8
 Def2TZVP
 ****
 Centers:       3      5      7      9
 Def2TZVP
 ****
 Centers:      10
 Def2TZVP
 ****
 ======================================================================================================
                                       Pseudopotential Parameters
 ======================================================================================================
  Center     Atomic      Valence      Angular      Power
  Number     Number     Electrons     Momentum     of R      Exponent        Coefficient   SO-Coeffient
 ======================================================================================================
    1         91           31
                                      H and up 
                                                     2        1.0000000        0.00000000    0.00000000
                                      S - H
                                                     2       15.2691737      475.47573283    0.00000000
                                      P - H
                                                     2        9.9577370      207.66485962    0.00000000
                                      D - H
                                                     2        8.9431413      156.67411988    0.00000000
                                      F - H
                                                     2        7.0104666       67.98223685    0.00000000
                                      G - H
                                                     2       12.2010560      -57.63059989    0.00000000
    2          8
                                   No pseudopotential on this center.
    3          1
                                   No pseudopotential on this center.
    4          8
                                   No pseudopotential on this center.
    5          1
                                   No pseudopotential on this center.
    6          8
                                   No pseudopotential on this center.
    7          1
                                   No pseudopotential on this center.
    8          8
                                   No pseudopotential on this center.
    9          1
                                   No pseudopotential on this center.
   10          9
                                   No pseudopotential on this center.
 ======================================================================================================
 Ernie: Thresh=  0.10000D-02 Tol=  0.10000D-05 Strict=F.
 AO basis set in the form of general basis input (Overlap normalization):
      1 0
 S   3 1.00       0.000000000000
      0.1204737600D+05  0.2857094961D-01
      0.1811684100D+04  0.2270769386D+00
      0.3477010400D+03  0.8325326273D+00
 S   3 1.00       0.000000000000
      0.5750737600D+02  0.9569327984D-01
      0.3350260100D+02 -0.4399944619D+00
      0.1955445100D+02  0.1335352847D+01
 S   1 1.00       0.000000000000
      0.9867801000D+02  0.1000000000D+01
 S   1 1.00       0.000000000000
      0.9716421000D+01  0.1000000000D+01
 S   1 1.00       0.000000000000
      0.2692096000D+01  0.1000000000D+01
 S   1 1.00       0.000000000000
      0.1453847000D+01  0.1000000000D+01
 S   1 1.00       0.000000000000
      0.5743520000D+00  0.1000000000D+01
 S   1 1.00       0.000000000000
      0.2634680000D+00  0.1000000000D+01
 S   1 1.00       0.000000000000
      0.5655700000D-01  0.1000000000D+01
 S   1 1.00       0.000000000000
      0.2316900000D-01  0.1000000000D+01
 P   5 1.00       0.000000000000
      0.2903367600D+04  0.2594222647D-02
      0.6448635600D+03  0.1519473264D-01
      0.2202589600D+03  0.9272492945D-01
      0.8027640100D+02  0.1821144298D+00
      0.2408021100D+02  0.8294100404D+00
 P   1 1.00       0.000000000000
      0.1407758000D+02  0.1000000000D+01
 P   1 1.00       0.000000000000
      0.8265846000D+01  0.1000000000D+01
 P   1 1.00       0.000000000000
      0.3594800000D+01  0.1000000000D+01
 P   1 1.00       0.000000000000
      0.1753111000D+01  0.1000000000D+01
 P   1 1.00       0.000000000000
      0.6577670000D+00  0.1000000000D+01
 P   1 1.00       0.000000000000
      0.2846390000D+00  0.1000000000D+01
 P   1 1.00       0.000000000000
      0.1005430000D+00  0.1000000000D+01
 P   1 1.00       0.000000000000
      0.3019000000D-01  0.1000000000D+01
 D   6 1.00       0.000000000000
      0.4481499100D+03  0.6556927566D-04
      0.1544614500D+03  0.5749921096D-03
      0.6092537700D+02  0.2279793277D-02
      0.1703209100D+02  0.6467904664D-01
      0.1001887700D+02 -0.2666929411D+00
      0.3409193000D+01  0.1128376621D+01
 D   1 1.00       0.000000000000
      0.1670213000D+01  0.1000000000D+01
 D   1 1.00       0.000000000000
      0.7410950000D+00  0.1000000000D+01
 D   1 1.00       0.000000000000
      0.2613930000D+00  0.1000000000D+01
 D   1 1.00       0.000000000000
      0.8281100000D-01  0.1000000000D+01
 F   5 1.00       0.000000000000
      0.8799132700D+02  0.4766318191D-03
      0.2834019500D+02  0.4899184583D-02
      0.1244099400D+02  0.9669720755D-02
      0.3957296000D+01  0.3310292343D+00
      0.1875944000D+01  0.7275531640D+00
 F   1 1.00       0.000000000000
      0.8275890000D+00  0.1000000000D+01
 F   1 1.00       0.000000000000
      0.3327480000D+00  0.1000000000D+01
 F   1 1.00       0.000000000000
      0.1146850000D+00  0.1000000000D+01
 G   1 1.00       0.000000000000
      0.3500000000D+00  0.1000000000D+01
 ****
      2 0
 S   6 1.00       0.000000000000
      0.2703238263D+05  0.5722733521D-03
      0.4052387139D+04  0.4435323349D-02
      0.9223272271D+03  0.2302010771D-01
      0.2612407099D+03  0.9282249067D-01
      0.8535464135D+02  0.2937850001D+00
      0.3103503524D+02  0.6740160450D+00
 S   2 1.00       0.000000000000
      0.1226086073D+02  0.6383993703D+00
      0.4998707601D+01  0.3953458713D+00
 S   1 1.00       0.000000000000
      0.1170310816D+01  0.1000000000D+01
 S   1 1.00       0.000000000000
      0.4647474099D+00  0.1000000000D+01
 S   1 1.00       0.000000000000
      0.1850453636D+00  0.1000000000D+01
 P   4 1.00       0.000000000000
      0.6327495480D+02  0.1201833222D-01
      0.1462704938D+02  0.8300542179D-01
      0.4450122346D+01  0.3199174393D+00
      0.1527579965D+01  0.7071554292D+00
 P   1 1.00       0.000000000000
      0.5293511794D+00  0.1000000000D+01
 P   1 1.00       0.000000000000
      0.1747842127D+00  0.1000000000D+01
 D   1 1.00       0.000000000000
      0.2314000000D+01  0.1000000000D+01
 D   1 1.00       0.000000000000
      0.6450000000D+00  0.1000000000D+01
 F   1 1.00       0.000000000000
      0.1428000000D+01  0.1000000000D+01
 ****
      3 0
 S   3 1.00       0.000000000000
      0.3406134100D+02  0.2543930721D-01
      0.5123574600D+01  0.1900859489D+00
      0.1164662600D+01  0.8524411301D+00
 S   1 1.00       0.000000000000
      0.3272304100D+00  0.1000000000D+01
 S   1 1.00       0.000000000000
      0.1030724100D+00  0.1000000000D+01
 P   1 1.00       0.000000000000
      0.8000000000D+00  0.1000000000D+01
 ****
      4 0
 S   6 1.00       0.000000000000
      0.2703238263D+05  0.5722733521D-03
      0.4052387139D+04  0.4435323349D-02
      0.9223272271D+03  0.2302010771D-01
      0.2612407099D+03  0.9282249067D-01
      0.8535464135D+02  0.2937850001D+00
      0.3103503524D+02  0.6740160450D+00
 S   2 1.00       0.000000000000
      0.1226086073D+02  0.6383993703D+00
      0.4998707601D+01  0.3953458713D+00
 S   1 1.00       0.000000000000
      0.1170310816D+01  0.1000000000D+01
 S   1 1.00       0.000000000000
      0.4647474099D+00  0.1000000000D+01
 S   1 1.00       0.000000000000
      0.1850453636D+00  0.1000000000D+01
 P   4 1.00       0.000000000000
      0.6327495480D+02  0.1201833222D-01
      0.1462704938D+02  0.8300542179D-01
      0.4450122346D+01  0.3199174393D+00
      0.1527579965D+01  0.7071554292D+00
 P   1 1.00       0.000000000000
      0.5293511794D+00  0.1000000000D+01
 P   1 1.00       0.000000000000
      0.1747842127D+00  0.1000000000D+01
 D   1 1.00       0.000000000000
      0.2314000000D+01  0.1000000000D+01
 D   1 1.00       0.000000000000
      0.6450000000D+00  0.1000000000D+01
 F   1 1.00       0.000000000000
      0.1428000000D+01  0.1000000000D+01
 ****
      5 0
 S   3 1.00       0.000000000000
      0.3406134100D+02  0.2543930721D-01
      0.5123574600D+01  0.1900859489D+00
      0.1164662600D+01  0.8524411301D+00
 S   1 1.00       0.000000000000
      0.3272304100D+00  0.1000000000D+01
 S   1 1.00       0.000000000000
      0.1030724100D+00  0.1000000000D+01
 P   1 1.00       0.000000000000
      0.8000000000D+00  0.1000000000D+01
 ****
      6 0
 S   6 1.00       0.000000000000
      0.2703238263D+05  0.5722733521D-03
      0.4052387139D+04  0.4435323349D-02
      0.9223272271D+03  0.2302010771D-01
      0.2612407099D+03  0.9282249067D-01
      0.8535464135D+02  0.2937850001D+00
      0.3103503524D+02  0.6740160450D+00
 S   2 1.00       0.000000000000
      0.1226086073D+02  0.6383993703D+00
      0.4998707601D+01  0.3953458713D+00
 S   1 1.00       0.000000000000
      0.1170310816D+01  0.1000000000D+01
 S   1 1.00       0.000000000000
      0.4647474099D+00  0.1000000000D+01
 S   1 1.00       0.000000000000
      0.1850453636D+00  0.1000000000D+01
 P   4 1.00       0.000000000000
      0.6327495480D+02  0.1201833222D-01
      0.1462704938D+02  0.8300542179D-01
      0.4450122346D+01  0.3199174393D+00
      0.1527579965D+01  0.7071554292D+00
 P   1 1.00       0.000000000000
      0.5293511794D+00  0.1000000000D+01
 P   1 1.00       0.000000000000
      0.1747842127D+00  0.1000000000D+01
 D   1 1.00       0.000000000000
      0.2314000000D+01  0.1000000000D+01
 D   1 1.00       0.000000000000
      0.6450000000D+00  0.1000000000D+01
 F   1 1.00       0.000000000000
      0.1428000000D+01  0.1000000000D+01
 ****
      7 0
 S   3 1.00       0.000000000000
      0.3406134100D+02  0.2543930721D-01
      0.5123574600D+01  0.1900859489D+00
      0.1164662600D+01  0.8524411301D+00
 S   1 1.00       0.000000000000
      0.3272304100D+00  0.1000000000D+01
 S   1 1.00       0.000000000000
      0.1030724100D+00  0.1000000000D+01
 P   1 1.00       0.000000000000
      0.8000000000D+00  0.1000000000D+01
 ****
      8 0
 S   6 1.00       0.000000000000
      0.2703238263D+05  0.5722733521D-03
      0.4052387139D+04  0.4435323349D-02
      0.9223272271D+03  0.2302010771D-01
      0.2612407099D+03  0.9282249067D-01
      0.8535464135D+02  0.2937850001D+00
      0.3103503524D+02  0.6740160450D+00
 S   2 1.00       0.000000000000
      0.1226086073D+02  0.6383993703D+00
      0.4998707601D+01  0.3953458713D+00
 S   1 1.00       0.000000000000
      0.1170310816D+01  0.1000000000D+01
 S   1 1.00       0.000000000000
      0.4647474099D+00  0.1000000000D+01
 S   1 1.00       0.000000000000
      0.1850453636D+00  0.1000000000D+01
 P   4 1.00       0.000000000000
      0.6327495480D+02  0.1201833222D-01
      0.1462704938D+02  0.8300542179D-01
      0.4450122346D+01  0.3199174393D+00
      0.1527579965D+01  0.7071554292D+00
 P   1 1.00       0.000000000000
      0.5293511794D+00  0.1000000000D+01
 P   1 1.00       0.000000000000
      0.1747842127D+00  0.1000000000D+01
 D   1 1.00       0.000000000000
      0.2314000000D+01  0.1000000000D+01
 D   1 1.00       0.000000000000
      0.6450000000D+00  0.1000000000D+01
 F   1 1.00       0.000000000000
      0.1428000000D+01  0.1000000000D+01
 ****
      9 0
 S   3 1.00       0.000000000000
      0.3406134100D+02  0.2543930721D-01
      0.5123574600D+01  0.1900859489D+00
      0.1164662600D+01  0.8524411301D+00
 S   1 1.00       0.000000000000
      0.3272304100D+00  0.1000000000D+01
 S   1 1.00       0.000000000000
      0.1030724100D+00  0.1000000000D+01
 P   1 1.00       0.000000000000
      0.8000000000D+00  0.1000000000D+01
 ****
     10 0
 S   6 1.00       0.000000000000
      0.3547910044D+05  0.5618499111D-03
      0.5318472898D+04  0.4355197381D-02
      0.1210481098D+04  0.2261824715D-01
      0.3428551814D+03  0.9140305514D-01
      0.1120194318D+03  0.2911687069D+00
      0.4071474025D+02  0.6777270856D+00
 S   2 1.00       0.000000000000
      0.1603967811D+02  0.6329641788D+00
      0.6503818674D+01  0.4013647573D+00
 S   1 1.00       0.000000000000
      0.1544047751D+01  0.1000000000D+01
 S   1 1.00       0.000000000000
      0.6122345286D+00  0.1000000000D+01
 S   1 1.00       0.000000000000
      0.2402797970D+00  0.1000000000D+01
 P   4 1.00       0.000000000000
      0.8023390048D+02  0.1232134514D-01
      0.1859401074D+02  0.8571339535D-01
      0.5686790265D+01  0.3263310550D+00
      0.1951100629D+01  0.6997111464D+00
 P   1 1.00       0.000000000000
      0.6697021130D+00  0.1000000000D+01
 P   1 1.00       0.000000000000
      0.2165130041D+00  0.1000000000D+01
 D   1 1.00       0.000000000000
      0.3107000000D+01  0.1000000000D+01
 D   1 1.00       0.000000000000
      0.8550000000D+00  0.1000000000D+01
 F   1 1.00       0.000000000000
      0.1917000000D+01  0.1000000000D+01
 ****

 AO basis set (Overlap normalization):
 Atom Pa1      Shell     1 S   3     bf    1 -     1          0.004714542193         -0.019782558575         -0.207227728745
      0.1204737600D+05  0.2857094961D-01
      0.1811684100D+04  0.2270769386D+00
      0.3477010400D+03  0.8325326273D+00
 Atom Pa1      Shell     2 S   3     bf    2 -     2          0.004714542193         -0.019782558575         -0.207227728745
      0.5750737600D+02  0.9569327984D-01
      0.3350260100D+02 -0.4399944619D+00
      0.1955445100D+02  0.1335352847D+01
 Atom Pa1      Shell     3 S   1     bf    3 -     3          0.004714542193         -0.019782558575         -0.207227728745
      0.9867801000D+02  0.1000000000D+01
 Atom Pa1      Shell     4 S   1     bf    4 -     4          0.004714542193         -0.019782558575         -0.207227728745
      0.9716421000D+01  0.1000000000D+01
 Atom Pa1      Shell     5 S   1     bf    5 -     5          0.004714542193         -0.019782558575         -0.207227728745
      0.2692096000D+01  0.1000000000D+01
 Atom Pa1      Shell     6 S   1     bf    6 -     6          0.004714542193         -0.019782558575         -0.207227728745
      0.1453847000D+01  0.1000000000D+01
 Atom Pa1      Shell     7 S   1     bf    7 -     7          0.004714542193         -0.019782558575         -0.207227728745
      0.5743520000D+00  0.1000000000D+01
 Atom Pa1      Shell     8 S   1     bf    8 -     8          0.004714542193         -0.019782558575         -0.207227728745
      0.2634680000D+00  0.1000000000D+01
 Atom Pa1      Shell     9 S   1     bf    9 -     9          0.004714542193         -0.019782558575         -0.207227728745
      0.5655700000D-01  0.1000000000D+01
 Atom Pa1      Shell    10 S   1     bf   10 -    10          0.004714542193         -0.019782558575         -0.207227728745
      0.2316900000D-01  0.1000000000D+01
 Atom Pa1      Shell    11 P   5     bf   11 -    13          0.004714542193         -0.019782558575         -0.207227728745
      0.2903367600D+04  0.2594222647D-02
      0.6448635600D+03  0.1519473264D-01
      0.2202589600D+03  0.9272492945D-01
      0.8027640100D+02  0.1821144298D+00
      0.2408021100D+02  0.8294100404D+00
 Atom Pa1      Shell    12 P   1     bf   14 -    16          0.004714542193         -0.019782558575         -0.207227728745
      0.1407758000D+02  0.1000000000D+01
 Atom Pa1      Shell    13 P   1     bf   17 -    19          0.004714542193         -0.019782558575         -0.207227728745
      0.8265846000D+01  0.1000000000D+01
 Atom Pa1      Shell    14 P   1     bf   20 -    22          0.004714542193         -0.019782558575         -0.207227728745
      0.3594800000D+01  0.1000000000D+01
 Atom Pa1      Shell    15 P   1     bf   23 -    25          0.004714542193         -0.019782558575         -0.207227728745
      0.1753111000D+01  0.1000000000D+01
 Atom Pa1      Shell    16 P   1     bf   26 -    28          0.004714542193         -0.019782558575         -0.207227728745
      0.6577670000D+00  0.1000000000D+01
 Atom Pa1      Shell    17 P   1     bf   29 -    31          0.004714542193         -0.019782558575         -0.207227728745
      0.2846390000D+00  0.1000000000D+01
 Atom Pa1      Shell    18 P   1     bf   32 -    34          0.004714542193         -0.019782558575         -0.207227728745
      0.1005430000D+00  0.1000000000D+01
 Atom Pa1      Shell    19 P   1     bf   35 -    37          0.004714542193         -0.019782558575         -0.207227728745
      0.3019000000D-01  0.1000000000D+01
 Atom Pa1      Shell    20 D   6     bf   38 -    42          0.004714542193         -0.019782558575         -0.207227728745
      0.4481499100D+03  0.6556927566D-04
      0.1544614500D+03  0.5749921096D-03
      0.6092537700D+02  0.2279793277D-02
      0.1703209100D+02  0.6467904664D-01
      0.1001887700D+02 -0.2666929411D+00
      0.3409193000D+01  0.1128376621D+01
 Atom Pa1      Shell    21 D   1     bf   43 -    47          0.004714542193         -0.019782558575         -0.207227728745
      0.1670213000D+01  0.1000000000D+01
 Atom Pa1      Shell    22 D   1     bf   48 -    52          0.004714542193         -0.019782558575         -0.207227728745
      0.7410950000D+00  0.1000000000D+01
 Atom Pa1      Shell    23 D   1     bf   53 -    57          0.004714542193         -0.019782558575         -0.207227728745
      0.2613930000D+00  0.1000000000D+01
 Atom Pa1      Shell    24 D   1     bf   58 -    62          0.004714542193         -0.019782558575         -0.207227728745
      0.8281100000D-01  0.1000000000D+01
 Atom Pa1      Shell    25 F   5     bf   63 -    69          0.004714542193         -0.019782558575         -0.207227728745
      0.8799132700D+02  0.4766318191D-03
      0.2834019500D+02  0.4899184583D-02
      0.1244099400D+02  0.9669720755D-02
      0.3957296000D+01  0.3310292343D+00
      0.1875944000D+01  0.7275531640D+00
 Atom Pa1      Shell    26 F   1     bf   70 -    76          0.004714542193         -0.019782558575         -0.207227728745
      0.8275890000D+00  0.1000000000D+01
 Atom Pa1      Shell    27 F   1     bf   77 -    83          0.004714542193         -0.019782558575         -0.207227728745
      0.3327480000D+00  0.1000000000D+01
 Atom Pa1      Shell    28 F   1     bf   84 -    90          0.004714542193         -0.019782558575         -0.207227728745
      0.1146850000D+00  0.1000000000D+01
 Atom Pa1      Shell    29 G   1     bf   91 -    99          0.004714542193         -0.019782558575         -0.207227728745
      0.3500000000D+00  0.1000000000D+01
 Atom O2       Shell    30 S   6     bf  100 -   100         -3.853898777641         -1.100529203185         -0.385176033264
      0.2703238263D+05  0.5722733521D-03
      0.4052387139D+04  0.4435323349D-02
      0.9223272271D+03  0.2302010771D-01
      0.2612407099D+03  0.9282249067D-01
      0.8535464135D+02  0.2937850001D+00
      0.3103503524D+02  0.6740160450D+00
 Atom O2       Shell    31 S   2     bf  101 -   101         -3.853898777641         -1.100529203185         -0.385176033264
      0.1226086073D+02  0.6383993703D+00
      0.4998707601D+01  0.3953458713D+00
 Atom O2       Shell    32 S   1     bf  102 -   102         -3.853898777641         -1.100529203185         -0.385176033264
      0.1170310816D+01  0.1000000000D+01
 Atom O2       Shell    33 S   1     bf  103 -   103         -3.853898777641         -1.100529203185         -0.385176033264
      0.4647474099D+00  0.1000000000D+01
 Atom O2       Shell    34 S   1     bf  104 -   104         -3.853898777641         -1.100529203185         -0.385176033264
      0.1850453636D+00  0.1000000000D+01
 Atom O2       Shell    35 P   4     bf  105 -   107         -3.853898777641         -1.100529203185         -0.385176033264
      0.6327495480D+02  0.1201833222D-01
      0.1462704938D+02  0.8300542179D-01
      0.4450122346D+01  0.3199174393D+00
      0.1527579965D+01  0.7071554292D+00
 Atom O2       Shell    36 P   1     bf  108 -   110         -3.853898777641         -1.100529203185         -0.385176033264
      0.5293511794D+00  0.1000000000D+01
 Atom O2       Shell    37 P   1     bf  111 -   113         -3.853898777641         -1.100529203185         -0.385176033264
      0.1747842127D+00  0.1000000000D+01
 Atom O2       Shell    38 D   1     bf  114 -   118         -3.853898777641         -1.100529203185         -0.385176033264
      0.2314000000D+01  0.1000000000D+01
 Atom O2       Shell    39 D   1     bf  119 -   123         -3.853898777641         -1.100529203185         -0.385176033264
      0.6450000000D+00  0.1000000000D+01
 Atom O2       Shell    40 F   1     bf  124 -   130         -3.853898777641         -1.100529203185         -0.385176033264
      0.1428000000D+01  0.1000000000D+01
 Atom H3       Shell    41 S   3     bf  131 -   131         -5.421761015463         -0.248796068113         -0.003130283565
      0.3406134100D+02  0.2543930721D-01
      0.5123574600D+01  0.1900859489D+00
      0.1164662600D+01  0.8524411301D+00
 Atom H3       Shell    42 S   1     bf  132 -   132         -5.421761015463         -0.248796068113         -0.003130283565
      0.3272304100D+00  0.1000000000D+01
 Atom H3       Shell    43 S   1     bf  133 -   133         -5.421761015463         -0.248796068113         -0.003130283565
      0.1030724100D+00  0.1000000000D+01
 Atom H3       Shell    44 P   1     bf  134 -   136         -5.421761015463         -0.248796068113         -0.003130283565
      0.8000000000D+00  0.1000000000D+01
 Atom O4       Shell    45 S   6     bf  137 -   137         -0.961488876536          3.803877560303         -0.667562587697
      0.2703238263D+05  0.5722733521D-03
      0.4052387139D+04  0.4435323349D-02
      0.9223272271D+03  0.2302010771D-01
      0.2612407099D+03  0.9282249067D-01
      0.8535464135D+02  0.2937850001D+00
      0.3103503524D+02  0.6740160450D+00
 Atom O4       Shell    46 S   2     bf  138 -   138         -0.961488876536          3.803877560303         -0.667562587697
      0.1226086073D+02  0.6383993703D+00
      0.4998707601D+01  0.3953458713D+00
 Atom O4       Shell    47 S   1     bf  139 -   139         -0.961488876536          3.803877560303         -0.667562587697
      0.1170310816D+01  0.1000000000D+01
 Atom O4       Shell    48 S   1     bf  140 -   140         -0.961488876536          3.803877560303         -0.667562587697
      0.4647474099D+00  0.1000000000D+01
 Atom O4       Shell    49 S   1     bf  141 -   141         -0.961488876536          3.803877560303         -0.667562587697
      0.1850453636D+00  0.1000000000D+01
 Atom O4       Shell    50 P   4     bf  142 -   144         -0.961488876536          3.803877560303         -0.667562587697
      0.6327495480D+02  0.1201833222D-01
      0.1462704938D+02  0.8300542179D-01
      0.4450122346D+01  0.3199174393D+00
      0.1527579965D+01  0.7071554292D+00
 Atom O4       Shell    51 P   1     bf  145 -   147         -0.961488876536          3.803877560303         -0.667562587697
      0.5293511794D+00  0.1000000000D+01
 Atom O4       Shell    52 P   1     bf  148 -   150         -0.961488876536          3.803877560303         -0.667562587697
      0.1747842127D+00  0.1000000000D+01
 Atom O4       Shell    53 D   1     bf  151 -   155         -0.961488876536          3.803877560303         -0.667562587697
      0.2314000000D+01  0.1000000000D+01
 Atom O4       Shell    54 D   1     bf  156 -   160         -0.961488876536          3.803877560303         -0.667562587697
      0.6450000000D+00  0.1000000000D+01
 Atom O4       Shell    55 F   1     bf  161 -   167         -0.961488876536          3.803877560303         -0.667562587697
      0.1428000000D+01  0.1000000000D+01
 Atom H5       Shell    56 S   3     bf  168 -   168         -1.912987768772          5.251678098712         -0.105610616677
      0.3406134100D+02  0.2543930721D-01
      0.5123574600D+01  0.1900859489D+00
      0.1164662600D+01  0.8524411301D+00
 Atom H5       Shell    57 S   1     bf  169 -   169         -1.912987768772          5.251678098712         -0.105610616677
      0.3272304100D+00  0.1000000000D+01
 Atom H5       Shell    58 S   1     bf  170 -   170         -1.912987768772          5.251678098712         -0.105610616677
      0.1030724100D+00  0.1000000000D+01
 Atom H5       Shell    59 P   1     bf  171 -   173         -1.912987768772          5.251678098712         -0.105610616677
      0.8000000000D+00  0.1000000000D+01
 Atom O6       Shell    60 S   6     bf  174 -   174         -0.067971630177          0.112420417459          3.786759345497
      0.2703238263D+05  0.5722733521D-03
      0.4052387139D+04  0.4435323349D-02
      0.9223272271D+03  0.2302010771D-01
      0.2612407099D+03  0.9282249067D-01
      0.8535464135D+02  0.2937850001D+00
      0.3103503524D+02  0.6740160450D+00
 Atom O6       Shell    61 S   2     bf  175 -   175         -0.067971630177          0.112420417459          3.786759345497
      0.1226086073D+02  0.6383993703D+00
      0.4998707601D+01  0.3953458713D+00
 Atom O6       Shell    62 S   1     bf  176 -   176         -0.067971630177          0.112420417459          3.786759345497
      0.1170310816D+01  0.1000000000D+01
 Atom O6       Shell    63 S   1     bf  177 -   177         -0.067971630177          0.112420417459          3.786759345497
      0.4647474099D+00  0.1000000000D+01
 Atom O6       Shell    64 S   1     bf  178 -   178         -0.067971630177          0.112420417459          3.786759345497
      0.1850453636D+00  0.1000000000D+01
 Atom O6       Shell    65 P   4     bf  179 -   181         -0.067971630177          0.112420417459          3.786759345497
      0.6327495480D+02  0.1201833222D-01
      0.1462704938D+02  0.8300542179D-01
      0.4450122346D+01  0.3199174393D+00
      0.1527579965D+01  0.7071554292D+00
 Atom O6       Shell    66 P   1     bf  182 -   184         -0.067971630177          0.112420417459          3.786759345497
      0.5293511794D+00  0.1000000000D+01
 Atom O6       Shell    67 P   1     bf  185 -   187         -0.067971630177          0.112420417459          3.786759345497
      0.1747842127D+00  0.1000000000D+01
 Atom O6       Shell    68 D   1     bf  188 -   192         -0.067971630177          0.112420417459          3.786759345497
      0.2314000000D+01  0.1000000000D+01
 Atom O6       Shell    69 D   1     bf  193 -   197         -0.067971630177          0.112420417459          3.786759345497
      0.6450000000D+00  0.1000000000D+01
 Atom O6       Shell    70 F   1     bf  198 -   204         -0.067971630177          0.112420417459          3.786759345497
      0.1428000000D+01  0.1000000000D+01
 Atom H7       Shell    71 S   3     bf  205 -   205          1.097891345411          0.628532165351          5.087392455228
      0.3406134100D+02  0.2543930721D-01
      0.5123574600D+01  0.1900859489D+00
      0.1164662600D+01  0.8524411301D+00
 Atom H7       Shell    72 S   1     bf  206 -   206          1.097891345411          0.628532165351          5.087392455228
      0.3272304100D+00  0.1000000000D+01
 Atom H7       Shell    73 S   1     bf  207 -   207          1.097891345411          0.628532165351          5.087392455228
      0.1030724100D+00  0.1000000000D+01
 Atom H7       Shell    74 P   1     bf  208 -   210          1.097891345411          0.628532165351          5.087392455228
      0.8000000000D+00  0.1000000000D+01
 Atom O8       Shell    75 S   6     bf  211 -   211          3.912066822798          0.840753743255         -0.477553986404
      0.2703238263D+05  0.5722733521D-03
      0.4052387139D+04  0.4435323349D-02
      0.9223272271D+03  0.2302010771D-01
      0.2612407099D+03  0.9282249067D-01
      0.8535464135D+02  0.2937850001D+00
      0.3103503524D+02  0.6740160450D+00
 Atom O8       Shell    76 S   2     bf  212 -   212          3.912066822798          0.840753743255         -0.477553986404
      0.1226086073D+02  0.6383993703D+00
      0.4998707601D+01  0.3953458713D+00
 Atom O8       Shell    77 S   1     bf  213 -   213          3.912066822798          0.840753743255         -0.477553986404
      0.1170310816D+01  0.1000000000D+01
 Atom O8       Shell    78 S   1     bf  214 -   214          3.912066822798          0.840753743255         -0.477553986404
      0.4647474099D+00  0.1000000000D+01
 Atom O8       Shell    79 S   1     bf  215 -   215          3.912066822798          0.840753743255         -0.477553986404
      0.1850453636D+00  0.1000000000D+01
 Atom O8       Shell    80 P   4     bf  216 -   218          3.912066822798          0.840753743255         -0.477553986404
      0.6327495480D+02  0.1201833222D-01
      0.1462704938D+02  0.8300542179D-01
      0.4450122346D+01  0.3199174393D+00
      0.1527579965D+01  0.7071554292D+00
 Atom O8       Shell    81 P   1     bf  219 -   221          3.912066822798          0.840753743255         -0.477553986404
      0.5293511794D+00  0.1000000000D+01
 Atom O8       Shell    82 P   1     bf  222 -   224          3.912066822798          0.840753743255         -0.477553986404
      0.1747842127D+00  0.1000000000D+01
 Atom O8       Shell    83 D   1     bf  225 -   229          3.912066822798          0.840753743255         -0.477553986404
      0.2314000000D+01  0.1000000000D+01
 Atom O8       Shell    84 D   1     bf  230 -   234          3.912066822798          0.840753743255         -0.477553986404
      0.6450000000D+00  0.1000000000D+01
 Atom O8       Shell    85 F   1     bf  235 -   241          3.912066822798          0.840753743255         -0.477553986404
      0.1428000000D+01  0.1000000000D+01
 Atom H9       Shell    86 S   3     bf  242 -   242          4.811744051682          2.427919754073         -0.431632640071
      0.3406134100D+02  0.2543930721D-01
      0.5123574600D+01  0.1900859489D+00
      0.1164662600D+01  0.8524411301D+00
 Atom H9       Shell    87 S   1     bf  243 -   243          4.811744051682          2.427919754073         -0.431632640071
      0.3272304100D+00  0.1000000000D+01
 Atom H9       Shell    88 S   1     bf  244 -   244          4.811744051682          2.427919754073         -0.431632640071
      0.1030724100D+00  0.1000000000D+01
 Atom H9       Shell    89 P   1     bf  245 -   247          4.811744051682          2.427919754073         -0.431632640071
      0.8000000000D+00  0.1000000000D+01
 Atom F10      Shell    90 S   6     bf  248 -   248          0.974047748897         -3.945700140266         -0.415669944908
      0.3547910044D+05  0.5618499111D-03
      0.5318472898D+04  0.4355197381D-02
      0.1210481098D+04  0.2261824715D-01
      0.3428551814D+03  0.9140305514D-01
      0.1120194318D+03  0.2911687069D+00
      0.4071474025D+02  0.6777270856D+00
 Atom F10      Shell    91 S   2     bf  249 -   249          0.974047748897         -3.945700140266         -0.415669944908
      0.1603967811D+02  0.6329641788D+00
      0.6503818674D+01  0.4013647573D+00
 Atom F10      Shell    92 S   1     bf  250 -   250          0.974047748897         -3.945700140266         -0.415669944908
      0.1544047751D+01  0.1000000000D+01
 Atom F10      Shell    93 S   1     bf  251 -   251          0.974047748897         -3.945700140266         -0.415669944908
      0.6122345286D+00  0.1000000000D+01
 Atom F10      Shell    94 S   1     bf  252 -   252          0.974047748897         -3.945700140266         -0.415669944908
      0.2402797970D+00  0.1000000000D+01
 Atom F10      Shell    95 P   4     bf  253 -   255          0.974047748897         -3.945700140266         -0.415669944908
      0.8023390048D+02  0.1232134514D-01
      0.1859401074D+02  0.8571339535D-01
      0.5686790265D+01  0.3263310550D+00
      0.1951100629D+01  0.6997111464D+00
 Atom F10      Shell    96 P   1     bf  256 -   258          0.974047748897         -3.945700140266         -0.415669944908
      0.6697021130D+00  0.1000000000D+01
 Atom F10      Shell    97 P   1     bf  259 -   261          0.974047748897         -3.945700140266         -0.415669944908
      0.2165130041D+00  0.1000000000D+01
 Atom F10      Shell    98 D   1     bf  262 -   266          0.974047748897         -3.945700140266         -0.415669944908
      0.3107000000D+01  0.1000000000D+01
 Atom F10      Shell    99 D   1     bf  267 -   271          0.974047748897         -3.945700140266         -0.415669944908
      0.8550000000D+00  0.1000000000D+01
 Atom F10      Shell   100 F   1     bf  272 -   278          0.974047748897         -3.945700140266         -0.415669944908
      0.1917000000D+01  0.1000000000D+01
 Effective core potential in the form of general ECP input:
      1 0
 Pa1-ECP   5 60
 H component
  1
  2        1.0000000        0.00000000    0.00000000
 S-H projection
  1
  2       15.2691737      475.47573283    0.00000000
 P-H projection
  1
  2        9.9577370      207.66485962    0.00000000
 D-H projection
  1
  2        8.9431413      156.67411988    0.00000000
 F-H projection
  1
  2        7.0104666       67.98223685    0.00000000
 G-H projection
  1
  2       12.2010560      -57.63059989    0.00000000
 
 There are   326 symmetry adapted cartesian basis functions of A   symmetry.
 There are   278 symmetry adapted basis functions of A   symmetry.
   278 basis functions,   495 primitive gaussians,   326 cartesian basis functions
    38 alpha electrons       38 beta electrons
       nuclear repulsion energy       486.6160736905 Hartrees.
 IExCor=  404 DFT=T Ex=B Corr=P86 ExCW=0 ScaHFX=  0.000000
 ScaDFX=  1.000000  1.000000  1.000000  1.000000 ScalE2=  1.000000  1.000000
 IRadAn=      5 IRanWt=     -1 IRanGd=            0 ICorTp=0 IEmpDi=  4
 NAtoms=   10 NActive=   10 NUniq=   10 SFac= 1.00D+00 NAtFMM=   60 NAOKFM=F Big=F
 Integral buffers will be    131072 words long.
 Raffenetti 2 integral format.
 Two-electron integral symmetry is turned on.
 Warning! Using old PCM defaults because the COSMOthermo output has been requested.
 These settings can be overridden by following keywords.
 ------------------------------------------------------------------------------
 Polarizable Continuum Model (PCM)
 =================================
 Model                : C-PCM.
 Atomic radii         : Klamt.
 XCosmo               : -1.000 (infinite dielectric limit)
 Polarization charges : Electronic and nuclear charges.
 Charge compensation  : Type 3 (Electronic density weighted correction).
 Solution method      : On-the-fly selection.
 Cavity type          : VdW (van der Waals Surface) (Alpha=1.000).
 Cavity algorithm     : GePol (No added spheres)
                        Default sphere list used, NSphG=   10.
                        Tesserae with average area of 0.200 Ang**2.
                        Smoothing algorithm: None.
                        Polarization charges: point-like.
                        Self-potential: constant (ISelfS= 1).
                        Self-field    : global E.n sum rule (ISelfD= 3).
 Solvent              : Water, Eps=  78.355300 Eps(inf)=   1.777849
 ------------------------------------------------------------------------------
 Spheres list:
 ISph  on   Nord     Re0    Alpha      Xe            Ye            Ze
    1  Pa      1    2.0000  1.170      0.002495     -0.010468     -0.109660
    2   O      2    1.7200  1.000     -2.039395     -0.582375     -0.203826
    3   H      3    1.3000  1.000     -2.869072     -0.131657     -0.001656
    4   O      4    1.7200  1.000     -0.508798      2.012925     -0.353259
    5   H      5    1.3000  1.000     -1.012310      2.779068     -0.055887
    6   O      6    1.7200  1.000     -0.035969      0.059490      2.003867
    7   H      7    1.3000  1.000      0.580979      0.332605      2.692132
    8   O      8    1.7200  1.000      2.070177      0.444908     -0.252711
    9   H      9    1.3000  1.000      2.546265      1.284800     -0.228410
   10   F     10    1.7200  1.000      0.515444     -2.087975     -0.219963
 ------------------------------------------------------------------------------
 GePol: Number of generator spheres                  =      10
 GePol: Total number of spheres                      =      10
 GePol: Number of exposed spheres                    =      10 (100.00%)
 GePol: Number of tesserae                           =     966
 GePol: Average area of tesserae                     =       0.15 Ang**2
 GePol: Minimum area of tessera                      =   0.10D-02 Ang**2
 GePol: Maximum area of tessera                      =    0.35817 Ang**2
 GePol: Number of small tesserae                     =      11
 GePol: Fraction of small tesserae (<1% of avg)      =       1.14%
 GePol: Total count of vertices                      =    3204
 GePol: Maximum number of vertices in a tessera      =       5
 GePol: Cavity surface area                          =    148.111 Ang**2
 GePol: Cavity volume                                =    120.752 Ang**3
 DisRep: Neglecting contributions from atom    1 of solute.
 Leave Link  301 at Tue Jul  4 09:45:03 2023, MaxMem=  2147483648 cpu:               0.8 elap:               0.2
 (Enter /home/pcmt/gaussian/g16.C.01/g16/l302.exe)
 NPDir=0 NMtPBC=     1 NCelOv=     1 NCel=       1 NClECP=     1 NCelD=      1
         NCelK=      1 NCelE2=     1 NClLst=     1 CellRange=     0.0.
 One-electron integrals computed using PRISM.
 One-electron integral symmetry used in STVInt
   1 Symmetry operations used in ECPInt.
 ECPInt:  NShTT=    5050 NPrTT=   14698 LenC2=    4877 LenP2D=   11060.
 LDataN:  DoStor=T MaxTD1= 9 Len=  602
 NBasis=   278 RedAO= T EigKep=  6.74D-04  NBF=   278
 NBsUse=   278 1.00D-06 EigRej= -1.00D+00 NBFU=   278
 Precomputing XC quadrature grid using
 IXCGrd= 4 IRadAn=           5 IRanWt=          -1 IRanGd=           0 AccXCQ= 0.00D+00.
 Defaulting to unpruned grid for atomic number  91.
 Generated NRdTot=       0 NPtTot=           0 NUsed=           0 NTot=          32
 NSgBfM=   321   321   321   321   321 MxSgAt=    10 MxSgA2=    10.
 Leave Link  302 at Tue Jul  4 09:45:04 2023, MaxMem=  2147483648 cpu:               6.2 elap:               0.9
 (Enter /home/pcmt/gaussian/g16.C.01/g16/l303.exe)
 DipDrv:  MaxL=1.
 Leave Link  303 at Tue Jul  4 09:45:04 2023, MaxMem=  2147483648 cpu:               0.3 elap:               0.1
 (Enter /home/pcmt/gaussian/g16.C.01/g16/l401.exe)
 ExpMin= 2.32D-02 ExpMax= 3.55D+04 ExpMxC= 1.20D+04 IAcc=3 IRadAn=         5 AccDes= 0.00D+00
 Harris functional with IExCor=  404 and IRadAn=       5 diagonalized for initial guess.
 HarFok:  IExCor=  404 AccDes= 0.00D+00 IRadAn=         5 IDoV= 1 UseB2=F ITyADJ=14
 ICtDFT=  3500011 ScaDFX=  1.000000  1.000000  1.000000  1.000000
 Defaulting to unpruned grid for atomic number  91.
 FoFCou: FMM=F IPFlag=           0 FMFlag=      100000 FMFlg1=           0
         NFxFlg=           0 DoJE=T BraDBF=F KetDBF=T FulRan=T
         wScrn=  0.000000 ICntrl=       500 IOpCl=  0 I1Cent=   200000004 NGrid=           0
         NMat0=    1 NMatS0=      1 NMatT0=    0 NMatD0=    1 NMtDS0=    0 NMtDT0=    0
 Petite list used in FoFCou.
 Harris En= -846.731185548929    
 JPrj=0 DoOrth=F DoCkMO=F.
 Leave Link  401 at Tue Jul  4 09:45:06 2023, MaxMem=  2147483648 cpu:              15.3 elap:               2.0
 (Enter /home/pcmt/gaussian/g16.C.01/g16/l502.exe)
 Keep J ints in memory in canonical form, NReq=769486777.
 FoFCou: FMM=F IPFlag=           0 FMFlag=           0 FMFlg1=           0
         NFxFlg=           0 DoJE=F BraDBF=F KetDBF=F FulRan=T
         wScrn=  0.000000 ICntrl=       600 IOpCl=  0 I1Cent=           0 NGrid=           0
         NMat0=    1 NMatS0=  38781 NMatT0=    0 NMatD0=    1 NMtDS0=    0 NMtDT0=    0
 Symmetry not used in FoFCou.
 Two-electron integral symmetry not used.
 Closed shell SCF:
 Using DIIS extrapolation, IDIIS=  1040.
 NGot=  2147483648 LenX=  1395263057 LenY=  1395156340
 Requested convergence on RMS density matrix=1.00D-08 within 100 cycles.
 Requested convergence on MAX density matrix=1.00D-06.
 Requested convergence on             energy=1.00D-06.
 No special actions if energy rises.

 Cycle   1  Pass 1  IDiag  1:
 Defaulting to unpruned grid for atomic number  91.
 Defaulting to unpruned grid for atomic number  91.
 Defaulting to unpruned grid for atomic number  91.
 Defaulting to unpruned grid for atomic number  91.
 Defaulting to unpruned grid for atomic number  91.
 Defaulting to unpruned grid for atomic number  91.
 Defaulting to unpruned grid for atomic number  91.
 Defaulting to unpruned grid for atomic number  91.
 Inv3:  Mode=1 IEnd=     2799468.
 Iteration    1 A*A^-1 deviation from unit magnitude is 5.11D-15 for    236.
 Iteration    1 A*A^-1 deviation from orthogonality  is 3.38D-15 for    257     52.
 Iteration    1 A^-1*A deviation from unit magnitude is 5.00D-15 for    947.
 Iteration    1 A^-1*A deviation from orthogonality  is 1.54D-15 for    258     54.
 E= -844.279057201502    
 DIIS: error= 4.53D-02 at cycle   1 NSaved=   1.
 NSaved= 1 IEnMin= 1 EnMin= -844.279057201502     IErMin= 1 ErrMin= 4.53D-02
 ErrMax= 4.53D-02  0.00D+00 EMaxC= 1.00D-01 BMatC= 1.48D+00 BMatP= 1.48D+00
 IDIUse=3 WtCom= 5.47D-01 WtEn= 4.53D-01
 Coeff-Com:  0.100D+01
 Coeff-En:   0.100D+01
 Coeff:      0.100D+01
 Gap=     0.083 Goal=   None    Shift=    0.000
 GapD=    0.083 DampG=0.500 DampE=0.250 DampFc=0.1250 IDamp=-1.
 Damping current iteration by 1.25D-01
 RMSDP=1.46D-02 MaxDP=1.39D+00              OVMax= 9.97D-01

 Cycle   2  Pass 1  IDiag  1:
 E= -844.323700888794     Delta-E=       -0.044643687292 Rises=F Damp=T
 DIIS: error= 1.63D-02 at cycle   2 NSaved=   2.
 NSaved= 2 IEnMin= 2 EnMin= -844.323700888794     IErMin= 2 ErrMin= 1.63D-02
 ErrMax= 1.63D-02  0.00D+00 EMaxC= 1.00D-01 BMatC= 1.79D-01 BMatP= 1.48D+00
 IDIUse=3 WtCom= 8.37D-01 WtEn= 1.63D-01
 Coeff-Com: -0.468D-01 0.105D+01
 Coeff-En:   0.480D+00 0.520D+00
 Coeff:      0.390D-01 0.961D+00
 Gap=     0.027 Goal=   None    Shift=    0.000
 RMSDP=3.96D-03 MaxDP=1.21D-01 DE=-4.46D-02 OVMax= 9.48D-01

 Cycle   3  Pass 1  IDiag  1:
 E= -844.633712792863     Delta-E=       -0.310011904069 Rises=F Damp=F
 DIIS: error= 4.00D-02 at cycle   3 NSaved=   3.
 NSaved= 3 IEnMin= 3 EnMin= -844.633712792863     IErMin= 2 ErrMin= 1.63D-02
 ErrMax= 4.00D-02  0.00D+00 EMaxC= 1.00D-01 BMatC= 7.92D-01 BMatP= 1.79D-01
 IDIUse=2 WtCom= 0.00D+00 WtEn= 1.00D+00
 EnCoef did     2 forward-backward iterations
 Coeff-En:   0.909D-01 0.337D+00 0.572D+00
 Coeff:      0.909D-01 0.337D+00 0.572D+00
 Gap=     0.293 Goal=   None    Shift=    0.000
 RMSDP=8.98D-03 MaxDP=5.91D-01 DE=-3.10D-01 OVMax= 9.40D-01

 Cycle   4  Pass 1  IDiag  1:
 E= -820.736185678681     Delta-E=       23.897527114182 Rises=F Damp=F
 DIIS: error= 4.24D-01 at cycle   4 NSaved=   4.
 NSaved= 4 IEnMin= 3 EnMin= -844.633712792863     IErMin= 2 ErrMin= 1.63D-02
 ErrMax= 4.24D-01  0.00D+00 EMaxC= 1.00D-01 BMatC= 5.25D+01 BMatP= 1.79D-01
 IDIUse=2 WtCom= 0.00D+00 WtEn= 1.00D+00
 EnCoef did   100 forward-backward iterations
 Coeff-En:   0.352D+00 0.301D-02 0.559D+00 0.862D-01
 Coeff:      0.352D+00 0.301D-02 0.559D+00 0.862D-01
 Gap=     0.022 Goal=   None    Shift=    0.000
 RMSDP=4.74D-03 MaxDP=2.68D-01 DE= 2.39D+01 OVMax= 8.61D-01

 Cycle   5  Pass 1  IDiag  1:
 E= -843.875518162958     Delta-E=      -23.139332484277 Rises=F Damp=F
 DIIS: error= 9.97D-02 at cycle   5 NSaved=   5.
 NSaved= 5 IEnMin= 3 EnMin= -844.633712792863     IErMin= 2 ErrMin= 1.63D-02
 ErrMax= 9.97D-02  0.00D+00 EMaxC= 1.00D-01 BMatC= 2.56D+00 BMatP= 1.79D-01
 IDIUse=2 WtCom= 0.00D+00 WtEn= 1.00D+00
 EnCoef did     4 forward-backward iterations
 Coeff-En:   0.282D+00 0.000D+00 0.353D+00 0.000D+00 0.365D+00
 Coeff:      0.282D+00 0.000D+00 0.353D+00 0.000D+00 0.365D+00
 Gap=     0.155 Goal=   None    Shift=    0.000
 RMSDP=2.61D-03 MaxDP=1.54D-01 DE=-2.31D+01 OVMax= 2.76D-01

 Cycle   6  Pass 1  IDiag  1:
 E= -845.208312100989     Delta-E=       -1.332793938031 Rises=F Damp=F
 DIIS: error= 1.58D-02 at cycle   6 NSaved=   6.
 NSaved= 6 IEnMin= 6 EnMin= -845.208312100989     IErMin= 6 ErrMin= 1.58D-02
 ErrMax= 1.58D-02  0.00D+00 EMaxC= 1.00D-01 BMatC= 1.25D-01 BMatP= 1.79D-01
 IDIUse=3 WtCom= 8.42D-01 WtEn= 1.58D-01
 Coeff-Com: -0.926D-01 0.472D+00 0.244D+00-0.184D-01 0.113D+00 0.283D+00
 Coeff-En:   0.000D+00 0.000D+00 0.000D+00 0.000D+00 0.647D-01 0.935D+00
 Coeff:     -0.780D-01 0.397D+00 0.205D+00-0.155D-01 0.105D+00 0.386D+00
 Gap=     0.262 Goal=   None    Shift=    0.000
 RMSDP=1.29D-03 MaxDP=8.72D-02 DE=-1.33D+00 OVMax= 1.31D-01

 Cycle   7  Pass 1  IDiag  1:
 E= -845.164655226672     Delta-E=        0.043656874317 Rises=F Damp=F
 DIIS: error= 1.79D-02 at cycle   7 NSaved=   7.
 NSaved= 7 IEnMin= 6 EnMin= -845.208312100989     IErMin= 6 ErrMin= 1.58D-02
 ErrMax= 1.79D-02  0.00D+00 EMaxC= 1.00D-01 BMatC= 1.68D-01 BMatP= 1.25D-01
 IDIUse=2 WtCom= 0.00D+00 WtEn= 1.00D+00
 EnCoef did     3 forward-backward iterations
 Coeff-En:   0.000D+00 0.000D+00 0.000D+00 0.000D+00 0.101D+00 0.453D+00
 Coeff-En:   0.447D+00
 Coeff:      0.000D+00 0.000D+00 0.000D+00 0.000D+00 0.101D+00 0.453D+00
 Coeff:      0.447D+00
 Gap=     0.131 Goal=   None    Shift=    0.000
 RMSDP=1.91D-03 MaxDP=1.56D-01 DE= 4.37D-02 OVMax= 1.71D-01

 Cycle   8  Pass 1  IDiag  1:
 E= -845.124221902068     Delta-E=        0.040433324604 Rises=F Damp=F
 DIIS: error= 2.69D-02 at cycle   8 NSaved=   8.
 NSaved= 8 IEnMin= 6 EnMin= -845.208312100989     IErMin= 6 ErrMin= 1.58D-02
 ErrMax= 2.69D-02  0.00D+00 EMaxC= 1.00D-01 BMatC= 2.53D-01 BMatP= 1.25D-01
 IDIUse=2 WtCom= 0.00D+00 WtEn= 1.00D+00
 EnCoef did     2 forward-backward iterations
 Coeff-En:   0.000D+00 0.000D+00 0.000D+00 0.000D+00 0.000D+00 0.375D+00
 Coeff-En:   0.290D+00 0.334D+00
 Coeff:      0.000D+00 0.000D+00 0.000D+00 0.000D+00 0.000D+00 0.375D+00
 Coeff:      0.290D+00 0.334D+00
 Gap=     0.137 Goal=   None    Shift=    0.000
 RMSDP=8.22D-04 MaxDP=5.16D-02 DE= 4.04D-02 OVMax= 1.00D-01

 Cycle   9  Pass 1  IDiag  1:
 E= -845.296555442025     Delta-E=       -0.172333539957 Rises=F Damp=F
 DIIS: error= 3.16D-03 at cycle   9 NSaved=   9.
 NSaved= 9 IEnMin= 9 EnMin= -845.296555442025     IErMin= 9 ErrMin= 3.16D-03
 ErrMax= 3.16D-03  0.00D+00 EMaxC= 1.00D-01 BMatC= 2.90D-03 BMatP= 1.25D-01
 IDIUse=3 WtCom= 9.68D-01 WtEn= 3.16D-02
 Coeff-Com:  0.217D-01-0.238D-01 0.525D-02 0.119D-02-0.410D-01 0.152D+00
 Coeff-Com: -0.333D-01 0.195D+00 0.722D+00
 Coeff-En:   0.000D+00 0.000D+00 0.000D+00 0.000D+00 0.000D+00 0.000D+00
 Coeff-En:   0.000D+00 0.000D+00 0.100D+01
 Coeff:      0.210D-01-0.230D-01 0.509D-02 0.115D-02-0.397D-01 0.147D+00
 Coeff:     -0.322D-01 0.189D+00 0.731D+00
 Gap=     0.132 Goal=   None    Shift=    0.000
 RMSDP=2.34D-04 MaxDP=1.29D-02 DE=-1.72D-01 OVMax= 1.79D-02

 Cycle  10  Pass 1  IDiag  1:
 E= -845.297831406119     Delta-E=       -0.001275964094 Rises=F Damp=F
 DIIS: error= 2.40D-03 at cycle  10 NSaved=  10.
 NSaved=10 IEnMin=10 EnMin= -845.297831406119     IErMin=10 ErrMin= 2.40D-03
 ErrMax= 2.40D-03  0.00D+00 EMaxC= 1.00D-01 BMatC= 3.23D-03 BMatP= 2.90D-03
 IDIUse=3 WtCom= 9.68D-01 WtEn= 3.16D-02
 Coeff-Com:  0.369D-01-0.299D-01 0.290D-01 0.124D-02-0.257D-01 0.117D-02
 Coeff-Com: -0.159D+00 0.262D-01 0.651D+00 0.469D+00
 Coeff-En:   0.000D+00 0.000D+00 0.000D+00 0.000D+00 0.000D+00 0.000D+00
 Coeff-En:   0.000D+00 0.000D+00 0.300D+00 0.700D+00
 Coeff:      0.357D-01-0.289D-01 0.281D-01 0.120D-02-0.249D-01 0.113D-02
 Coeff:     -0.154D+00 0.253D-01 0.640D+00 0.476D+00
 Gap=     0.133 Goal=   None    Shift=    0.000
 RMSDP=1.66D-04 MaxDP=1.03D-02 DE=-1.28D-03 OVMax= 1.53D-02

 Cycle  11  Pass 1  IDiag  1:
 E= -845.299055906026     Delta-E=       -0.001224499907 Rises=F Damp=F
 DIIS: error= 2.30D-03 at cycle  11 NSaved=  11.
 NSaved=11 IEnMin=11 EnMin= -845.299055906026     IErMin=11 ErrMin= 2.30D-03
 ErrMax= 2.30D-03  0.00D+00 EMaxC= 1.00D-01 BMatC= 3.21D-03 BMatP= 2.90D-03
 IDIUse=3 WtCom= 9.68D-01 WtEn= 3.16D-02
 Coeff-Com:  0.369D-01-0.150D-01 0.308D-01 0.688D-03-0.205D-01-0.423D-01
 Coeff-Com: -0.127D+00-0.132D-01 0.331D+00 0.322D+00 0.497D+00
 Coeff-En:   0.000D+00 0.000D+00 0.000D+00 0.000D+00 0.000D+00 0.000D+00
 Coeff-En:   0.000D+00 0.000D+00 0.000D+00 0.000D+00 0.100D+01
 Coeff:      0.358D-01-0.145D-01 0.298D-01 0.666D-03-0.199D-01-0.409D-01
 Coeff:     -0.123D+00-0.128D-01 0.320D+00 0.312D+00 0.513D+00
 Gap=     0.137 Goal=   None    Shift=    0.000
 RMSDP=8.66D-05 MaxDP=6.46D-03 DE=-1.22D-03 OVMax= 6.34D-03

 Cycle  12  Pass 1  IDiag  1:
 E= -845.300358651928     Delta-E=       -0.001302745902 Rises=F Damp=F
 DIIS: error= 1.35D-03 at cycle  12 NSaved=  12.
 NSaved=12 IEnMin=12 EnMin= -845.300358651928     IErMin=12 ErrMin= 1.35D-03
 ErrMax= 1.35D-03  0.00D+00 EMaxC= 1.00D-01 BMatC= 1.08D-03 BMatP= 2.90D-03
 IDIUse=3 WtCom= 9.87D-01 WtEn= 1.35D-02
 Coeff-Com:  0.792D-02 0.186D-02 0.871D-02 0.260D-03-0.110D-01 0.282D-01
 Coeff-Com: -0.338D-01 0.487D-01 0.227D+00-0.101D+00-0.937D+00 0.176D+01
 Coeff-En:   0.000D+00 0.000D+00 0.000D+00 0.000D+00 0.000D+00 0.000D+00
 Coeff-En:   0.000D+00 0.000D+00 0.000D+00 0.000D+00 0.000D+00 0.100D+01
 Coeff:      0.782D-02 0.183D-02 0.859D-02 0.257D-03-0.109D-01 0.279D-01
 Coeff:     -0.334D-01 0.481D-01 0.224D+00-0.995D-01-0.925D+00 0.175D+01
 Gap=     0.147 Goal=   None    Shift=    0.000
 RMSDP=1.52D-04 MaxDP=1.45D-02 DE=-1.30D-03 OVMax= 9.80D-03

 Cycle  13  Pass 1  IDiag  1:
 E= -845.300282252625     Delta-E=        0.000076399303 Rises=F Damp=F
 DIIS: error= 7.52D-04 at cycle  13 NSaved=  13.
 NSaved=13 IEnMin=12 EnMin= -845.300358651928     IErMin=13 ErrMin= 7.52D-04
 ErrMax= 7.52D-04  0.00D+00 EMaxC= 1.00D-01 BMatC= 5.70D-04 BMatP= 1.08D-03
 IDIUse=3 WtCom= 9.92D-01 WtEn= 7.52D-03
 Coeff-Com: -0.138D-02 0.199D-02 0.159D-02 0.170D-04 0.144D-02-0.333D-03
 Coeff-Com: -0.913D-02 0.111D-02 0.497D-01-0.136D+00-0.734D+00 0.146D+01
 Coeff-Com:  0.364D+00
 Coeff-En:   0.000D+00 0.000D+00 0.000D+00 0.000D+00 0.000D+00 0.000D+00
 Coeff-En:   0.000D+00 0.000D+00 0.000D+00 0.000D+00 0.000D+00 0.534D+00
 Coeff-En:   0.466D+00
 Coeff:     -0.137D-02 0.197D-02 0.158D-02 0.169D-04 0.143D-02-0.331D-03
 Coeff:     -0.906D-02 0.110D-02 0.493D-01-0.135D+00-0.729D+00 0.145D+01
 Coeff:      0.364D+00
 Gap=     0.141 Goal=   None    Shift=    0.000
 RMSDP=1.17D-04 MaxDP=6.76D-03 DE= 7.64D-05 OVMax= 9.85D-03

 Cycle  14  Pass 1  IDiag  1:
 E= -845.300878567268     Delta-E=       -0.000596314642 Rises=F Damp=F
 DIIS: error= 2.08D-04 at cycle  14 NSaved=  14.
 NSaved=14 IEnMin=14 EnMin= -845.300878567268     IErMin=14 ErrMin= 2.08D-04
 ErrMax= 2.08D-04  0.00D+00 EMaxC= 1.00D-01 BMatC= 2.09D-05 BMatP= 5.70D-04
 IDIUse=3 WtCom= 9.98D-01 WtEn= 2.08D-03
 Coeff-Com: -0.365D-03 0.720D-03 0.131D-03 0.165D-04 0.812D-03-0.249D-02
 Coeff-Com: -0.565D-02 0.882D-03 0.975D-02-0.739D-01-0.358D+00 0.760D+00
 Coeff-Com:  0.198D+00 0.471D+00
 Coeff-En:   0.000D+00 0.000D+00 0.000D+00 0.000D+00 0.000D+00 0.000D+00
 Coeff-En:   0.000D+00 0.000D+00 0.000D+00 0.000D+00 0.000D+00 0.996D-02
 Coeff-En:   0.000D+00 0.990D+00
 Coeff:     -0.364D-03 0.718D-03 0.131D-03 0.165D-04 0.810D-03-0.248D-02
 Coeff:     -0.564D-02 0.880D-03 0.973D-02-0.737D-01-0.358D+00 0.758D+00
 Coeff:      0.198D+00 0.472D+00
 Gap=     0.135 Goal=   None    Shift=    0.000
 RMSDP=1.54D-05 MaxDP=7.97D-04 DE=-5.96D-04 OVMax= 1.28D-03

 Cycle  15  Pass 1  IDiag  1:
 E= -845.300889666701     Delta-E=       -0.000011099433 Rises=F Damp=F
 DIIS: error= 7.87D-05 at cycle  15 NSaved=  15.
 NSaved=15 IEnMin=15 EnMin= -845.300889666701     IErMin=15 ErrMin= 7.87D-05
 ErrMax= 7.87D-05  0.00D+00 EMaxC= 1.00D-01 BMatC= 2.27D-06 BMatP= 2.09D-05
 IDIUse=1 WtCom= 1.00D+00 WtEn= 0.00D+00
 Coeff-Com:  0.326D-05 0.927D-04 0.329D-03 0.300D-04-0.667D-04 0.188D-02
 Coeff-Com: -0.591D-02 0.382D-02 0.247D-01-0.128D-01-0.140D+00 0.231D+00
 Coeff-Com:  0.657D-01 0.287D+00 0.543D+00
 Coeff:      0.326D-05 0.927D-04 0.329D-03 0.300D-04-0.667D-04 0.188D-02
 Coeff:     -0.591D-02 0.382D-02 0.247D-01-0.128D-01-0.140D+00 0.231D+00
 Coeff:      0.657D-01 0.287D+00 0.543D+00
 Gap=     0.137 Goal=   None    Shift=    0.000
 RMSDP=1.93D-05 MaxDP=1.10D-03 DE=-1.11D-05 OVMax= 1.70D-03

 Cycle  16  Pass 1  IDiag  1:
 E= -845.300890903068     Delta-E=       -0.000001236367 Rises=F Damp=F
 DIIS: error= 7.02D-05 at cycle  16 NSaved=  16.
 NSaved=16 IEnMin=16 EnMin= -845.300890903068     IErMin=16 ErrMin= 7.02D-05
 ErrMax= 7.02D-05  0.00D+00 EMaxC= 1.00D-01 BMatC= 2.77D-06 BMatP= 2.27D-06
 IDIUse=1 WtCom= 1.00D+00 WtEn= 0.00D+00
 Coeff-Com:  0.188D-03-0.337D-04-0.205D-03 0.111D-04-0.140D-03-0.123D-03
 Coeff-Com: -0.119D-02 0.155D-02-0.130D-02-0.199D-02-0.112D-01 0.332D-01
 Coeff-Com:  0.657D-02 0.110D+00 0.439D+00 0.425D+00
 Coeff:      0.188D-03-0.337D-04-0.205D-03 0.111D-04-0.140D-03-0.123D-03
 Coeff:     -0.119D-02 0.155D-02-0.130D-02-0.199D-02-0.112D-01 0.332D-01
 Coeff:      0.657D-02 0.110D+00 0.439D+00 0.425D+00
 Gap=     0.136 Goal=   None    Shift=    0.000
 RMSDP=1.01D-05 MaxDP=5.80D-04 DE=-1.24D-06 OVMax= 8.87D-04

 Cycle  17  Pass 1  IDiag  1:
 E= -845.300894092596     Delta-E=       -0.000003189529 Rises=F Damp=F
 DIIS: error= 7.09D-06 at cycle  17 NSaved=  17.
 NSaved=17 IEnMin=17 EnMin= -845.300894092596     IErMin=17 ErrMin= 7.09D-06
 ErrMax= 7.09D-06  0.00D+00 EMaxC= 1.00D-01 BMatC= 2.57D-08 BMatP= 2.27D-06
 IDIUse=1 WtCom= 1.00D+00 WtEn= 0.00D+00
 Coeff-Com:  0.395D-04 0.118D-05-0.196D-04 0.484D-06-0.195D-04-0.118D-03
 Coeff-Com: -0.125D-03 0.106D-03-0.102D-02-0.780D-04 0.875D-03 0.524D-02
 Coeff-Com:  0.154D-02 0.195D-01 0.981D-01 0.164D+00 0.712D+00
 Coeff:      0.395D-04 0.118D-05-0.196D-04 0.484D-06-0.195D-04-0.118D-03
 Coeff:     -0.125D-03 0.106D-03-0.102D-02-0.780D-04 0.875D-03 0.524D-02
 Coeff:      0.154D-02 0.195D-01 0.981D-01 0.164D+00 0.712D+00
 Gap=     0.136 Goal=   None    Shift=    0.000
 RMSDP=4.83D-07 MaxDP=2.67D-05 DE=-3.19D-06 OVMax= 4.75D-05

 Cycle  18  Pass 1  IDiag  1:
 E= -845.300894107221     Delta-E=       -0.000000014625 Rises=F Damp=F
 DIIS: error= 3.26D-06 at cycle  18 NSaved=  18.
 NSaved=18 IEnMin=18 EnMin= -845.300894107221     IErMin=18 ErrMin= 3.26D-06
 ErrMax= 3.26D-06  0.00D+00 EMaxC= 1.00D-01 BMatC= 6.70D-09 BMatP= 2.57D-08
 IDIUse=1 WtCom= 1.00D+00 WtEn= 0.00D+00
 Coeff-Com:  0.193D-04 0.156D-05 0.190D-05 0.126D-07-0.791D-05-0.580D-04
 Coeff-Com: -0.792D-04 0.148D-04-0.444D-03 0.624D-04 0.450D-03 0.319D-02
 Coeff-Com:  0.120D-02 0.983D-02 0.504D-01 0.108D+00 0.506D+00 0.322D+00
 Coeff:      0.193D-04 0.156D-05 0.190D-05 0.126D-07-0.791D-05-0.580D-04
 Coeff:     -0.792D-04 0.148D-04-0.444D-03 0.624D-04 0.450D-03 0.319D-02
 Coeff:      0.120D-02 0.983D-02 0.504D-01 0.108D+00 0.506D+00 0.322D+00
 Gap=     0.136 Goal=   None    Shift=    0.000
 RMSDP=2.75D-07 MaxDP=1.52D-05 DE=-1.46D-08 OVMax= 2.26D-05

 Cycle  19  Pass 1  IDiag  1:
 E= -845.300894114598     Delta-E=       -0.000000007376 Rises=F Damp=F
 DIIS: error= 1.35D-06 at cycle  19 NSaved=  19.
 NSaved=19 IEnMin=19 EnMin= -845.300894114598     IErMin=19 ErrMin= 1.35D-06
 ErrMax= 1.35D-06  0.00D+00 EMaxC= 1.00D-01 BMatC= 8.39D-10 BMatP= 6.70D-09
 IDIUse=1 WtCom= 1.00D+00 WtEn= 0.00D+00
 Coeff-Com:  0.307D-05-0.740D-06 0.995D-05 0.874D-07-0.111D-05 0.104D-04
 Coeff-Com: -0.540D-04-0.607D-05 0.116D-03 0.104D-03-0.203D-03 0.974D-03
 Coeff-Com:  0.505D-03 0.196D-02 0.928D-02 0.374D-01 0.152D+00 0.176D+00
 Coeff-Com:  0.622D+00
 Coeff:      0.307D-05-0.740D-06 0.995D-05 0.874D-07-0.111D-05 0.104D-04
 Coeff:     -0.540D-04-0.607D-05 0.116D-03 0.104D-03-0.203D-03 0.974D-03
 Coeff:      0.505D-03 0.196D-02 0.928D-02 0.374D-01 0.152D+00 0.176D+00
 Coeff:      0.622D+00
 Gap=     0.136 Goal=   None    Shift=    0.000
 RMSDP=2.39D-07 MaxDP=1.39D-05 DE=-7.38D-09 OVMax= 2.20D-05

 Cycle  20  Pass 1  IDiag  1:
 E= -845.300894116084     Delta-E=       -0.000000001486 Rises=F Damp=F
 DIIS: error= 4.62D-07 at cycle  20 NSaved=  20.
 NSaved=20 IEnMin=20 EnMin= -845.300894116084     IErMin=20 ErrMin= 4.62D-07
 ErrMax= 4.62D-07  0.00D+00 EMaxC= 1.00D-01 BMatC= 9.33D-11 BMatP= 8.39D-10
 IDIUse=1 WtCom= 1.00D+00 WtEn= 0.00D+00
 Coeff-Com:  0.756D-06 0.223D-07 0.120D-05-0.162D-07 0.569D-06-0.133D-05
 Coeff-Com: -0.586D-05-0.872D-05-0.465D-04 0.915D-05 0.165D-03-0.158D-04
 Coeff-Com:  0.169D-04 0.180D-03 0.227D-02 0.111D-01 0.410D-01 0.609D-01
 Coeff-Com:  0.300D+00 0.584D+00
 Coeff:      0.756D-06 0.223D-07 0.120D-05-0.162D-07 0.569D-06-0.133D-05
 Coeff:     -0.586D-05-0.872D-05-0.465D-04 0.915D-05 0.165D-03-0.158D-04
 Coeff:      0.169D-04 0.180D-03 0.227D-02 0.111D-01 0.410D-01 0.609D-01
 Coeff:      0.300D+00 0.584D+00
 Gap=     0.136 Goal=   None    Shift=    0.000
 RMSDP=8.17D-08 MaxDP=4.83D-06 DE=-1.49D-09 OVMax= 7.45D-06

 Cycle  21  Pass 1  IDiag  1:
 E= -845.300894116661     Delta-E=       -0.000000000577 Rises=F Damp=F
 DIIS: error= 1.54D-07 at cycle  21 NSaved=  20.
 NSaved=20 IEnMin=20 EnMin= -845.300894116661     IErMin=20 ErrMin= 1.54D-07
 ErrMax= 1.54D-07  0.00D+00 EMaxC= 1.00D-01 BMatC= 9.93D-12 BMatP= 9.33D-11
 IDIUse=1 WtCom= 1.00D+00 WtEn= 0.00D+00
 Coeff-Com:  0.209D-07-0.755D-08 0.109D-06 0.850D-07 0.901D-06-0.399D-06
 Coeff-Com: -0.116D-05-0.814D-05 0.813D-06 0.333D-04-0.570D-04-0.139D-04
 Coeff-Com: -0.781D-04-0.333D-03 0.147D-02 0.295D-02 0.804D-02 0.561D-01
 Coeff-Com:  0.239D+00 0.693D+00
 Coeff:      0.209D-07-0.755D-08 0.109D-06 0.850D-07 0.901D-06-0.399D-06
 Coeff:     -0.116D-05-0.814D-05 0.813D-06 0.333D-04-0.570D-04-0.139D-04
 Coeff:     -0.781D-04-0.333D-03 0.147D-02 0.295D-02 0.804D-02 0.561D-01
 Coeff:      0.239D+00 0.693D+00
 Gap=     0.136 Goal=   None    Shift=    0.000
 RMSDP=1.75D-08 MaxDP=1.01D-06 DE=-5.77D-10 OVMax= 1.54D-06

 Cycle  22  Pass 1  IDiag  1:
 E= -845.300894116690     Delta-E=       -0.000000000029 Rises=F Damp=F
 DIIS: error= 1.93D-08 at cycle  22 NSaved=  20.
 NSaved=20 IEnMin=20 EnMin= -845.300894116690     IErMin=20 ErrMin= 1.93D-08
 ErrMax= 1.93D-08  0.00D+00 EMaxC= 1.00D-01 BMatC= 1.51D-13 BMatP= 9.93D-12
 IDIUse=1 WtCom= 1.00D+00 WtEn= 0.00D+00
 Coeff-Com:  0.453D-08 0.788D-08 0.279D-08 0.108D-06-0.170D-07-0.473D-07
 Coeff-Com: -0.525D-06 0.317D-06-0.947D-07-0.507D-05 0.305D-06-0.167D-04
 Coeff-Com: -0.164D-03 0.140D-03-0.259D-03 0.207D-03 0.456D-02 0.509D-01
 Coeff-Com:  0.161D+00 0.784D+00
 Coeff:      0.453D-08 0.788D-08 0.279D-08 0.108D-06-0.170D-07-0.473D-07
 Coeff:     -0.525D-06 0.317D-06-0.947D-07-0.507D-05 0.305D-06-0.167D-04
 Coeff:     -0.164D-03 0.140D-03-0.259D-03 0.207D-03 0.456D-02 0.509D-01
 Coeff:      0.161D+00 0.784D+00
 Gap=     0.136 Goal=   None    Shift=    0.000
 RMSDP=2.63D-09 MaxDP=1.53D-07 DE=-2.93D-11 OVMax= 2.38D-07

 Error on nuclear    polarization charges =  0.00972
 Error on electronic polarization charges = -0.03546
 SCF Done:  E(RB-P86) =  -845.300894117     A.U. after   22 cycles
            NFock= 22  Conv=0.26D-08     -V/T= 2.4914
 KE= 5.667693543578D+02 PE=-2.851256798740D+03 EE= 9.525704765747D+02
 --------------------------------------------------------------------
 Variational C-PCM results
 =========================
 <psi(f)|   H    |psi(f)>                     (a.u.) =    -845.261864
 <psi(f)|H+V(f)/2|psi(f)>                     (a.u.) =    -845.300894
 Total free energy in solution:
 - with all non electrostatic terms           (a.u.) =    -845.284179
 --------------------------------------------------------------------
 (Polarized solute)-Solvent               (kcal/mol) =     -24.49
 --------------------------------------------------------------------
 Cavitation energy                        (kcal/mol) =      19.46
 Dispersion energy                        (kcal/mol) =     -10.07
 Repulsion energy                         (kcal/mol) =       1.09
 Total non electrostatic                  (kcal/mol) =      10.49
 --------------------------------------------------------------------
 Partition over spheres:
 Sphere  on Atom  Surface  Charge   GEl     GCav    GDR
    1     Pa1      18.42  -0.313   -5.64    0.99   -0.21
    2      O2      17.33   0.153   -2.08    2.48   -1.01
    3      H3       9.20  -0.127   -2.03    1.30   -0.83
    4      O4      17.20   0.137    0.20    2.50   -0.93
    5      H5       9.18  -0.131   -2.75    1.30   -0.92
    6      O6      17.32   0.163   -2.19    2.53   -0.98
    7      H7       9.18  -0.126   -1.78    1.30   -0.87
    8      O8      17.34   0.152   -1.75    2.50   -1.02
    9      H9       9.20  -0.126   -2.18    1.30   -0.82
   10      F10     23.75   0.217   -4.29    3.27   -1.38
 --------------------------------------------------------------------
 - cavitation energy not included in the total energy.
 - dispersion energy not included in the total energy.
 - repulsion  energy not included in the total energy.
 After PCM corrections, the energy is  -845.300894117     a.u.
 --------------------------------------------------------------------
 Writing COSMO formatted file "pa_oh4_f-bp86-cosmors-deftzvp-klamt.cosmo"
 Recomputed dielectric energy= -0.039152 old= -0.039030 diff=-1.21D-04
 Leave Link  502 at Tue Jul  4 09:47:10 2023, MaxMem=  2147483648 cpu:             732.6 elap:             123.3
 (Enter /home/pcmt/gaussian/g16.C.01/g16/l601.exe)
 Copying SCF densities to generalized density rwf, IOpCl= 0 IROHF=0.

 **********************************************************************

            Population analysis using the SCF Density.

 **********************************************************************

 Orbital symmetries:
       Occupied  (A) (A) (A) (A) (A) (A) (A) (A) (A) (A) (A) (A)
                 (A) (A) (A) (A) (A) (A) (A) (A) (A) (A) (A) (A)
                 (A) (A) (A) (A) (A) (A) (A) (A) (A) (A) (A) (A)
                 (A) (A)
       Virtual   (A) (A) (A) (A) (A) (A) (A) (A) (A) (A) (A) (A)
                 (A) (A) (A) (A) (A) (A) (A) (A) (A) (A) (A) (A)
                 (A) (A) (A) (A) (A) (A) (A) (A) (A) (A) (A) (A)
                 (A) (A) (A) (A) (A) (A) (A) (A) (A) (A) (A) (A)
                 (A) (A) (A) (A) (A) (A) (A) (A) (A) (A) (A) (A)
                 (A) (A) (A) (A) (A) (A) (A) (A) (A) (A) (A) (A)
                 (A) (A) (A) (A) (A) (A) (A) (A) (A) (A) (A) (A)
                 (A) (A) (A) (A) (A) (A) (A) (A) (A) (A) (A) (A)
                 (A) (A) (A) (A) (A) (A) (A) (A) (A) (A) (A) (A)
                 (A) (A) (A) (A) (A) (A) (A) (A) (A) (A) (A) (A)
                 (A) (A) (A) (A) (A) (A) (A) (A) (A) (A) (A) (A)
                 (A) (A) (A) (A) (A) (A) (A) (A) (A) (A) (A) (A)
                 (A) (A) (A) (A) (A) (A) (A) (A) (A) (A) (A) (A)
                 (A) (A) (A) (A) (A) (A) (A) (A) (A) (A) (A) (A)
                 (A) (A) (A) (A) (A) (A) (A) (A) (A) (A) (A) (A)
                 (A) (A) (A) (A) (A) (A) (A) (A) (A) (A) (A) (A)
                 (A) (A) (A) (A) (A) (A) (A) (A) (A) (A) (A) (A)
                 (A) (A) (A) (A) (A) (A) (A) (A) (A) (A) (A) (A)
                 (A) (A) (A) (A) (A) (A) (A) (A) (A) (A) (A) (A)
                 (A) (A) (A) (A) (A) (A) (A) (A) (A) (A) (A) (A)
 The electronic state is 1-A.
 Alpha  occ. eigenvalues --  -24.23375 -18.76490 -18.76272 -18.76173 -18.76001
 Alpha  occ. eigenvalues --  -11.11424  -7.17909  -7.17685  -7.17396  -3.53409
 Alpha  occ. eigenvalues --   -3.53345  -3.53211  -3.53145  -3.52941  -1.72660
 Alpha  occ. eigenvalues --   -1.04003  -0.94893  -0.92723  -0.91745  -0.88442
 Alpha  occ. eigenvalues --   -0.79907  -0.79089  -0.77855  -0.44651  -0.43347
 Alpha  occ. eigenvalues --   -0.42196  -0.39784  -0.34723  -0.34324  -0.33921
 Alpha  occ. eigenvalues --   -0.31012  -0.30167  -0.28700  -0.28549  -0.28273
 Alpha  occ. eigenvalues --   -0.27511  -0.27289  -0.26437
 Alpha virt. eigenvalues --   -0.12834  -0.12357  -0.11221  -0.11111  -0.10216
 Alpha virt. eigenvalues --   -0.09525  -0.07922  -0.07092  -0.01976   0.01120
 Alpha virt. eigenvalues --    0.01619   0.02733   0.02884   0.03324   0.03745
 Alpha virt. eigenvalues --    0.05515   0.07290   0.11025   0.11774   0.14069
 Alpha virt. eigenvalues --    0.17353   0.22609   0.24359   0.25593   0.27231
 Alpha virt. eigenvalues --    0.27502   0.27910   0.28783   0.29161   0.31160
 Alpha virt. eigenvalues --    0.32050   0.35083   0.36703   0.37866   0.39878
 Alpha virt. eigenvalues --    0.42271   0.42743   0.43614   0.45447   0.47537
 Alpha virt. eigenvalues --    0.48861   0.50844   0.52582   0.53127   0.53736
 Alpha virt. eigenvalues --    0.55832   0.57000   0.57818   0.59918   0.64347
 Alpha virt. eigenvalues --    0.67633   0.69090   0.70497   0.73769   0.74240
 Alpha virt. eigenvalues --    0.75640   0.82111   0.82646   0.86104   0.93762
 Alpha virt. eigenvalues --    0.94178   1.02979   1.06090   1.07813   1.08746
 Alpha virt. eigenvalues --    1.10053   1.10558   1.11535   1.12630   1.14032
 Alpha virt. eigenvalues --    1.15622   1.15909   1.16603   1.20442   1.24294
 Alpha virt. eigenvalues --    1.25920   1.27112   1.28592   1.30120   1.34122
 Alpha virt. eigenvalues --    1.35326   1.37882   1.38410   1.41891   1.47662
 Alpha virt. eigenvalues --    1.49222   1.51842   1.54715   1.57006   1.58072
 Alpha virt. eigenvalues --    1.58644   1.60354   1.67697   1.71586   1.72438
 Alpha virt. eigenvalues --    1.73497   1.75809   1.77973   1.80722   1.82669
 Alpha virt. eigenvalues --    1.85226   1.88674   1.91539   1.96371   1.96488
 Alpha virt. eigenvalues --    2.01712   2.09915   2.13564   2.15259   2.15690
 Alpha virt. eigenvalues --    2.18498   2.21252   2.21817   2.23529   2.26092
 Alpha virt. eigenvalues --    2.27869   2.31957   2.36108   2.38900   2.46818
 Alpha virt. eigenvalues --    2.51494   2.54828   2.56565   2.59626   2.61835
 Alpha virt. eigenvalues --    2.63565   2.66438   2.68293   2.70002   2.71681
 Alpha virt. eigenvalues --    2.75958   2.79196   2.88855   2.93444   2.98973
 Alpha virt. eigenvalues --    3.22539   3.22842   3.37273   3.42182   3.44438
 Alpha virt. eigenvalues --    3.58983   3.66077   3.69132   3.70580   3.71861
 Alpha virt. eigenvalues --    3.75581   3.83888   3.85842   3.89850   4.02630
 Alpha virt. eigenvalues --    4.10075   4.14252   4.18535   4.32609   5.00754
 Alpha virt. eigenvalues --    5.01087   5.01413   5.01539   5.01667   5.02285
[...]
     6  O   -0.663542
     7  H    0.364528
     8  O   -0.667808
     9  H    0.363047
    10  F   -0.465495
 Sum of Mulliken charges =  -0.00000
 Mulliken charges with hydrogens summed into heavy atoms:
               1
     1  Pa   1.684598
     2  O   -0.310948
     4  O   -0.304379
     6  O   -0.299015
     8  O   -0.304762
    10  F   -0.465495
 Electronic spatial extent (au):  <R**2>=            912.8624
 Charge=             -0.0000 electrons
 Dipole moment (field-independent basis, Debye):
    X=             -0.8932    Y=              6.5860    Z=             -0.7039  Tot=              6.6834
 Quadrupole moment (field-independent basis, Debye-Ang):
   XX=            -61.4472   YY=            -68.8987   ZZ=            -61.5934
   XY=              0.3209   XZ=              2.5270   YZ=              2.4570
 Traceless Quadrupole moment (field-independent basis, Debye-Ang):
   XX=              2.5326   YY=             -4.9189   ZZ=              2.3863
   XY=              0.3209   XZ=              2.5270   YZ=              2.4570
 Octapole moment (field-independent basis, Debye-Ang**2):
  XXX=            -17.8953  YYY=             37.2465  ZZZ=             -3.4708  XYY=             -3.6025
  XXY=             22.9324  XXZ=              2.4927  XZZ=             11.5627  YZZ=              1.5934
  YYZ=              2.4244  XYZ=             -0.2190
 Hexadecapole moment (field-independent basis, Debye-Ang**3):
 XXXX=           -335.6582 YYYY=           -369.4779 ZZZZ=           -187.7532 XXXY=             11.2241
 XXXZ=             -4.9344 YYYX=            -20.0523 YYYZ=              7.2611 ZZZX=             29.3992
 ZZZY=             18.0182 XXYY=           -115.0172 XXZZ=           -113.1076 YYZZ=           -111.0069
 XXYZ=             -2.2214 YYXZ=             -2.4837 ZZXY=              2.4233
 N-N= 4.866160736905D+02 E-N=-2.851256795288D+03  KE= 5.667693543578D+02
 Orbital energies and kinetic energies (alpha):
                                 1                 2
   1         O               -24.233747         37.161478
   2         O               -18.764896         29.112355
   3         O               -18.762718         29.112591
   4         O               -18.761733         29.112539
   5         O               -18.760011         29.113518
   6         O               -11.114243          4.704897
   7         O                -7.179087          5.038670
   8         O                -7.176849          5.037133
   9         O                -7.173965          5.036889
  10         O                -3.534086          6.840420
  11         O                -3.533450          6.840425
  12         O                -3.532106          6.840370
  13         O                -3.531446          6.839090
  14         O                -3.529408          6.838884
  15         O                -1.726602          6.498000
  16         O                -1.040027          3.629106
  17         O                -0.948929          2.299416
  18         O                -0.927235          2.424029
  19         O                -0.917446          2.761402
  20         O                -0.884421          2.946263
  21         O                -0.799068          2.585470
  22         O                -0.790889          2.707025
  23         O                -0.778555          2.633923
  24         O                -0.446511          2.636095
  25         O                -0.433472          4.288176
  26         O                -0.421961          3.514704
  27         O                -0.397838          2.310072
  28         O                -0.347233          3.736112
  29         O                -0.343241          2.893892
  30         O                -0.339208          3.568855
  31         O                -0.310119          2.313357
  32         O                -0.301669          3.119508
  33         O                -0.287000          2.331379
  34         O                -0.285486          3.167392
  35         O                -0.282729          3.059016
  36         O                -0.275107          3.459407
  37         O                -0.272890          2.981919
  38         O                -0.264371          3.890901
  39         V                -0.128336        207.066674
  40         V                -0.123573          6.132967
  41         V                -0.112213          9.250119
  42         V                -0.111114          7.934971
  43         V                -0.102160         26.868106
  44         V                -0.095249        147.977888
  45         V                -0.079221          6.090029
  46         V                -0.070921          5.363936
  47         V                -0.019762         13.805781
  48         V                 0.011205          1.197087
  49         V                 0.016193          1.481178
  50         V                 0.027330          1.032062
  51         V                 0.028840          1.587398
  52         V                 0.033243          1.394803
  53         V                 0.037445          1.902812
  54         V                 0.055149          2.874071
  55         V                 0.072896          1.164718
  56         V                 0.110247          6.703081
  57         V                 0.117739          0.948078
  58         V                 0.140691          1.217520
  59         V                 0.173535          1.689514
  60         V                 0.226086          1.197881
  61         V                 0.243591          1.042697
  62         V                 0.255927          1.192841
  63         V                 0.272309          1.191115
  64         V                 0.275015          1.517573
  65         V                 0.279100          1.406572
  66         V                 0.287825          1.064808
  67         V                 0.291606          1.092735
  68         V                 0.311596          2.447723
  69         V                 0.320498          2.249213
  70         V                 0.350834          1.358874
  71         V                 0.367031          1.405900
  72         V                 0.378661          1.773025
  73         V                 0.398784          2.299779
  74         V                 0.422706          1.586910
  75         V                 0.427434          1.476740
  76         V                 0.436140          1.498283
  77         V                 0.454469          1.995420
  78         V                 0.475367          1.786407
  79         V                 0.488612          1.681388
  80         V                 0.508440          2.235279
  81         V                 0.525820          1.892302
  82         V                 0.531269          1.554307
  83         V                 0.537357          2.415495
  84         V                 0.558324          1.667179
  85         V                 0.569999          1.644243
  86         V                 0.578178          1.526447
  87         V                 0.599179          2.730082
  88         V                 0.643470          1.594985
  89         V                 0.676326          2.090453
  90         V                 0.690895          2.176137
  91         V                 0.704966          1.712250
  92         V                 0.737694          1.759623
  93         V                 0.742397          1.554328
  94         V                 0.756395          1.735676
  95         V                 0.821114          1.764601
  96         V                 0.826464          1.789743
  97         V                 0.861041          1.798089
  98         V                 0.937621          3.283984
  99         V                 0.941778          2.694718
 100         V                 1.029787          2.630595
 101         V                 1.060898          2.803983
 102         V                 1.078132          2.776848
 103         V                 1.087462          2.652177
 104         V                 1.100528          2.478986
 105         V                 1.105578          3.152407
 106         V                 1.115349          3.082898
 107         V                 1.126298          2.680376
 108         V                 1.140317          2.974043
 109         V                 1.156216          2.638671
 110         V                 1.159088          2.711840
 111         V                 1.166028          2.328659
 112         V                 1.204416          2.562946
 113         V                 1.242939          2.660436
 114         V                 1.259203          3.793522
 115         V                 1.271121          3.389563
 116         V                 1.285919          3.496523
 117         V                 1.301199          2.760834
 118         V                 1.341219          2.697580
 119         V                 1.353258          2.835336
 120         V                 1.378819          2.387682
 121         V                 1.384105          2.475422
 122         V                 1.418911          2.655967
 123         V                 1.476617          2.922141
 124         V                 1.492221          2.634204
 125         V                 1.518418          3.162185
 126         V                 1.547152          3.324913
 127         V                 1.570056          3.459971
 128         V                 1.580718          3.484936
 129         V                 1.586438          3.264359
 130         V                 1.603538          3.432124
 131         V                 1.676971          3.231310
 132         V                 1.715855          3.305019
 133         V                 1.724376          3.155751
 134         V                 1.734966          3.334406
 135         V                 1.758092          3.364334
 136         V                 1.779734          3.564437
 137         V                 1.807225          3.410119
 138         V                 1.826695          3.635049
 139         V                 1.852260          3.506615
 140         V                 1.886736          3.437960
 141         V                 1.915391          3.590877
 142         V                 1.963708          3.139271
 143         V                 1.964880          3.544129
 144         V                 2.017124          3.207211
 145         V                 2.099149          4.136213
 146         V                 2.135641          3.888873
 147         V                 2.152588          3.521470
 148         V                 2.156900          3.879108
 149         V                 2.184984          3.463144
 150         V                 2.212520          3.876933
 151         V                 2.218171          4.110201
 152         V                 2.235287          4.097399
 153         V                 2.260918          3.923593
 154         V                 2.278690          5.365516
 155         V                 2.319568          4.119653
 156         V                 2.361077          4.229922
 157         V                 2.388998          4.224830
 158         V                 2.468183          4.198184
 159         V                 2.514939          4.429307
 160         V                 2.548277          4.484929
 161         V                 2.565645          6.493444
 162         V                 2.596257          6.483703
 163         V                 2.618352          5.849517
 164         V                 2.635652          6.363864
 165         V                 2.664380          6.347791
 166         V                 2.682932          6.131284
 167         V                 2.700022          6.305977
 168         V                 2.716812          6.337835
 169         V                 2.759580          6.377162
 170         V                 2.791964          6.476623
 171         V                 2.888547          6.885416
 172         V                 2.934442          6.783767
 173         V                 2.989728          6.621355
 174         V                 3.225390          8.725695
 175         V                 3.228416          8.724835
 176         V                 3.372727          8.561175
 177         V                 3.421820          8.606508
 178         V                 3.444384          8.840543
 179         V                 3.589827          7.991784
 180         V                 3.660774          8.676573
 181         V                 3.691316          6.604356
 182         V                 3.705801          7.257555
 183         V                 3.718611          7.465913
 184         V                 3.755806          8.381513
 185         V                 3.838880          9.497313
 186         V                 3.858421          9.436039
 187         V                 3.898501          8.796692
 188         V                 4.026303          9.268126
 189         V                 4.100749          9.535748
 190         V                 4.142522          9.272119
 191         V                 4.185352          9.634912
 192         V                 4.326090         10.162310
 193         V                 5.007536          6.439903
 194         V                 5.010872          6.455072
 195         V                 5.014131          6.452462
 196         V                 5.015392          6.457230
 197         V                 5.016669          6.454357
 198         V                 5.022853          6.487717
 199         V                 5.028036          6.475670
 200         V                 5.036270          6.483230
 201         V                 5.069992          6.692839
 202         V                 5.083623          6.729523
 203         V                 5.113966          6.703785
 204         V                 5.114727          6.698132
 205         V                 5.134965          6.784582
 206         V                 5.138862          6.914949
 207         V                 5.159913          7.032659
 208         V                 5.176946          6.879957
 209         V                 5.311580          7.028053
 210         V                 5.317836          6.900381
 211         V                 5.336869          6.969739
 212         V                 5.358603          7.652249
 213         V                 5.389386          7.032823
 214         V                 5.421021          7.113321
 215         V                 5.436942          7.206854
 216         V                 5.444272          7.193268
 217         V                 6.006406         10.916522
 218         V                 6.089184          9.027924
 219         V                 6.096054          8.984625
 220         V                 6.112109          9.095067
 221         V                 6.139563          9.305699
 222         V                 6.163660          9.292048
 223         V                 6.186390          9.247250
 224         V                 6.203171          9.319545
 225         V                 6.222606          9.346089
 226         V                 6.244694          9.252122
 227         V                 6.276475          9.387248
 228         V                 6.304912          9.382429
 229         V                 6.309481          9.434073
 230         V                 6.397884          9.596095
 231         V                 6.425281          9.617692
 232         V                 6.454734          9.623007
 233         V                 6.476294          9.655588
 234         V                 6.613028         10.057448
 235         V                 6.643822         10.386391
 236         V                 6.655352         10.246520
 237         V                 6.740914          9.134833
 238         V                 6.762338          8.633661
 239         V                 6.762699          8.643705
 240         V                 6.764215          8.655290
 241         V                 6.792010          9.078337
 242         V                 6.823582          8.846231
 243         V                 6.828777          8.847735
 244         V                 6.886027          9.630796
 245         V                 6.927607         10.082070
 246         V                 6.965243          9.919494
 247         V                 7.006772         10.098968
 248         V                 7.060961         10.901135
 249         V                 7.255043         12.942950
 250         V                 7.352363         13.387561
 251         V                 7.435519         13.675052
 252         V                 8.091957         15.265433
 253         V                 8.128937         14.998048
 254         V                 8.146392         13.292687
 255         V                 8.181575         14.800321
 256         V                 8.191059         12.721127
 257         V                 8.387668         13.279045
 258         V                 8.428691         13.368124
 259         V                 8.577028         15.106128
 260         V                 8.724143         14.846152
 261         V                 9.053586         15.489909
 262         V                29.288400         36.026868
 263         V                29.394617         36.124154
 264         V                29.432396         36.172852
 265         V                43.203045        108.559589
 266         V                43.309814        108.648605
 267         V                43.368521        108.726348
 268         V                43.380560        108.729711
 269         V                54.059439         40.010061
 270         V                56.691439        141.625767
 271         V                70.201308         83.947817
 272         V                70.259090         84.061925
 273         V                70.284310         84.104306
 274         V               142.588984        242.427133
 275         V               142.701551        242.568760
 276         V               142.748423        242.627560
 277         V               202.567832        130.074728
 278         V               626.079395       1034.493307
 Total kinetic energy from orbitals= 5.667693543578D+02
 No NMR shielding tensors so no spin-rotation constants.
 Leave Link  601 at Tue Jul  4 09:47:10 2023, MaxMem=  2147483648 cpu:               2.8 elap:               0.4
 (Enter /home/pcmt/gaussian/g16.C.01/g16/l9999.exe)

 Test job not archived.
 1\1\GINC-U-0-13\SP\RBP86\Gen\F1H4O4Pa1\ROOT\04-Jul-2023\0\\#p BP86/GEN
  Pseudo=Read GFInput GFPrint IOP(6/7=3) Symm=(Loose) Int=(UltraFine) G
 uess=(Harris) SCRF=(COSMORS) Scf=(NoVarAcc,MaxCycle=100,conver=8)\\pa_
 oh4_f-bp86-cosmors-deftzvp-klamt.com SGP in PCM calculation\\0,1\Pa,0,
 0.5323281568,0.0516430759,0.2672880064\O,0,1.4016669326,1.7013369316,-
 0.7466253606\H,0,1.0623645272,2.3562869248,-1.3697605192\O,0,-1.369352
 7966,0.9400540802,0.1712745157\H,0,-2.0747894485,1.3257563455,-0.36025
 36016\O,0,0.3029491255,-1.0321205669,-1.5344365723\H,0,-0.1104692258,-
 1.8658997241,-1.7850825337\O,0,-0.2072234195,-1.5121838739,1.496372062
 2\H,0,-1.1068807547,-1.7813383101,1.7218542851\F,0,2.5149276455,-0.658
 3321535,0.6629514336\\Version=ES64L-G16RevC.01\State=1-A\HF=-845.30089
 41\RMSD=2.627e-09\Dipole=-2.4822654,0.8673553,0.0110199\Quadrupole=-3.
 1109278,2.9759644,0.1349634,2.2933069,1.4677369,0.5173417\PG=C01 [X(F1
 H4O4Pa1)]\\@


 CHILDREN YOU ARE VERY LITTLE,
 AND YOUR BONES ARE VERY BRITTLE;
 IF YOU WOULD GROW GREAT AND STATELY
 YOU MUST TRY TO WALK SEDATELY.
 YOU MUST STILL BE BRIGHT AND QUIET,
 AND CONTENT WITH SIMPLE DIET;
 AND REMAIN, THROUGH ALL BEWILD'RING
 INNOCENT AND HONEST CHILDREN.
     -- A CHILD'S GARDEN OF VERSE,
        ROBERT LOUIS STEVENSON
 Job cpu time:       0 days  0 hours 12 minutes 40.1 seconds.
 Elapsed time:       0 days  0 hours  2 minutes  7.2 seconds.
 File lengths (MBytes):  RWF=     42 Int=      0 D2E=      0 Chk=      6 Scr=      1
 Normal termination of Gaussian 16 at Tue Jul  4 09:47:10 2023.
