 Entering Gaussian System, Link 0=/home/pcmt/gaussian/g16.C.01/g16/g16
 AtFile(1): /home/shaaban/basis.gaussian/Pa-def-TZVP
 AtFile(1): /home/shaaban/basis.gaussian/Pa-ECP60MWB
 Initial command:
 /home/pcmt/gaussian/g16.C.01/g16/l1.exe "/state/partition2/shaaban/972868.phlam-s-sakura/Gau-182824.inp" -scrdir="/state/partition2/shaaban/972868.phlam-s-sakura/"
 Entering Link 1 = /home/pcmt/gaussian/g16.C.01/g16/l1.exe PID=    182825.
  
 Copyright (c) 1988-2019, Gaussian, Inc.  All Rights Reserved.
  
 This is part of the Gaussian(R) 16 program.  It is based on
 the Gaussian(R) 09 system (copyright 2009, Gaussian, Inc.),
 the Gaussian(R) 03 system (copyright 2003, Gaussian, Inc.),
 the Gaussian(R) 98 system (copyright 1998, Gaussian, Inc.),
 the Gaussian(R) 94 system (copyright 1995, Gaussian, Inc.),
 the Gaussian 92(TM) system (copyright 1992, Gaussian, Inc.),
 the Gaussian 90(TM) system (copyright 1990, Gaussian, Inc.),
 the Gaussian 88(TM) system (copyright 1988, Gaussian, Inc.),
 the Gaussian 86(TM) system (copyright 1986, Carnegie Mellon
 University), and the Gaussian 82(TM) system (copyright 1983,
 Carnegie Mellon University). Gaussian is a federally registered
 trademark of Gaussian, Inc.
  
 This software contains proprietary and confidential information,
 including trade secrets, belonging to Gaussian, Inc.
  
 This software is provided under written license and may be
 used, copied, transmitted, or stored only in accord with that
 written license.
  
 The following legend is applicable only to US Government
 contracts under FAR:
  
                    RESTRICTED RIGHTS LEGEND
  
 Use, reproduction and disclosure by the US Government is
 subject to restrictions as set forth in subparagraphs (a)
 and (c) of the Commercial Computer Software - Restricted
 Rights clause in FAR 52.227-19.
  
 Gaussian, Inc.
 340 Quinnipiac St., Bldg. 40, Wallingford CT 06492
  
  
 ---------------------------------------------------------------
 Warning -- This program may not be used in any manner that
 competes with the business of Gaussian, Inc. or will provide
 assistance to any competitor of Gaussian, Inc.  The licensee
 of this program is prohibited from giving any competitor of
 Gaussian, Inc. access to this program.  By using this program,
 the user acknowledges that Gaussian, Inc. is engaged in the
 business of creating and licensing software in the field of
 computational chemistry and represents and warrants to the
 licensee that it is not a competitor of Gaussian, Inc. and that
 it will not use this program in any manner prohibited above.
 ---------------------------------------------------------------
  

 Cite this work as:
 Gaussian 16, Revision C.01,
 M. J. Frisch, G. W. Trucks, H. B. Schlegel, G. E. Scuseria, 
 M. A. Robb, J. R. Cheeseman, G. Scalmani, V. Barone, 
 G. A. Petersson, H. Nakatsuji, X. Li, M. Caricato, A. V. Marenich, 
 J. Bloino, B. G. Janesko, R. Gomperts, B. Mennucci, H. P. Hratchian, 
 J. V. Ortiz, A. F. Izmaylov, J. L. Sonnenberg, D. Williams-Young, 
 F. Ding, F. Lipparini, F. Egidi, J. Goings, B. Peng, A. Petrone, 
 T. Henderson, D. Ranasinghe, V. G. Zakrzewski, J. Gao, N. Rega, 
 G. Zheng, W. Liang, M. Hada, M. Ehara, K. Toyota, R. Fukuda, 
 J. Hasegawa, M. Ishida, T. Nakajima, Y. Honda, O. Kitao, H. Nakai, 
 T. Vreven, K. Throssell, J. A. Montgomery, Jr., J. E. Peralta, 
 F. Ogliaro, M. J. Bearpark, J. J. Heyd, E. N. Brothers, K. N. Kudin, 
 V. N. Staroverov, T. A. Keith, R. Kobayashi, J. Normand, 
 K. Raghavachari, A. P. Rendell, J. C. Burant, S. S. Iyengar, 
 J. Tomasi, M. Cossi, J. M. Millam, M. Klene, C. Adamo, R. Cammi, 
 J. W. Ochterski, R. L. Martin, K. Morokuma, O. Farkas, 
 J. B. Foresman, and D. J. Fox, Gaussian, Inc., Wallingford CT, 2019.
 
 ******************************************
 Gaussian 16:  ES64L-G16RevC.01  3-Jul-2019
                 4-Jul-2023 
 ******************************************
 %mem=16Gb
 %NProc=8
 Will use up to    8 processors via shared memory.
 %chk=pa_oh4_cl-bp86-cosmors-deftzvp-gp.chk
 ----------------------------------------------------------------------
 #p BP86/GEN Pseudo=Read GFInput GFPrint IOP(6/7=3) Symm=(Loose) Int=(U
 ltraFine) Guess=(Harris) Scf=(NoVarAcc,MaxCycle=100,conver=8)
 ----------------------------------------------------------------------
 1/38=1,172=1/1;
 2/12=2,17=4,18=3,40=1/2;
 3/5=7,11=2,16=1,17=8,24=110,25=1,30=1,74=404,75=-5/1,2,3;
 4/11=8/1;
 5/5=2,6=8,7=100,38=1/2;
 6/7=3,8=2,9=2,10=2,28=1/1;
 99/5=1,9=1/99;
 Leave Link    1 at Tue Jul  4 10:46:01 2023, MaxMem=  2147483648 cpu:               0.5 elap:               0.1
 (Enter /home/pcmt/gaussian/g16.C.01/g16/l101.exe)
 ------------------------------------------------------------
 pa_oh4_cl-bp86-cosmors-deftzvp-gp.com SGP in PCM calculation
 ------------------------------------------------------------
 Symbolic Z-matrix:
 Charge =  0 Multiplicity = 1
 Pa                    0.44897   0.0848    0.30927 
 O                     1.18548   1.76105  -0.70107 
 H                     1.22977   2.16926  -1.57518 
 O                    -1.50852   0.84224   0.19781 
 H                    -2.009     1.51805  -0.27482 
 O                     0.38922  -1.02794  -1.45756 
 H                    -0.0081   -1.81746  -1.84193 
 O                    -0.24446  -1.49108   1.50689 
 H                    -1.09995  -1.88605   1.72039 
 Cl                    2.9872   -0.61199   0.94104 
 
 ITRead=  0  0  0  0  0  0  0  0  0  0
 MicOpt= -1 -1 -1 -1 -1 -1 -1 -1 -1 -1
 NAtoms=     10 NQM=       10 NQMF=       0 NMMI=      0 NMMIF=      0
                NMic=       0 NMicF=      0.
                    Isotopes and Nuclear Properties:
 (Nuclear quadrupole moments (NQMom) in fm**2, nuclear magnetic moments (NMagM)
  in nuclear magnetons)

  Atom         1           2           3           4           5           6           7           8           9          10
 IAtWgt=         231          16           1          16           1          16           1          16           1          35
 AtmWgt= 231.0359000  15.9949146   1.0078250  15.9949146   1.0078250  15.9949146   1.0078250  15.9949146   1.0078250  34.9688527
 NucSpn=           3           0           1           0           1           0           1           0           1           3
 AtZEff=  -0.0000000  -0.0000000  -0.0000000  -0.0000000  -0.0000000  -0.0000000  -0.0000000  -0.0000000  -0.0000000  -0.0000000
 NQMom= -172.0000000   0.0000000   0.0000000   0.0000000   0.0000000   0.0000000   0.0000000   0.0000000   0.0000000  -8.1650000
 NMagM=    2.0100000   0.0000000   2.7928460   0.0000000   2.7928460   0.0000000   2.7928460   0.0000000   2.7928460   0.8218740
 AtZNuc=  91.0000000   8.0000000   1.0000000   8.0000000   1.0000000   8.0000000   1.0000000   8.0000000   1.0000000  17.0000000
 Leave Link  101 at Tue Jul  4 10:46:01 2023, MaxMem=  2147483648 cpu:               0.6 elap:               0.1
 (Enter /home/pcmt/gaussian/g16.C.01/g16/l202.exe)
                          Input orientation:                          
 ---------------------------------------------------------------------
 Center     Atomic      Atomic             Coordinates (Angstroms)
 Number     Number       Type             X           Y           Z
 ---------------------------------------------------------------------
      1         91           0        0.448970    0.084795    0.309273
      2          8           0        1.185481    1.761049   -0.701072
      3          1           0        1.229770    2.169261   -1.575177
      4          8           0       -1.508525    0.842235    0.197808
      5          1           0       -2.009001    1.518049   -0.274817
      6          8           0        0.389223   -1.027943   -1.457562
      7          1           0       -0.008100   -1.817458   -1.841926
      8          8           0       -0.244459   -1.491080    1.506890
      9          1           0       -1.099948   -1.886046    1.720388
     10         17           0        2.987198   -0.611993    0.941043
 ---------------------------------------------------------------------
                    Distance matrix (angstroms):
                    1          2          3          4          5
     1  Pa   0.000000
     2  O    2.091189   0.000000
     3  H    2.916470   0.965742   0.000000
     4  O    2.101886   2.984940   3.521751   0.000000
     5  H    2.904651   3.231943   3.550302   0.964663   0.000000
     6  O    2.088891   2.997462   3.307939   3.136760   3.692213
     7  H    2.907772   3.941053   4.182990   3.672296   4.193452
     8  O    2.097263   4.182842   5.007053   2.959040   3.917007
     9  H    2.876561   4.938416   5.721350   3.150984   4.049084
    10  Cl   2.706889   3.402066   4.141894   4.783168   5.565734
                    6          7          8          9         10
     6  O    0.000000
     7  H    0.963813   0.000000
     8  O    3.066599   3.372974   0.000000
     9  H    3.612941   3.726515   0.966148   0.000000
    10  Cl   3.560308   4.262613   3.396554   4.351476   0.000000
 Stoichiometry    ClH4O4Pa
 Framework group  C1[X(ClH4O4Pa)]
 Deg. of freedom    24
 Full point group                 C1      NOp   1
 Largest Abelian subgroup         C1      NOp   1
 Largest concise Abelian subgroup C1      NOp   1
                         Standard orientation:                         
 ---------------------------------------------------------------------
 Center     Atomic      Atomic             Coordinates (Angstroms)
 Number     Number       Type             X           Y           Z
 ---------------------------------------------------------------------
      1         91           0        0.171225   -0.003397   -0.095973
      2          8           0        0.155401    2.083731   -0.225260
      3          1           0        0.418596    2.881823    0.250593
      4          8           0        2.233436   -0.041308   -0.500665
      5          1           0        2.989015    0.558026   -0.522425
      6          8           0        0.324620    0.067269    1.986080
      7          1           0        0.571714   -0.472037    2.745704
      8          8           0        0.131649   -2.098754   -0.176126
      9          1           0        0.780013   -2.814370   -0.145145
     10         17           0       -2.535395    0.004013   -0.133380
 ---------------------------------------------------------------------
 Rotational constants (GHZ):           2.1427248           1.2547339           1.0513057
 Leave Link  202 at Tue Jul  4 10:46:01 2023, MaxMem=  2147483648 cpu:               0.1 elap:               0.0
 (Enter /home/pcmt/gaussian/g16.C.01/g16/l301.exe)
 General basis read from cards:  (5D, 7F)
 Centers:       1
 S 3 1.00
     Exponent=  1.2047376000D+04 Coefficients=  3.4500000000D-04
     Exponent=  1.8116841000D+03 Coefficients=  2.7420000000D-03
     Exponent=  3.4770104000D+02 Coefficients=  1.0053000000D-02
 S 1 1.00
     Exponent=  9.8678010000D+01 Coefficients=  1.0000000000D+00
 S 3 1.00
     Exponent=  5.7507376000D+01 Coefficients=  5.1528000000D-02
     Exponent=  3.3502601000D+01 Coefficients= -2.3692400000D-01
     Exponent=  1.9554451000D+01 Coefficients=  7.1904800000D-01
 S 1 1.00
     Exponent=  9.7164210000D+00 Coefficients=  1.0000000000D+00
 S 1 1.00
     Exponent=  2.6920960000D+00 Coefficients=  1.0000000000D+00
 S 1 1.00
     Exponent=  1.4538470000D+00 Coefficients=  1.0000000000D+00
 S 1 1.00
     Exponent=  5.7435200000D-01 Coefficients=  1.0000000000D+00
 S 1 1.00
     Exponent=  2.6346800000D-01 Coefficients=  1.0000000000D+00
 S 1 1.00
     Exponent=  5.6557000000D-02 Coefficients=  1.0000000000D+00
 S 1 1.00
     Exponent=  2.3169000000D-02 Coefficients=  1.0000000000D+00
 P 5 1.00
     Exponent=  2.9033676000D+03 Coefficients=  3.5000000000D-05
     Exponent=  6.4486356000D+02 Coefficients=  2.0500000000D-04
     Exponent=  2.2025896000D+02 Coefficients=  1.2510000000D-03
     Exponent=  8.0276401000D+01 Coefficients=  2.4570000000D-03
     Exponent=  2.4080211000D+01 Coefficients=  1.1190000000D-02
 P 1 1.00
     Exponent=  1.4077580000D+01 Coefficients=  1.0000000000D+00
 P 1 1.00
     Exponent=  8.2658460000D+00 Coefficients=  1.0000000000D+00
 P 1 1.00
     Exponent=  3.5948000000D+00 Coefficients=  1.0000000000D+00
 P 1 1.00
     Exponent=  1.7531110000D+00 Coefficients=  1.0000000000D+00
 P 1 1.00
     Exponent=  6.5776700000D-01 Coefficients=  1.0000000000D+00
 P 1 1.00
     Exponent=  2.8463900000D-01 Coefficients=  1.0000000000D+00
 P 1 1.00
     Exponent=  1.0054300000D-01 Coefficients=  1.0000000000D+00
 P 1 1.00
     Exponent=  3.0190000000D-02 Coefficients=  1.0000000000D+00
 D 6 1.00
     Exponent=  4.4814991000D+02 Coefficients=  2.6000000000D-05
     Exponent=  1.5446145000D+02 Coefficients=  2.2800000000D-04
     Exponent=  6.0925377000D+01 Coefficients=  9.0400000000D-04
     Exponent=  1.7032091000D+01 Coefficients=  2.5647000000D-02
     Exponent=  1.0018877000D+01 Coefficients= -1.0575100000D-01
     Exponent=  3.4091930000D+00 Coefficients=  4.4743200000D-01
 D 1 1.00
     Exponent=  1.6702130000D+00 Coefficients=  1.0000000000D+00
 D 1 1.00
     Exponent=  7.4109500000D-01 Coefficients=  1.0000000000D+00
 D 1 1.00
     Exponent=  2.6139300000D-01 Coefficients=  1.0000000000D+00
 D 1 1.00
     Exponent=  8.2811000000D-02 Coefficients=  1.0000000000D+00
 F 5 1.00
     Exponent=  8.7991327000D+01 Coefficients=  2.2600000000D-04
     Exponent=  2.8340195000D+01 Coefficients=  2.3230000000D-03
     Exponent=  1.2440994000D+01 Coefficients=  4.5850000000D-03
     Exponent=  3.9572960000D+00 Coefficients=  1.5696100000D-01
     Exponent=  1.8759440000D+00 Coefficients=  3.4497700000D-01
 F 1 1.00
     Exponent=  8.2758900000D-01 Coefficients=  1.0000000000D+00
 F 1 1.00
     Exponent=  3.3274800000D-01 Coefficients=  1.0000000000D+00
 F 1 1.00
     Exponent=  1.1468500000D-01 Coefficients=  1.0000000000D+00
 G 1 1.00
     Exponent=  3.5000000000D-01 Coefficients=  1.0000000000D+00
 ****
 Centers:       2      4      6      8
 Def2TZVP
 ****
 Centers:       3      5      7      9
 Def2TZVP
 ****
 Centers:      10
 Def2TZVP
 ****
 ======================================================================================================
                                       Pseudopotential Parameters
 ======================================================================================================
  Center     Atomic      Valence      Angular      Power
  Number     Number     Electrons     Momentum     of R      Exponent        Coefficient   SO-Coeffient
 ======================================================================================================
    1         91           31
                                      H and up 
                                                     2        1.0000000        0.00000000    0.00000000
                                      S - H
                                                     2       15.2691737      475.47573283    0.00000000
                                      P - H
                                                     2        9.9577370      207.66485962    0.00000000
                                      D - H
                                                     2        8.9431413      156.67411988    0.00000000
                                      F - H
                                                     2        7.0104666       67.98223685    0.00000000
                                      G - H
                                                     2       12.2010560      -57.63059989    0.00000000
    2          8
                                   No pseudopotential on this center.
    3          1
                                   No pseudopotential on this center.
    4          8
                                   No pseudopotential on this center.
    5          1
                                   No pseudopotential on this center.
    6          8
                                   No pseudopotential on this center.
    7          1
                                   No pseudopotential on this center.
    8          8
                                   No pseudopotential on this center.
    9          1
                                   No pseudopotential on this center.
   10         17
                                   No pseudopotential on this center.
 ======================================================================================================
 Ernie: Thresh=  0.10000D-02 Tol=  0.10000D-05 Strict=F.
 AO basis set in the form of general basis input (Overlap normalization):
      1 0
 S   3 1.00       0.000000000000
      0.1204737600D+05  0.2857094961D-01
      0.1811684100D+04  0.2270769386D+00
      0.3477010400D+03  0.8325326273D+00
 S   3 1.00       0.000000000000
      0.5750737600D+02  0.9569327984D-01
      0.3350260100D+02 -0.4399944619D+00
      0.1955445100D+02  0.1335352847D+01
 S   1 1.00       0.000000000000
      0.9867801000D+02  0.1000000000D+01
 S   1 1.00       0.000000000000
      0.9716421000D+01  0.1000000000D+01
 S   1 1.00       0.000000000000
      0.2692096000D+01  0.1000000000D+01
 S   1 1.00       0.000000000000
      0.1453847000D+01  0.1000000000D+01
 S   1 1.00       0.000000000000
      0.5743520000D+00  0.1000000000D+01
 S   1 1.00       0.000000000000
      0.2634680000D+00  0.1000000000D+01
 S   1 1.00       0.000000000000
      0.5655700000D-01  0.1000000000D+01
 S   1 1.00       0.000000000000
      0.2316900000D-01  0.1000000000D+01
 P   5 1.00       0.000000000000
      0.2903367600D+04  0.2594222647D-02
      0.6448635600D+03  0.1519473264D-01
      0.2202589600D+03  0.9272492945D-01
      0.8027640100D+02  0.1821144298D+00
      0.2408021100D+02  0.8294100404D+00
 P   1 1.00       0.000000000000
      0.1407758000D+02  0.1000000000D+01
 P   1 1.00       0.000000000000
      0.8265846000D+01  0.1000000000D+01
 P   1 1.00       0.000000000000
      0.3594800000D+01  0.1000000000D+01
 P   1 1.00       0.000000000000
      0.1753111000D+01  0.1000000000D+01
 P   1 1.00       0.000000000000
      0.6577670000D+00  0.1000000000D+01
 P   1 1.00       0.000000000000
      0.2846390000D+00  0.1000000000D+01
 P   1 1.00       0.000000000000
      0.1005430000D+00  0.1000000000D+01
 P   1 1.00       0.000000000000
      0.3019000000D-01  0.1000000000D+01
 D   6 1.00       0.000000000000
      0.4481499100D+03  0.6556927566D-04
      0.1544614500D+03  0.5749921096D-03
      0.6092537700D+02  0.2279793277D-02
      0.1703209100D+02  0.6467904664D-01
      0.1001887700D+02 -0.2666929411D+00
      0.3409193000D+01  0.1128376621D+01
 D   1 1.00       0.000000000000
      0.1670213000D+01  0.1000000000D+01
 D   1 1.00       0.000000000000
      0.7410950000D+00  0.1000000000D+01
 D   1 1.00       0.000000000000
      0.2613930000D+00  0.1000000000D+01
 D   1 1.00       0.000000000000
      0.8281100000D-01  0.1000000000D+01
 F   5 1.00       0.000000000000
      0.8799132700D+02  0.4766318191D-03
      0.2834019500D+02  0.4899184583D-02
      0.1244099400D+02  0.9669720755D-02
      0.3957296000D+01  0.3310292343D+00
      0.1875944000D+01  0.7275531640D+00
 F   1 1.00       0.000000000000
      0.8275890000D+00  0.1000000000D+01
 F   1 1.00       0.000000000000
      0.3327480000D+00  0.1000000000D+01
 F   1 1.00       0.000000000000
      0.1146850000D+00  0.1000000000D+01
 G   1 1.00       0.000000000000
      0.3500000000D+00  0.1000000000D+01
 ****
      2 0
 S   6 1.00       0.000000000000
      0.2703238263D+05  0.5722733521D-03
      0.4052387139D+04  0.4435323349D-02
      0.9223272271D+03  0.2302010771D-01
      0.2612407099D+03  0.9282249067D-01
      0.8535464135D+02  0.2937850001D+00
      0.3103503524D+02  0.6740160450D+00
 S   2 1.00       0.000000000000
      0.1226086073D+02  0.6383993703D+00
      0.4998707601D+01  0.3953458713D+00
 S   1 1.00       0.000000000000
      0.1170310816D+01  0.1000000000D+01
 S   1 1.00       0.000000000000
      0.4647474099D+00  0.1000000000D+01
 S   1 1.00       0.000000000000
      0.1850453636D+00  0.1000000000D+01
 P   4 1.00       0.000000000000
      0.6327495480D+02  0.1201833222D-01
      0.1462704938D+02  0.8300542179D-01
      0.4450122346D+01  0.3199174393D+00
      0.1527579965D+01  0.7071554292D+00
 P   1 1.00       0.000000000000
      0.5293511794D+00  0.1000000000D+01
 P   1 1.00       0.000000000000
      0.1747842127D+00  0.1000000000D+01
 D   1 1.00       0.000000000000
      0.2314000000D+01  0.1000000000D+01
 D   1 1.00       0.000000000000
      0.6450000000D+00  0.1000000000D+01
 F   1 1.00       0.000000000000
      0.1428000000D+01  0.1000000000D+01
 ****
      3 0
 S   3 1.00       0.000000000000
      0.3406134100D+02  0.2543930721D-01
      0.5123574600D+01  0.1900859489D+00
      0.1164662600D+01  0.8524411301D+00
 S   1 1.00       0.000000000000
      0.3272304100D+00  0.1000000000D+01
 S   1 1.00       0.000000000000
      0.1030724100D+00  0.1000000000D+01
 P   1 1.00       0.000000000000
      0.8000000000D+00  0.1000000000D+01
 ****
      4 0
 S   6 1.00       0.000000000000
      0.2703238263D+05  0.5722733521D-03
      0.4052387139D+04  0.4435323349D-02
      0.9223272271D+03  0.2302010771D-01
      0.2612407099D+03  0.9282249067D-01
      0.8535464135D+02  0.2937850001D+00
      0.3103503524D+02  0.6740160450D+00
 S   2 1.00       0.000000000000
      0.1226086073D+02  0.6383993703D+00
      0.4998707601D+01  0.3953458713D+00
 S   1 1.00       0.000000000000
      0.1170310816D+01  0.1000000000D+01
 S   1 1.00       0.000000000000
      0.4647474099D+00  0.1000000000D+01
 S   1 1.00       0.000000000000
      0.1850453636D+00  0.1000000000D+01
 P   4 1.00       0.000000000000
      0.6327495480D+02  0.1201833222D-01
      0.1462704938D+02  0.8300542179D-01
      0.4450122346D+01  0.3199174393D+00
      0.1527579965D+01  0.7071554292D+00
 P   1 1.00       0.000000000000
      0.5293511794D+00  0.1000000000D+01
 P   1 1.00       0.000000000000
      0.1747842127D+00  0.1000000000D+01
 D   1 1.00       0.000000000000
      0.2314000000D+01  0.1000000000D+01
 D   1 1.00       0.000000000000
      0.6450000000D+00  0.1000000000D+01
 F   1 1.00       0.000000000000
      0.1428000000D+01  0.1000000000D+01
 ****
      5 0
 S   3 1.00       0.000000000000
      0.3406134100D+02  0.2543930721D-01
      0.5123574600D+01  0.1900859489D+00
      0.1164662600D+01  0.8524411301D+00
 S   1 1.00       0.000000000000
      0.3272304100D+00  0.1000000000D+01
 S   1 1.00       0.000000000000
      0.1030724100D+00  0.1000000000D+01
 P   1 1.00       0.000000000000
      0.8000000000D+00  0.1000000000D+01
 ****
      6 0
 S   6 1.00       0.000000000000
      0.2703238263D+05  0.5722733521D-03
      0.4052387139D+04  0.4435323349D-02
      0.9223272271D+03  0.2302010771D-01
      0.2612407099D+03  0.9282249067D-01
      0.8535464135D+02  0.2937850001D+00
      0.3103503524D+02  0.6740160450D+00
 S   2 1.00       0.000000000000
      0.1226086073D+02  0.6383993703D+00
      0.4998707601D+01  0.3953458713D+00
 S   1 1.00       0.000000000000
      0.1170310816D+01  0.1000000000D+01
 S   1 1.00       0.000000000000
      0.4647474099D+00  0.1000000000D+01
 S   1 1.00       0.000000000000
      0.1850453636D+00  0.1000000000D+01
 P   4 1.00       0.000000000000
      0.6327495480D+02  0.1201833222D-01
      0.1462704938D+02  0.8300542179D-01
      0.4450122346D+01  0.3199174393D+00
      0.1527579965D+01  0.7071554292D+00
 P   1 1.00       0.000000000000
      0.5293511794D+00  0.1000000000D+01
 P   1 1.00       0.000000000000
      0.1747842127D+00  0.1000000000D+01
 D   1 1.00       0.000000000000
      0.2314000000D+01  0.1000000000D+01
 D   1 1.00       0.000000000000
      0.6450000000D+00  0.1000000000D+01
 F   1 1.00       0.000000000000
      0.1428000000D+01  0.1000000000D+01
 ****
      7 0
 S   3 1.00       0.000000000000
      0.3406134100D+02  0.2543930721D-01
      0.5123574600D+01  0.1900859489D+00
      0.1164662600D+01  0.8524411301D+00
 S   1 1.00       0.000000000000
      0.3272304100D+00  0.1000000000D+01
 S   1 1.00       0.000000000000
      0.1030724100D+00  0.1000000000D+01
 P   1 1.00       0.000000000000
      0.8000000000D+00  0.1000000000D+01
 ****
      8 0
 S   6 1.00       0.000000000000
      0.2703238263D+05  0.5722733521D-03
      0.4052387139D+04  0.4435323349D-02
      0.9223272271D+03  0.2302010771D-01
      0.2612407099D+03  0.9282249067D-01
      0.8535464135D+02  0.2937850001D+00
      0.3103503524D+02  0.6740160450D+00
 S   2 1.00       0.000000000000
      0.1226086073D+02  0.6383993703D+00
      0.4998707601D+01  0.3953458713D+00
 S   1 1.00       0.000000000000
      0.1170310816D+01  0.1000000000D+01
 S   1 1.00       0.000000000000
      0.4647474099D+00  0.1000000000D+01
 S   1 1.00       0.000000000000
      0.1850453636D+00  0.1000000000D+01
 P   4 1.00       0.000000000000
      0.6327495480D+02  0.1201833222D-01
      0.1462704938D+02  0.8300542179D-01
      0.4450122346D+01  0.3199174393D+00
      0.1527579965D+01  0.7071554292D+00
 P   1 1.00       0.000000000000
      0.5293511794D+00  0.1000000000D+01
 P   1 1.00       0.000000000000
      0.1747842127D+00  0.1000000000D+01
 D   1 1.00       0.000000000000
      0.2314000000D+01  0.1000000000D+01
 D   1 1.00       0.000000000000
      0.6450000000D+00  0.1000000000D+01
 F   1 1.00       0.000000000000
      0.1428000000D+01  0.1000000000D+01
 ****
      9 0
 S   3 1.00       0.000000000000
      0.3406134100D+02  0.2543930721D-01
      0.5123574600D+01  0.1900859489D+00
      0.1164662600D+01  0.8524411301D+00
 S   1 1.00       0.000000000000
      0.3272304100D+00  0.1000000000D+01
 S   1 1.00       0.000000000000
      0.1030724100D+00  0.1000000000D+01
 P   1 1.00       0.000000000000
      0.8000000000D+00  0.1000000000D+01
 ****
     10 0
 S   7 1.00       0.000000000000
      0.6950799094D+05  0.5145738965D-03
      0.1042615688D+05  0.3978134481D-02
      0.2373233406D+04  0.2045617867D-01
      0.6715642007D+03  0.8014810289D-01
      0.2184199979D+03  0.2345477032D+00
      0.7757224971D+02  0.4454336858D+00
      0.2888881528D+02  0.3546684250D+00
 S   3 1.00       0.000000000000
      0.1271052718D+03  0.1129368805D+00
      0.3933958296D+02  0.4837351421D+00
      0.7674067999D+01 -0.1229229739D+01
 S   2 1.00       0.000000000000
      0.3874562763D+01  0.6729682164D+00
      0.1838583257D+01  0.3495605141D+00
 S   1 1.00       0.000000000000
      0.5022905754D+00  0.1000000000D+01
 S   1 1.00       0.000000000000
      0.1796272342D+00  0.1000000000D+01
 P   5 1.00       0.000000000000
      0.6665042328D+03  0.3350250820D-02
      0.1576424169D+03  0.2676397041D-01
      0.5026252098D+02  0.1236268236D+00
      0.1853607811D+02  0.3584578792D+00
      0.7294053278D+01  0.6167729635D+00
 P   1 1.00       0.000000000000
      0.2943324899D+01  0.1000000000D+01
 P   1 1.00       0.000000000000
      0.1040497082D+01  0.1000000000D+01
 P   1 1.00       0.000000000000
      0.3845641508D+00  0.1000000000D+01
 P   1 1.00       0.000000000000
      0.1306964273D+00  0.1000000000D+01
 D   2 1.00       0.000000000000
      0.4610000000D+01  0.1826583505D+00
      0.1011000000D+01  0.9132917523D+00
 D   1 1.00       0.000000000000
      0.3390000000D+00  0.1000000000D+01
 F   1 1.00       0.000000000000
      0.7060000000D+00  0.1000000000D+01
 ****

 AO basis set (Overlap normalization):
 Atom Pa1      Shell     1 S   3     bf    1 -     1          0.323569258128         -0.006420188097         -0.181361785419
      0.1204737600D+05  0.2857094961D-01
      0.1811684100D+04  0.2270769386D+00
      0.3477010400D+03  0.8325326273D+00
 Atom Pa1      Shell     2 S   3     bf    2 -     2          0.323569258128         -0.006420188097         -0.181361785419
      0.5750737600D+02  0.9569327984D-01
      0.3350260100D+02 -0.4399944619D+00
      0.1955445100D+02  0.1335352847D+01
 Atom Pa1      Shell     3 S   1     bf    3 -     3          0.323569258128         -0.006420188097         -0.181361785419
      0.9867801000D+02  0.1000000000D+01
 Atom Pa1      Shell     4 S   1     bf    4 -     4          0.323569258128         -0.006420188097         -0.181361785419
      0.9716421000D+01  0.1000000000D+01
 Atom Pa1      Shell     5 S   1     bf    5 -     5          0.323569258128         -0.006420188097         -0.181361785419
      0.2692096000D+01  0.1000000000D+01
 Atom Pa1      Shell     6 S   1     bf    6 -     6          0.323569258128         -0.006420188097         -0.181361785419
      0.1453847000D+01  0.1000000000D+01
 Atom Pa1      Shell     7 S   1     bf    7 -     7          0.323569258128         -0.006420188097         -0.181361785419
      0.5743520000D+00  0.1000000000D+01
 Atom Pa1      Shell     8 S   1     bf    8 -     8          0.323569258128         -0.006420188097         -0.181361785419
      0.2634680000D+00  0.1000000000D+01
 Atom Pa1      Shell     9 S   1     bf    9 -     9          0.323569258128         -0.006420188097         -0.181361785419
      0.5655700000D-01  0.1000000000D+01
 Atom Pa1      Shell    10 S   1     bf   10 -    10          0.323569258128         -0.006420188097         -0.181361785419
      0.2316900000D-01  0.1000000000D+01
 Atom Pa1      Shell    11 P   5     bf   11 -    13          0.323569258128         -0.006420188097         -0.181361785419
      0.2903367600D+04  0.2594222647D-02
      0.6448635600D+03  0.1519473264D-01
      0.2202589600D+03  0.9272492945D-01
      0.8027640100D+02  0.1821144298D+00
      0.2408021100D+02  0.8294100404D+00
 Atom Pa1      Shell    12 P   1     bf   14 -    16          0.323569258128         -0.006420188097         -0.181361785419
      0.1407758000D+02  0.1000000000D+01
 Atom Pa1      Shell    13 P   1     bf   17 -    19          0.323569258128         -0.006420188097         -0.181361785419
      0.8265846000D+01  0.1000000000D+01
 Atom Pa1      Shell    14 P   1     bf   20 -    22          0.323569258128         -0.006420188097         -0.181361785419
      0.3594800000D+01  0.1000000000D+01
 Atom Pa1      Shell    15 P   1     bf   23 -    25          0.323569258128         -0.006420188097         -0.181361785419
      0.1753111000D+01  0.1000000000D+01
 Atom Pa1      Shell    16 P   1     bf   26 -    28          0.323569258128         -0.006420188097         -0.181361785419
      0.6577670000D+00  0.1000000000D+01
 Atom Pa1      Shell    17 P   1     bf   29 -    31          0.323569258128         -0.006420188097         -0.181361785419
      0.2846390000D+00  0.1000000000D+01
 Atom Pa1      Shell    18 P   1     bf   32 -    34          0.323569258128         -0.006420188097         -0.181361785419
      0.1005430000D+00  0.1000000000D+01
 Atom Pa1      Shell    19 P   1     bf   35 -    37          0.323569258128         -0.006420188097         -0.181361785419
      0.3019000000D-01  0.1000000000D+01
 Atom Pa1      Shell    20 D   6     bf   38 -    42          0.323569258128         -0.006420188097         -0.181361785419
      0.4481499100D+03  0.6556927566D-04
      0.1544614500D+03  0.5749921096D-03
      0.6092537700D+02  0.2279793277D-02
      0.1703209100D+02  0.6467904664D-01
      0.1001887700D+02 -0.2666929411D+00
      0.3409193000D+01  0.1128376621D+01
 Atom Pa1      Shell    21 D   1     bf   43 -    47          0.323569258128         -0.006420188097         -0.181361785419
      0.1670213000D+01  0.1000000000D+01
 Atom Pa1      Shell    22 D   1     bf   48 -    52          0.323569258128         -0.006420188097         -0.181361785419
      0.7410950000D+00  0.1000000000D+01
 Atom Pa1      Shell    23 D   1     bf   53 -    57          0.323569258128         -0.006420188097         -0.181361785419
      0.2613930000D+00  0.1000000000D+01
 Atom Pa1      Shell    24 D   1     bf   58 -    62          0.323569258128         -0.006420188097         -0.181361785419
      0.8281100000D-01  0.1000000000D+01
 Atom Pa1      Shell    25 F   5     bf   63 -    69          0.323569258128         -0.006420188097         -0.181361785419
      0.8799132700D+02  0.4766318191D-03
      0.2834019500D+02  0.4899184583D-02
      0.1244099400D+02  0.9669720755D-02
      0.3957296000D+01  0.3310292343D+00
      0.1875944000D+01  0.7275531640D+00
 Atom Pa1      Shell    26 F   1     bf   70 -    76          0.323569258128         -0.006420188097         -0.181361785419
      0.8275890000D+00  0.1000000000D+01
 Atom Pa1      Shell    27 F   1     bf   77 -    83          0.323569258128         -0.006420188097         -0.181361785419
      0.3327480000D+00  0.1000000000D+01
 Atom Pa1      Shell    28 F   1     bf   84 -    90          0.323569258128         -0.006420188097         -0.181361785419
      0.1146850000D+00  0.1000000000D+01
 Atom Pa1      Shell    29 G   1     bf   91 -    99          0.323569258128         -0.006420188097         -0.181361785419
      0.3500000000D+00  0.1000000000D+01
 Atom O2       Shell    30 S   6     bf  100 -   100          0.293665589336          3.937681491008         -0.425679764614
      0.2703238263D+05  0.5722733521D-03
      0.4052387139D+04  0.4435323349D-02
      0.9223272271D+03  0.2302010771D-01
      0.2612407099D+03  0.9282249067D-01
      0.8535464135D+02  0.2937850001D+00
      0.3103503524D+02  0.6740160450D+00
 Atom O2       Shell    31 S   2     bf  101 -   101          0.293665589336          3.937681491008         -0.425679764614
      0.1226086073D+02  0.6383993703D+00
      0.4998707601D+01  0.3953458713D+00
 Atom O2       Shell    32 S   1     bf  102 -   102          0.293665589336          3.937681491008         -0.425679764614
      0.1170310816D+01  0.1000000000D+01
 Atom O2       Shell    33 S   1     bf  103 -   103          0.293665589336          3.937681491008         -0.425679764614
      0.4647474099D+00  0.1000000000D+01
 Atom O2       Shell    34 S   1     bf  104 -   104          0.293665589336          3.937681491008         -0.425679764614
      0.1850453636D+00  0.1000000000D+01
 Atom O2       Shell    35 P   4     bf  105 -   107          0.293665589336          3.937681491008         -0.425679764614
      0.6327495480D+02  0.1201833222D-01
      0.1462704938D+02  0.8300542179D-01
      0.4450122346D+01  0.3199174393D+00
      0.1527579965D+01  0.7071554292D+00
 Atom O2       Shell    36 P   1     bf  108 -   110          0.293665589336          3.937681491008         -0.425679764614
      0.5293511794D+00  0.1000000000D+01
 Atom O2       Shell    37 P   1     bf  111 -   113          0.293665589336          3.937681491008         -0.425679764614
      0.1747842127D+00  0.1000000000D+01
 Atom O2       Shell    38 D   1     bf  114 -   118          0.293665589336          3.937681491008         -0.425679764614
      0.2314000000D+01  0.1000000000D+01
 Atom O2       Shell    39 D   1     bf  119 -   123          0.293665589336          3.937681491008         -0.425679764614
      0.6450000000D+00  0.1000000000D+01
 Atom O2       Shell    40 F   1     bf  124 -   130          0.293665589336          3.937681491008         -0.425679764614
      0.1428000000D+01  0.1000000000D+01
 Atom H3       Shell    41 S   3     bf  131 -   131          0.791031932777          5.445857004355          0.473551841859
      0.3406134100D+02  0.2543930721D-01
      0.5123574600D+01  0.1900859489D+00
      0.1164662600D+01  0.8524411301D+00
 Atom H3       Shell    42 S   1     bf  132 -   132          0.791031932777          5.445857004355          0.473551841859
      0.3272304100D+00  0.1000000000D+01
 Atom H3       Shell    43 S   1     bf  133 -   133          0.791031932777          5.445857004355          0.473551841859
      0.1030724100D+00  0.1000000000D+01
 Atom H3       Shell    44 P   1     bf  134 -   136          0.791031932777          5.445857004355          0.473551841859
      0.8000000000D+00  0.1000000000D+01
 Atom O4       Shell    45 S   6     bf  137 -   137          4.220582334755         -0.078060870636         -0.946120326124
      0.2703238263D+05  0.5722733521D-03
      0.4052387139D+04  0.4435323349D-02
      0.9223272271D+03  0.2302010771D-01
      0.2612407099D+03  0.9282249067D-01
      0.8535464135D+02  0.2937850001D+00
      0.3103503524D+02  0.6740160450D+00
 Atom O4       Shell    46 S   2     bf  138 -   138          4.220582334755         -0.078060870636         -0.946120326124
      0.1226086073D+02  0.6383993703D+00
      0.4998707601D+01  0.3953458713D+00
 Atom O4       Shell    47 S   1     bf  139 -   139          4.220582334755         -0.078060870636         -0.946120326124
      0.1170310816D+01  0.1000000000D+01
 Atom O4       Shell    48 S   1     bf  140 -   140          4.220582334755         -0.078060870636         -0.946120326124
      0.4647474099D+00  0.1000000000D+01
 Atom O4       Shell    49 S   1     bf  141 -   141          4.220582334755         -0.078060870636         -0.946120326124
      0.1850453636D+00  0.1000000000D+01
 Atom O4       Shell    50 P   4     bf  142 -   144          4.220582334755         -0.078060870636         -0.946120326124
      0.6327495480D+02  0.1201833222D-01
      0.1462704938D+02  0.8300542179D-01
      0.4450122346D+01  0.3199174393D+00
      0.1527579965D+01  0.7071554292D+00
 Atom O4       Shell    51 P   1     bf  145 -   147          4.220582334755         -0.078060870636         -0.946120326124
      0.5293511794D+00  0.1000000000D+01
 Atom O4       Shell    52 P   1     bf  148 -   150          4.220582334755         -0.078060870636         -0.946120326124
      0.1747842127D+00  0.1000000000D+01
 Atom O4       Shell    53 D   1     bf  151 -   155          4.220582334755         -0.078060870636         -0.946120326124
      0.2314000000D+01  0.1000000000D+01
 Atom O4       Shell    54 D   1     bf  156 -   160          4.220582334755         -0.078060870636         -0.946120326124
      0.6450000000D+00  0.1000000000D+01
 Atom O4       Shell    55 F   1     bf  161 -   167          4.220582334755         -0.078060870636         -0.946120326124
      0.1428000000D+01  0.1000000000D+01
 Atom H5       Shell    56 S   3     bf  168 -   168          5.648420669781          1.054515923916         -0.987239372757
      0.3406134100D+02  0.2543930721D-01
      0.5123574600D+01  0.1900859489D+00
      0.1164662600D+01  0.8524411301D+00
 Atom H5       Shell    57 S   1     bf  169 -   169          5.648420669781          1.054515923916         -0.987239372757
      0.3272304100D+00  0.1000000000D+01
 Atom H5       Shell    58 S   1     bf  170 -   170          5.648420669781          1.054515923916         -0.987239372757
      0.1030724100D+00  0.1000000000D+01
 Atom H5       Shell    59 P   1     bf  171 -   173          5.648420669781          1.054515923916         -0.987239372757
      0.8000000000D+00  0.1000000000D+01
 Atom O6       Shell    60 S   6     bf  174 -   174          0.613443733485          0.127119730195          3.753146321564
      0.2703238263D+05  0.5722733521D-03
      0.4052387139D+04  0.4435323349D-02
      0.9223272271D+03  0.2302010771D-01
      0.2612407099D+03  0.9282249067D-01
      0.8535464135D+02  0.2937850001D+00
      0.3103503524D+02  0.6740160450D+00
 Atom O6       Shell    61 S   2     bf  175 -   175          0.613443733485          0.127119730195          3.753146321564
      0.1226086073D+02  0.6383993703D+00
      0.4998707601D+01  0.3953458713D+00
 Atom O6       Shell    62 S   1     bf  176 -   176          0.613443733485          0.127119730195          3.753146321564
      0.1170310816D+01  0.1000000000D+01
 Atom O6       Shell    63 S   1     bf  177 -   177          0.613443733485          0.127119730195          3.753146321564
      0.4647474099D+00  0.1000000000D+01
 Atom O6       Shell    64 S   1     bf  178 -   178          0.613443733485          0.127119730195          3.753146321564
      0.1850453636D+00  0.1000000000D+01
 Atom O6       Shell    65 P   4     bf  179 -   181          0.613443733485          0.127119730195          3.753146321564
      0.6327495480D+02  0.1201833222D-01
      0.1462704938D+02  0.8300542179D-01
      0.4450122346D+01  0.3199174393D+00
      0.1527579965D+01  0.7071554292D+00
 Atom O6       Shell    66 P   1     bf  182 -   184          0.613443733485          0.127119730195          3.753146321564
      0.5293511794D+00  0.1000000000D+01
 Atom O6       Shell    67 P   1     bf  185 -   187          0.613443733485          0.127119730195          3.753146321564
      0.1747842127D+00  0.1000000000D+01
 Atom O6       Shell    68 D   1     bf  188 -   192          0.613443733485          0.127119730195          3.753146321564
      0.2314000000D+01  0.1000000000D+01
 Atom O6       Shell    69 D   1     bf  193 -   197          0.613443733485          0.127119730195          3.753146321564
      0.6450000000D+00  0.1000000000D+01
 Atom O6       Shell    70 F   1     bf  198 -   204          0.613443733485          0.127119730195          3.753146321564
      0.1428000000D+01  0.1000000000D+01
 Atom H7       Shell    71 S   3     bf  205 -   205          1.080383400269         -0.892021354908          5.188628372370
      0.3406134100D+02  0.2543930721D-01
      0.5123574600D+01  0.1900859489D+00
      0.1164662600D+01  0.8524411301D+00
 Atom H7       Shell    72 S   1     bf  206 -   206          1.080383400269         -0.892021354908          5.188628372370
      0.3272304100D+00  0.1000000000D+01
 Atom H7       Shell    73 S   1     bf  207 -   207          1.080383400269         -0.892021354908          5.188628372370
      0.1030724100D+00  0.1000000000D+01
 Atom H7       Shell    74 P   1     bf  208 -   210          1.080383400269         -0.892021354908          5.188628372370
      0.8000000000D+00  0.1000000000D+01
 Atom O8       Shell    75 S   6     bf  211 -   211          0.248780244646         -3.966070827202         -0.332829936716
      0.2703238263D+05  0.5722733521D-03
      0.4052387139D+04  0.4435323349D-02
      0.9223272271D+03  0.2302010771D-01
      0.2612407099D+03  0.9282249067D-01
      0.8535464135D+02  0.2937850001D+00
      0.3103503524D+02  0.6740160450D+00
 Atom O8       Shell    76 S   2     bf  212 -   212          0.248780244646         -3.966070827202         -0.332829936716
      0.1226086073D+02  0.6383993703D+00
      0.4998707601D+01  0.3953458713D+00
 Atom O8       Shell    77 S   1     bf  213 -   213          0.248780244646         -3.966070827202         -0.332829936716
      0.1170310816D+01  0.1000000000D+01
 Atom O8       Shell    78 S   1     bf  214 -   214          0.248780244646         -3.966070827202         -0.332829936716
      0.4647474099D+00  0.1000000000D+01
 Atom O8       Shell    79 S   1     bf  215 -   215          0.248780244646         -3.966070827202         -0.332829936716
      0.1850453636D+00  0.1000000000D+01
 Atom O8       Shell    80 P   4     bf  216 -   218          0.248780244646         -3.966070827202         -0.332829936716
      0.6327495480D+02  0.1201833222D-01
      0.1462704938D+02  0.8300542179D-01
      0.4450122346D+01  0.3199174393D+00
      0.1527579965D+01  0.7071554292D+00
 Atom O8       Shell    81 P   1     bf  219 -   221          0.248780244646         -3.966070827202         -0.332829936716
      0.5293511794D+00  0.1000000000D+01
 Atom O8       Shell    82 P   1     bf  222 -   224          0.248780244646         -3.966070827202         -0.332829936716
      0.1747842127D+00  0.1000000000D+01
 Atom O8       Shell    83 D   1     bf  225 -   229          0.248780244646         -3.966070827202         -0.332829936716
      0.2314000000D+01  0.1000000000D+01
 Atom O8       Shell    84 D   1     bf  230 -   234          0.248780244646         -3.966070827202         -0.332829936716
      0.6450000000D+00  0.1000000000D+01
 Atom O8       Shell    85 F   1     bf  235 -   241          0.248780244646         -3.966070827202         -0.332829936716
      0.1428000000D+01  0.1000000000D+01
 Atom H9       Shell    86 S   3     bf  242 -   242          1.474011055694         -5.318387681271         -0.274284090470
      0.3406134100D+02  0.2543930721D-01
      0.5123574600D+01  0.1900859489D+00
      0.1164662600D+01  0.8524411301D+00
 Atom H9       Shell    87 S   1     bf  243 -   243          1.474011055694         -5.318387681271         -0.274284090470
      0.3272304100D+00  0.1000000000D+01
 Atom H9       Shell    88 S   1     bf  244 -   244          1.474011055694         -5.318387681271         -0.274284090470
      0.1030724100D+00  0.1000000000D+01
 Atom H9       Shell    89 P   1     bf  245 -   247          1.474011055694         -5.318387681271         -0.274284090470
      0.8000000000D+00  0.1000000000D+01
 Atom Cl10     Shell    90 S   7     bf  248 -   248         -4.791201456820          0.007583355165         -0.252050860630
      0.6950799094D+05  0.5145738965D-03
      0.1042615688D+05  0.3978134481D-02
      0.2373233406D+04  0.2045617867D-01
      0.6715642007D+03  0.8014810289D-01
      0.2184199979D+03  0.2345477032D+00
      0.7757224971D+02  0.4454336858D+00
      0.2888881528D+02  0.3546684250D+00
 Atom Cl10     Shell    91 S   3     bf  249 -   249         -4.791201456820          0.007583355165         -0.252050860630
      0.1271052718D+03  0.1129368805D+00
      0.3933958296D+02  0.4837351421D+00
      0.7674067999D+01 -0.1229229739D+01
 Atom Cl10     Shell    92 S   2     bf  250 -   250         -4.791201456820          0.007583355165         -0.252050860630
      0.3874562763D+01  0.6729682164D+00
      0.1838583257D+01  0.3495605141D+00
 Atom Cl10     Shell    93 S   1     bf  251 -   251         -4.791201456820          0.007583355165         -0.252050860630
      0.5022905754D+00  0.1000000000D+01
 Atom Cl10     Shell    94 S   1     bf  252 -   252         -4.791201456820          0.007583355165         -0.252050860630
      0.1796272342D+00  0.1000000000D+01
 Atom Cl10     Shell    95 P   5     bf  253 -   255         -4.791201456820          0.007583355165         -0.252050860630
      0.6665042328D+03  0.3350250820D-02
      0.1576424169D+03  0.2676397041D-01
      0.5026252098D+02  0.1236268236D+00
      0.1853607811D+02  0.3584578792D+00
      0.7294053278D+01  0.6167729635D+00
 Atom Cl10     Shell    96 P   1     bf  256 -   258         -4.791201456820          0.007583355165         -0.252050860630
      0.2943324899D+01  0.1000000000D+01
 Atom Cl10     Shell    97 P   1     bf  259 -   261         -4.791201456820          0.007583355165         -0.252050860630
      0.1040497082D+01  0.1000000000D+01
 Atom Cl10     Shell    98 P   1     bf  262 -   264         -4.791201456820          0.007583355165         -0.252050860630
      0.3845641508D+00  0.1000000000D+01
 Atom Cl10     Shell    99 P   1     bf  265 -   267         -4.791201456820          0.007583355165         -0.252050860630
      0.1306964273D+00  0.1000000000D+01
 Atom Cl10     Shell   100 D   2     bf  268 -   272         -4.791201456820          0.007583355165         -0.252050860630
      0.4610000000D+01  0.1826583505D+00
      0.1011000000D+01  0.9132917523D+00
 Atom Cl10     Shell   101 D   1     bf  273 -   277         -4.791201456820          0.007583355165         -0.252050860630
      0.3390000000D+00  0.1000000000D+01
 Atom Cl10     Shell   102 F   1     bf  278 -   284         -4.791201456820          0.007583355165         -0.252050860630
      0.7060000000D+00  0.1000000000D+01
 Effective core potential in the form of general ECP input:
      1 0
 Pa1-ECP   5 60
 H component
  1
  2        1.0000000        0.00000000    0.00000000
 S-H projection
  1
  2       15.2691737      475.47573283    0.00000000
 P-H projection
  1
  2        9.9577370      207.66485962    0.00000000
 D-H projection
  1
  2        8.9431413      156.67411988    0.00000000
 F-H projection
  1
  2        7.0104666       67.98223685    0.00000000
 G-H projection
  1
  2       12.2010560      -57.63059989    0.00000000
 
 There are   332 symmetry adapted cartesian basis functions of A   symmetry.
 There are   284 symmetry adapted basis functions of A   symmetry.
   284 basis functions,   513 primitive gaussians,   332 cartesian basis functions
    42 alpha electrons       42 beta electrons
       nuclear repulsion energy       557.8649202803 Hartrees.
 IExCor=  404 DFT=T Ex=B Corr=P86 ExCW=0 ScaHFX=  0.000000
 ScaDFX=  1.000000  1.000000  1.000000  1.000000 ScalE2=  1.000000  1.000000
 IRadAn=      5 IRanWt=     -1 IRanGd=            0 ICorTp=0 IEmpDi=  4
 NAtoms=   10 NActive=   10 NUniq=   10 SFac= 1.00D+00 NAtFMM=   60 NAOKFM=F Big=F
 Integral buffers will be    131072 words long.
 Raffenetti 2 integral format.
 Two-electron integral symmetry is turned on.
 Leave Link  301 at Tue Jul  4 10:46:01 2023, MaxMem=  2147483648 cpu:               0.6 elap:               0.1
 (Enter /home/pcmt/gaussian/g16.C.01/g16/l302.exe)
 NPDir=0 NMtPBC=     1 NCelOv=     1 NCel=       1 NClECP=     1 NCelD=      1
         NCelK=      1 NCelE2=     1 NClLst=     1 CellRange=     0.0.
 One-electron integrals computed using PRISM.
 One-electron integral symmetry used in STVInt
   1 Symmetry operations used in ECPInt.
 ECPInt:  NShTT=    5253 NPrTT=   15930 LenC2=    5030 LenP2D=   11656.
 LDataN:  DoStor=T MaxTD1= 9 Len=  602
 NBasis=   284 RedAO= T EigKep=  5.98D-04  NBF=   284
 NBsUse=   284 1.00D-06 EigRej= -1.00D+00 NBFU=   284
 Precomputing XC quadrature grid using
 IXCGrd= 4 IRadAn=           5 IRanWt=          -1 IRanGd=           0 AccXCQ= 0.00D+00.
 Defaulting to unpruned grid for atomic number  91.
 Generated NRdTot=       0 NPtTot=           0 NUsed=           0 NTot=          32
 NSgBfM=   327   327   327   327   327 MxSgAt=    10 MxSgA2=    10.
 Leave Link  302 at Tue Jul  4 10:46:02 2023, MaxMem=  2147483648 cpu:               4.7 elap:               0.6
 (Enter /home/pcmt/gaussian/g16.C.01/g16/l303.exe)
 DipDrv:  MaxL=1.
 Leave Link  303 at Tue Jul  4 10:46:02 2023, MaxMem=  2147483648 cpu:               0.3 elap:               0.1
 (Enter /home/pcmt/gaussian/g16.C.01/g16/l401.exe)
 ExpMin= 2.32D-02 ExpMax= 6.95D+04 ExpMxC= 1.20D+04 IAcc=3 IRadAn=         5 AccDes= 0.00D+00
 Harris functional with IExCor=  404 and IRadAn=       5 diagonalized for initial guess.
 HarFok:  IExCor=  404 AccDes= 0.00D+00 IRadAn=         5 IDoV= 1 UseB2=F ITyADJ=14
 ICtDFT=  3500011 ScaDFX=  1.000000  1.000000  1.000000  1.000000
 Defaulting to unpruned grid for atomic number  91.
 FoFCou: FMM=F IPFlag=           0 FMFlag=      100000 FMFlg1=           0
         NFxFlg=           0 DoJE=T BraDBF=F KetDBF=T FulRan=T
         wScrn=  0.000000 ICntrl=       500 IOpCl=  0 I1Cent=   200000004 NGrid=           0
         NMat0=    1 NMatS0=      1 NMatT0=    0 NMatD0=    1 NMtDS0=    0 NMtDT0=    0
 Petite list used in FoFCou.
 Harris En= -1207.00559359820    
 JPrj=0 DoOrth=F DoCkMO=F.
 Leave Link  401 at Tue Jul  4 10:46:03 2023, MaxMem=  2147483648 cpu:              11.3 elap:               1.4
 (Enter /home/pcmt/gaussian/g16.C.01/g16/l502.exe)
 Keep J ints in memory in canonical form, NReq=837395235.
 FoFCou: FMM=F IPFlag=           0 FMFlag=           0 FMFlg1=           0
         NFxFlg=           0 DoJE=F BraDBF=F KetDBF=F FulRan=T
         wScrn=  0.000000 ICntrl=       600 IOpCl=  0 I1Cent=           0 NGrid=           0
         NMat0=    1 NMatS0=  40470 NMatT0=    0 NMatD0=    1 NMtDS0=    0 NMtDT0=    0
 Symmetry not used in FoFCou.
 Two-electron integral symmetry not used.
 Closed shell SCF:
 Using DIIS extrapolation, IDIIS=  1040.
 NGot=  2147483648 LenX=  1328326755 LenY=  1328216090
 Requested convergence on RMS density matrix=1.00D-08 within 100 cycles.
 Requested convergence on MAX density matrix=1.00D-06.
 Requested convergence on             energy=1.00D-06.
 No special actions if energy rises.

 Cycle   1  Pass 1  IDiag  1:
 Defaulting to unpruned grid for atomic number  91.
 Defaulting to unpruned grid for atomic number  91.
 Defaulting to unpruned grid for atomic number  91.
 Defaulting to unpruned grid for atomic number  91.
 Defaulting to unpruned grid for atomic number  91.
 Defaulting to unpruned grid for atomic number  91.
 Defaulting to unpruned grid for atomic number  91.
 Defaulting to unpruned grid for atomic number  91.
 E= -1204.63335207668    
 DIIS: error= 4.52D-02 at cycle   1 NSaved=   1.
 NSaved= 1 IEnMin= 1 EnMin= -1204.63335207668     IErMin= 1 ErrMin= 4.52D-02
 ErrMax= 4.52D-02  0.00D+00 EMaxC= 1.00D-01 BMatC= 1.43D+00 BMatP= 1.43D+00
 IDIUse=3 WtCom= 5.48D-01 WtEn= 4.52D-01
 Coeff-Com:  0.100D+01
 Coeff-En:   0.100D+01
 Coeff:      0.100D+01
 Gap=     0.135 Goal=   None    Shift=    0.000
 GapD=    0.135 DampG=1.000 DampE=0.250 DampFc=0.2500 IDamp=-1.
 Damping current iteration by 2.50D-01
 RMSDP=1.47D-02 MaxDP=1.46D+00              OVMax= 9.98D-01

 Cycle   2  Pass 1  IDiag  1:
 E= -1202.27551303028     Delta-E=        2.357839046395 Rises=F Damp=T
 DIIS: error= 4.19D-02 at cycle   2 NSaved=   2.
 NSaved= 2 IEnMin= 1 EnMin= -1204.63335207668     IErMin= 2 ErrMin= 4.19D-02
 ErrMax= 4.19D-02  0.00D+00 EMaxC= 1.00D-01 BMatC= 1.52D+00 BMatP= 1.43D+00
 IDIUse=3 WtCom= 5.81D-01 WtEn= 4.19D-01
 Coeff-Com:  0.509D+00 0.491D+00
 Coeff-En:   0.747D+00 0.253D+00
 Coeff:      0.609D+00 0.391D+00
 Gap=    -0.036 Goal=   None    Shift=    0.000
 RMSDP=4.03D-03 MaxDP=1.42D-01 DE= 2.36D+00 OVMax= 9.44D-01

 Cycle   3  Pass 1  IDiag  1:
 E= -1204.93273828063     Delta-E=       -2.657225250352 Rises=F Damp=F
 DIIS: error= 3.90D-02 at cycle   3 NSaved=   3.
 NSaved= 3 IEnMin= 3 EnMin= -1204.93273828063     IErMin= 3 ErrMin= 3.90D-02
 ErrMax= 3.90D-02  0.00D+00 EMaxC= 1.00D-01 BMatC= 8.57D-01 BMatP= 1.43D+00
 IDIUse=3 WtCom= 6.10D-01 WtEn= 3.90D-01
 EnCoef did     2 forward-backward iterations
 Coeff-Com:  0.324D+00 0.336D+00 0.339D+00
 Coeff-En:   0.381D+00 0.123D+00 0.496D+00
 Coeff:      0.346D+00 0.253D+00 0.401D+00
 Gap=     0.255 Goal=   None    Shift=    0.000
 RMSDP=3.55D-03 MaxDP=1.81D-01 DE=-2.66D+00 OVMax= 2.14D-01

 Cycle   4  Pass 1  IDiag  1:
 E= -1205.59026835293     Delta-E=       -0.657530072300 Rises=F Damp=F
 DIIS: error= 8.61D-03 at cycle   4 NSaved=   4.
 NSaved= 4 IEnMin= 4 EnMin= -1205.59026835293     IErMin= 4 ErrMin= 8.61D-03
 ErrMax= 8.61D-03  0.00D+00 EMaxC= 1.00D-01 BMatC= 4.28D-02 BMatP= 8.57D-01
 IDIUse=3 WtCom= 9.14D-01 WtEn= 8.61D-02
 Coeff-Com:  0.259D-02 0.542D-01 0.173D+00 0.771D+00
 Coeff-En:   0.000D+00 0.000D+00 0.256D-02 0.997D+00
 Coeff:      0.236D-02 0.495D-01 0.158D+00 0.790D+00
 Gap=     0.151 Goal=   None    Shift=    0.000
 RMSDP=9.22D-04 MaxDP=4.48D-02 DE=-6.58D-01 OVMax= 1.07D-01

 Cycle   5  Pass 1  IDiag  1:
 E= -1205.60390169867     Delta-E=       -0.013633345741 Rises=F Damp=F
 DIIS: error= 6.94D-03 at cycle   5 NSaved=   5.
 NSaved= 5 IEnMin= 5 EnMin= -1205.60390169867     IErMin= 5 ErrMin= 6.94D-03
 ErrMax= 6.94D-03  0.00D+00 EMaxC= 1.00D-01 BMatC= 2.30D-02 BMatP= 4.28D-02
 IDIUse=3 WtCom= 9.31D-01 WtEn= 6.94D-02
 Coeff-Com: -0.258D-01 0.243D-01 0.607D-01 0.521D+00 0.420D+00
 Coeff-En:   0.000D+00 0.000D+00 0.000D+00 0.409D+00 0.591D+00
 Coeff:     -0.240D-01 0.226D-01 0.565D-01 0.513D+00 0.432D+00
 Gap=     0.123 Goal=   None    Shift=    0.000
 RMSDP=4.96D-04 MaxDP=3.42D-02 DE=-1.36D-02 OVMax= 7.28D-02

 Cycle   6  Pass 1  IDiag  1:
 E= -1205.63018586599     Delta-E=       -0.026284167315 Rises=F Damp=F
 DIIS: error= 1.24D-03 at cycle   6 NSaved=   6.
 NSaved= 6 IEnMin= 6 EnMin= -1205.63018586599     IErMin= 6 ErrMin= 1.24D-03
 ErrMax= 1.24D-03  0.00D+00 EMaxC= 1.00D-01 BMatC= 1.16D-03 BMatP= 2.30D-02
 IDIUse=3 WtCom= 9.88D-01 WtEn= 1.24D-02
 Coeff-Com: -0.637D-02-0.595D-03-0.113D-01 0.836D-01 0.156D+00 0.779D+00
 Coeff-En:   0.000D+00 0.000D+00 0.000D+00 0.000D+00 0.000D+00 0.100D+01
 Coeff:     -0.629D-02-0.588D-03-0.111D-01 0.825D-01 0.154D+00 0.782D+00
 Gap=     0.096 Goal=   None    Shift=    0.000
 RMSDP=2.43D-04 MaxDP=1.52D-02 DE=-2.63D-02 OVMax= 1.88D-02

 Cycle   7  Pass 1  IDiag  1:
 E= -1205.63121532986     Delta-E=       -0.001029463869 Rises=F Damp=F
 DIIS: error= 1.50D-03 at cycle   7 NSaved=   7.
 NSaved= 7 IEnMin= 7 EnMin= -1205.63121532986     IErMin= 6 ErrMin= 1.24D-03
 ErrMax= 1.50D-03  0.00D+00 EMaxC= 1.00D-01 BMatC= 2.27D-03 BMatP= 1.16D-03
 IDIUse=3 WtCom= 9.88D-01 WtEn= 1.24D-02
 Coeff-Com:  0.472D-02-0.458D-02-0.151D-01-0.159D-01 0.715D-01 0.643D+00
 Coeff-Com:  0.316D+00
 Coeff-En:   0.000D+00 0.000D+00 0.000D+00 0.000D+00 0.000D+00 0.703D-01
 Coeff-En:   0.930D+00
 Coeff:      0.466D-02-0.452D-02-0.149D-01-0.157D-01 0.706D-01 0.636D+00
 Coeff:      0.323D+00
 Gap=     0.097 Goal=   None    Shift=    0.000
 RMSDP=1.30D-04 MaxDP=7.54D-03 DE=-1.03D-03 OVMax= 1.18D-02

 Cycle   8  Pass 1  IDiag  1:
 E= -1205.63269517824     Delta-E=       -0.001479848380 Rises=F Damp=F
 DIIS: error= 1.57D-03 at cycle   8 NSaved=   8.
 NSaved= 8 IEnMin= 8 EnMin= -1205.63269517824     IErMin= 6 ErrMin= 1.24D-03
 ErrMax= 1.57D-03  0.00D+00 EMaxC= 1.00D-01 BMatC= 1.80D-03 BMatP= 1.16D-03
 IDIUse=3 WtCom= 9.88D-01 WtEn= 1.24D-02
 Coeff-Com:  0.136D-01-0.481D-02-0.898D-02-0.452D-01 0.431D-01 0.446D+00
 Coeff-Com:  0.209D+00 0.347D+00
 Coeff-En:   0.000D+00 0.000D+00 0.000D+00 0.000D+00 0.000D+00 0.000D+00
 Coeff-En:   0.000D+00 0.100D+01
 Coeff:      0.135D-01-0.475D-02-0.887D-02-0.446D-01 0.426D-01 0.441D+00
 Coeff:      0.206D+00 0.355D+00
 Gap=     0.097 Goal=   None    Shift=    0.000
 RMSDP=7.32D-05 MaxDP=4.86D-03 DE=-1.48D-03 OVMax= 7.27D-03

 Cycle   9  Pass 1  IDiag  1:
 E= -1205.63295494533     Delta-E=       -0.000259767096 Rises=F Damp=F
 DIIS: error= 1.64D-03 at cycle   9 NSaved=   9.
 NSaved= 9 IEnMin= 9 EnMin= -1205.63295494533     IErMin= 6 ErrMin= 1.24D-03
 ErrMax= 1.64D-03  0.00D+00 EMaxC= 1.00D-01 BMatC= 2.04D-03 BMatP= 1.16D-03
 IDIUse=3 WtCom= 9.88D-01 WtEn= 1.24D-02
 Coeff-Com:  0.580D-02-0.426D-02-0.593D-03 0.804D-01 0.138D+00 0.621D+00
 Coeff-Com: -0.149D+00-0.230D+01 0.261D+01
 Coeff-En:   0.000D+00 0.000D+00 0.000D+00 0.000D+00 0.000D+00 0.000D+00
 Coeff-En:   0.000D+00 0.000D+00 0.100D+01
 Coeff:      0.572D-02-0.421D-02-0.586D-03 0.794D-01 0.136D+00 0.613D+00
 Coeff:     -0.148D+00-0.227D+01 0.259D+01
 Gap=     0.101 Goal=   None    Shift=    0.000
 RMSDP=2.12D-04 MaxDP=1.75D-02 DE=-2.60D-04 OVMax= 1.67D-02

 Cycle  10  Pass 1  IDiag  1:
 E= -1205.63252444033     Delta-E=        0.000430505001 Rises=F Damp=F
 DIIS: error= 8.46D-04 at cycle  10 NSaved=  10.
 NSaved=10 IEnMin= 9 EnMin= -1205.63295494533     IErMin=10 ErrMin= 8.46D-04
 ErrMax= 8.46D-04  0.00D+00 EMaxC= 1.00D-01 BMatC= 3.79D-04 BMatP= 1.16D-03
 IDIUse=3 WtCom= 9.92D-01 WtEn= 8.46D-03
 Coeff-Com:  0.922D-03-0.407D-02 0.658D-02 0.817D-01 0.101D+00 0.105D+00
 Coeff-Com: -0.388D+00-0.239D+01 0.276D+01 0.726D+00
 Coeff-En:   0.000D+00 0.000D+00 0.000D+00 0.000D+00 0.000D+00 0.000D+00
 Coeff-En:   0.000D+00 0.000D+00 0.810D+00 0.190D+00
 Coeff:      0.914D-03-0.403D-02 0.653D-02 0.810D-01 0.100D+00 0.104D+00
 Coeff:     -0.385D+00-0.237D+01 0.274D+01 0.721D+00
 Gap=     0.104 Goal=   None    Shift=    0.000
 RMSDP=1.37D-04 MaxDP=8.63D-03 DE= 4.31D-04 OVMax= 1.27D-02

 Cycle  11  Pass 1  IDiag  1:
 E= -1205.63361554224     Delta-E=       -0.001091101906 Rises=F Damp=F
 DIIS: error= 6.81D-04 at cycle  11 NSaved=  11.
 NSaved=11 IEnMin=11 EnMin= -1205.63361554224     IErMin=11 ErrMin= 6.81D-04
 ErrMax= 6.81D-04  0.00D+00 EMaxC= 1.00D-01 BMatC= 2.76D-04 BMatP= 3.79D-04
 IDIUse=3 WtCom= 9.93D-01 WtEn= 6.81D-03
 Coeff-Com:  0.312D-03-0.261D-02 0.725D-02 0.524D-01 0.453D-01-0.896D-01
 Coeff-Com: -0.362D+00-0.172D+01 0.215D+01 0.307D+00 0.617D+00
 Coeff-En:   0.000D+00 0.000D+00 0.000D+00 0.000D+00 0.000D+00 0.000D+00
 Coeff-En:   0.000D+00 0.000D+00 0.239D+00 0.000D+00 0.761D+00
 Coeff:      0.310D-03-0.259D-02 0.720D-02 0.520D-01 0.449D-01-0.890D-01
 Coeff:     -0.360D+00-0.171D+01 0.214D+01 0.305D+00 0.618D+00
 Gap=     0.104 Goal=   None    Shift=    0.000
 RMSDP=1.65D-04 MaxDP=1.02D-02 DE=-1.09D-03 OVMax= 1.65D-02

 Cycle  12  Pass 1  IDiag  1:
 E= -1205.63418067195     Delta-E=       -0.000565129709 Rises=F Damp=F
 DIIS: error= 3.16D-04 at cycle  12 NSaved=  12.
 NSaved=12 IEnMin=12 EnMin= -1205.63418067195     IErMin=12 ErrMin= 3.16D-04
 ErrMax= 3.16D-04  0.00D+00 EMaxC= 1.00D-01 BMatC= 1.18D-04 BMatP= 2.76D-04
 IDIUse=3 WtCom= 9.97D-01 WtEn= 3.16D-03
 Coeff-Com: -0.806D-03-0.494D-03 0.247D-02 0.216D-01 0.849D-02-0.451D-01
 Coeff-Com: -0.148D+00-0.784D+00 0.906D+00-0.353D-02 0.582D+00 0.462D+00
 Coeff-En:   0.000D+00 0.000D+00 0.000D+00 0.000D+00 0.000D+00 0.000D+00
 Coeff-En:   0.000D+00 0.000D+00 0.000D+00 0.000D+00 0.000D+00 0.100D+01
 Coeff:     -0.803D-03-0.492D-03 0.246D-02 0.215D-01 0.847D-02-0.450D-01
 Coeff:     -0.148D+00-0.781D+00 0.903D+00-0.351D-02 0.580D+00 0.464D+00
 Gap=     0.096 Goal=   None    Shift=    0.000
 RMSDP=2.33D-05 MaxDP=1.64D-03 DE=-5.65D-04 OVMax= 2.05D-03

 Cycle  13  Pass 1  IDiag  1:
 E= -1205.63421206133     Delta-E=       -0.000031389383 Rises=F Damp=F
 DIIS: error= 2.25D-04 at cycle  13 NSaved=  13.
 NSaved=13 IEnMin=13 EnMin= -1205.63421206133     IErMin=13 ErrMin= 2.25D-04
 ErrMax= 2.25D-04  0.00D+00 EMaxC= 1.00D-01 BMatC= 4.61D-05 BMatP= 1.18D-04
 IDIUse=3 WtCom= 9.98D-01 WtEn= 2.25D-03
 Coeff-Com: -0.602D-03-0.210D-03 0.396D-03 0.114D-01 0.788D-02 0.667D-02
 Coeff-Com: -0.476D-01-0.350D+00 0.349D+00 0.186D-01 0.332D+00 0.280D+00
 Coeff-Com:  0.393D+00
 Coeff-En:   0.000D+00 0.000D+00 0.000D+00 0.000D+00 0.000D+00 0.000D+00
 Coeff-En:   0.000D+00 0.000D+00 0.000D+00 0.000D+00 0.000D+00 0.237D+00
 Coeff-En:   0.763D+00
 Coeff:     -0.601D-03-0.210D-03 0.395D-03 0.114D-01 0.786D-02 0.666D-02
 Coeff:     -0.475D-01-0.349D+00 0.348D+00 0.185D-01 0.331D+00 0.280D+00
 Coeff:      0.394D+00
 Gap=     0.100 Goal=   None    Shift=    0.000
 RMSDP=4.59D-05 MaxDP=2.73D-03 DE=-3.14D-05 OVMax= 4.67D-03

 Cycle  14  Pass 1  IDiag  1:
 E= -1205.63425349470     Delta-E=       -0.000041433367 Rises=F Damp=F
 DIIS: error= 9.75D-05 at cycle  14 NSaved=  14.
 NSaved=14 IEnMin=14 EnMin= -1205.63425349470     IErMin=14 ErrMin= 9.75D-05
 ErrMax= 9.75D-05  0.00D+00 EMaxC= 1.00D-01 BMatC= 5.12D-06 BMatP= 4.61D-05
 IDIUse=1 WtCom= 1.00D+00 WtEn= 0.00D+00
 Coeff-Com: -0.773D-04-0.877D-04 0.101D-03 0.149D-02 0.379D-03-0.554D-02
 Coeff-Com: -0.421D-03 0.184D-01-0.299D-01-0.479D-01 0.105D+00 0.123D+00
 Coeff-Com:  0.255D+00 0.580D+00
 Coeff:     -0.773D-04-0.877D-04 0.101D-03 0.149D-02 0.379D-03-0.554D-02
 Coeff:     -0.421D-03 0.184D-01-0.299D-01-0.479D-01 0.105D+00 0.123D+00
 Coeff:      0.255D+00 0.580D+00
 Gap=     0.098 Goal=   None    Shift=    0.000
 RMSDP=2.03D-05 MaxDP=1.19D-03 DE=-4.14D-05 OVMax= 2.01D-03

 Cycle  15  Pass 1  IDiag  1:
 E= -1205.63426207661     Delta-E=       -0.000008581917 Rises=F Damp=F
 DIIS: error= 3.42D-05 at cycle  15 NSaved=  15.
 NSaved=15 IEnMin=15 EnMin= -1205.63426207661     IErMin=15 ErrMin= 3.42D-05
 ErrMax= 3.42D-05  0.00D+00 EMaxC= 1.00D-01 BMatC= 1.33D-06 BMatP= 5.12D-06
 IDIUse=1 WtCom= 1.00D+00 WtEn= 0.00D+00
 Coeff-Com:  0.876D-06-0.432D-04 0.302D-05 0.888D-04 0.153D-03-0.201D-02
 Coeff-Com:  0.552D-02 0.451D-01-0.597D-01-0.276D-01 0.417D-01 0.518D-01
 Coeff-Com:  0.121D+00 0.390D+00 0.434D+00
 Coeff:      0.876D-06-0.432D-04 0.302D-05 0.888D-04 0.153D-03-0.201D-02
 Coeff:      0.552D-02 0.451D-01-0.597D-01-0.276D-01 0.417D-01 0.518D-01
 Coeff:      0.121D+00 0.390D+00 0.434D+00
 Gap=     0.098 Goal=   None    Shift=    0.000
 RMSDP=3.45D-06 MaxDP=1.96D-04 DE=-8.58D-06 OVMax= 3.36D-04

 Cycle  16  Pass 1  IDiag  1:
 E= -1205.63426310192     Delta-E=       -0.000001025306 Rises=F Damp=F
 DIIS: error= 1.41D-05 at cycle  16 NSaved=  16.
 NSaved=16 IEnMin=16 EnMin= -1205.63426310192     IErMin=16 ErrMin= 1.41D-05
 ErrMax= 1.41D-05  0.00D+00 EMaxC= 1.00D-01 BMatC= 1.90D-07 BMatP= 1.33D-06
 IDIUse=1 WtCom= 1.00D+00 WtEn= 0.00D+00
 Coeff-Com:  0.160D-04-0.169D-04-0.296D-05-0.193D-03 0.460D-04-0.615D-03
 Coeff-Com:  0.510D-02 0.361D-01-0.478D-01-0.128D-01 0.119D-01 0.155D-01
 Coeff-Com:  0.419D-01 0.213D+00 0.324D+00 0.414D+00
 Coeff:      0.160D-04-0.169D-04-0.296D-05-0.193D-03 0.460D-04-0.615D-03
 Coeff:      0.510D-02 0.361D-01-0.478D-01-0.128D-01 0.119D-01 0.155D-01
 Coeff:      0.419D-01 0.213D+00 0.324D+00 0.414D+00
 Gap=     0.098 Goal=   None    Shift=    0.000
 RMSDP=1.37D-06 MaxDP=8.06D-05 DE=-1.03D-06 OVMax= 1.22D-04

 Cycle  17  Pass 1  IDiag  1:
 E= -1205.63426321766     Delta-E=       -0.000000115737 Rises=F Damp=F
 DIIS: error= 3.73D-06 at cycle  17 NSaved=  17.
 NSaved=17 IEnMin=17 EnMin= -1205.63426321766     IErMin=17 ErrMin= 3.73D-06
 ErrMax= 3.73D-06  0.00D+00 EMaxC= 1.00D-01 BMatC= 1.07D-08 BMatP= 1.90D-07
 IDIUse=1 WtCom= 1.00D+00 WtEn= 0.00D+00
 Coeff-Com:  0.443D-05-0.379D-05 0.102D-04-0.354D-04-0.834D-04-0.169D-03
 Coeff-Com:  0.172D-02 0.105D-01-0.157D-01-0.332D-02 0.167D-02 0.206D-02
 Coeff-Com:  0.505D-02 0.576D-01 0.897D-01 0.238D+00 0.613D+00
 Coeff:      0.443D-05-0.379D-05 0.102D-04-0.354D-04-0.834D-04-0.169D-03
 Coeff:      0.172D-02 0.105D-01-0.157D-01-0.332D-02 0.167D-02 0.206D-02
 Coeff:      0.505D-02 0.576D-01 0.897D-01 0.238D+00 0.613D+00
 Gap=     0.098 Goal=   None    Shift=    0.000
 RMSDP=2.69D-07 MaxDP=2.49D-05 DE=-1.16D-07 OVMax= 2.42D-05

 Cycle  18  Pass 1  IDiag  1:
 E= -1205.63426322370     Delta-E=       -0.000000006048 Rises=F Damp=F
 DIIS: error= 9.64D-07 at cycle  18 NSaved=  18.
 NSaved=18 IEnMin=18 EnMin= -1205.63426322370     IErMin=18 ErrMin= 9.64D-07
 ErrMax= 9.64D-07  0.00D+00 EMaxC= 1.00D-01 BMatC= 6.03D-10 BMatP= 1.07D-08
 IDIUse=1 WtCom= 1.00D+00 WtEn= 0.00D+00
 Coeff-Com:  0.229D-06-0.812D-06 0.795D-05 0.101D-04-0.568D-04-0.409D-04
 Coeff-Com:  0.553D-03 0.275D-02-0.498D-02-0.832D-03-0.709D-04-0.196D-03
 Coeff-Com: -0.874D-03 0.150D-01 0.234D-01 0.102D+00 0.362D+00 0.502D+00
 Coeff:      0.229D-06-0.812D-06 0.795D-05 0.101D-04-0.568D-04-0.409D-04
 Coeff:      0.553D-03 0.275D-02-0.498D-02-0.832D-03-0.709D-04-0.196D-03
 Coeff:     -0.874D-03 0.150D-01 0.234D-01 0.102D+00 0.362D+00 0.502D+00
 Gap=     0.098 Goal=   None    Shift=    0.000
 RMSDP=5.99D-08 MaxDP=5.95D-06 DE=-6.05D-09 OVMax= 3.96D-06

 Cycle  19  Pass 1  IDiag  1:
 E= -1205.63426322405     Delta-E=       -0.000000000349 Rises=F Damp=F
 DIIS: error= 6.91D-08 at cycle  19 NSaved=  19.
 NSaved=19 IEnMin=19 EnMin= -1205.63426322405     IErMin=19 ErrMin= 6.91D-08
 ErrMax= 6.91D-08  0.00D+00 EMaxC= 1.00D-01 BMatC= 4.69D-12 BMatP= 6.03D-10
 IDIUse=1 WtCom= 1.00D+00 WtEn= 0.00D+00
 Coeff-Com:  0.190D-07-0.168D-07 0.112D-05 0.318D-05-0.573D-05-0.735D-06
 Coeff-Com:  0.373D-04 0.159D-03-0.360D-03-0.513D-04-0.980D-04-0.139D-03
 Coeff-Com: -0.175D-03 0.557D-03-0.312D-03 0.763D-02 0.361D-01 0.106D+00
 Coeff-Com:  0.851D+00
 Coeff:      0.190D-07-0.168D-07 0.112D-05 0.318D-05-0.573D-05-0.735D-06
 Coeff:      0.373D-04 0.159D-03-0.360D-03-0.513D-04-0.980D-04-0.139D-03
 Coeff:     -0.175D-03 0.557D-03-0.312D-03 0.763D-02 0.361D-01 0.106D+00
 Coeff:      0.851D+00
 Gap=     0.098 Goal=   None    Shift=    0.000
 RMSDP=7.82D-09 MaxDP=5.94D-07 DE=-3.49D-10 OVMax= 6.41D-07

 SCF Done:  E(RB-P86) =  -1205.63426322     A.U. after   19 cycles
            NFock= 19  Conv=0.78D-08     -V/T= 2.2997
 KE= 9.276551431040D+02 PE=-3.850496802673D+03 EE= 1.159342476065D+03
 Leave Link  502 at Tue Jul  4 10:47:21 2023, MaxMem=  2147483648 cpu:             452.3 elap:              77.6
 (Enter /home/pcmt/gaussian/g16.C.01/g16/l601.exe)
 Copying SCF densities to generalized density rwf, IOpCl= 0 IROHF=0.

 **********************************************************************

            Population analysis using the SCF Density.

 **********************************************************************

 Orbital symmetries:
       Occupied  (A) (A) (A) (A) (A) (A) (A) (A) (A) (A) (A) (A)
                 (A) (A) (A) (A) (A) (A) (A) (A) (A) (A) (A) (A)
                 (A) (A) (A) (A) (A) (A) (A) (A) (A) (A) (A) (A)
                 (A) (A) (A) (A) (A) (A)
       Virtual   (A) (A) (A) (A) (A) (A) (A) (A) (A) (A) (A) (A)
                 (A) (A) (A) (A) (A) (A) (A) (A) (A) (A) (A) (A)
                 (A) (A) (A) (A) (A) (A) (A) (A) (A) (A) (A) (A)
                 (A) (A) (A) (A) (A) (A) (A) (A) (A) (A) (A) (A)
                 (A) (A) (A) (A) (A) (A) (A) (A) (A) (A) (A) (A)
                 (A) (A) (A) (A) (A) (A) (A) (A) (A) (A) (A) (A)
                 (A) (A) (A) (A) (A) (A) (A) (A) (A) (A) (A) (A)
                 (A) (A) (A) (A) (A) (A) (A) (A) (A) (A) (A) (A)
                 (A) (A) (A) (A) (A) (A) (A) (A) (A) (A) (A) (A)
                 (A) (A) (A) (A) (A) (A) (A) (A) (A) (A) (A) (A)
                 (A) (A) (A) (A) (A) (A) (A) (A) (A) (A) (A) (A)
                 (A) (A) (A) (A) (A) (A) (A) (A) (A) (A) (A) (A)
                 (A) (A) (A) (A) (A) (A) (A) (A) (A) (A) (A) (A)
                 (A) (A) (A) (A) (A) (A) (A) (A) (A) (A) (A) (A)
                 (A) (A) (A) (A) (A) (A) (A) (A) (A) (A) (A) (A)
                 (A) (A) (A) (A) (A) (A) (A) (A) (A) (A) (A) (A)
                 (A) (A) (A) (A) (A) (A) (A) (A) (A) (A) (A) (A)
                 (A) (A) (A) (A) (A) (A) (A) (A) (A) (A) (A) (A)
                 (A) (A) (A) (A) (A) (A) (A) (A) (A) (A) (A) (A)
                 (A) (A) (A) (A) (A) (A) (A) (A) (A) (A) (A) (A)
                 (A) (A)
 The electronic state is 1-A.
 Alpha  occ. eigenvalues -- -100.65527 -18.78045 -18.77936 -18.77828 -18.77489
 Alpha  occ. eigenvalues --  -11.12169  -9.12026  -7.18741  -7.18398  -7.18187
 Alpha  occ. eigenvalues --   -6.93761  -6.93615  -6.93522  -3.54221  -3.54186
 Alpha  occ. eigenvalues --   -3.54108  -3.53936  -3.53743  -1.73654  -0.96823
 Alpha  occ. eigenvalues --   -0.94749  -0.93917  -0.90118  -0.81802  -0.81103
 Alpha  occ. eigenvalues --   -0.79146  -0.67088  -0.47012  -0.44296  -0.43866
 Alpha  occ. eigenvalues --   -0.40765  -0.33028  -0.31526  -0.30758  -0.30098
 Alpha  occ. eigenvalues --   -0.29911  -0.29258  -0.28992  -0.28481  -0.26033
 Alpha  occ. eigenvalues --   -0.24636  -0.23836
 Alpha virt. eigenvalues --   -0.13998  -0.13358  -0.12552  -0.12172  -0.11315
 Alpha virt. eigenvalues --   -0.10569  -0.09782  -0.08302  -0.03509  -0.00894
 Alpha virt. eigenvalues --   -0.00426   0.00920   0.01425   0.01483   0.02008
 Alpha virt. eigenvalues --    0.03815   0.05963   0.09495   0.10821   0.11990
 Alpha virt. eigenvalues --    0.14991   0.20037   0.22356   0.23785   0.24203
 Alpha virt. eigenvalues --    0.25549   0.25836   0.26068   0.26905   0.28876
 Alpha virt. eigenvalues --    0.29383   0.31764   0.31976   0.32721   0.34716
 Alpha virt. eigenvalues --    0.37139   0.38597   0.39240   0.40836   0.42867
 Alpha virt. eigenvalues --    0.43308   0.44610   0.45350   0.46312   0.47470
 Alpha virt. eigenvalues --    0.48405   0.49936   0.51160   0.51912   0.54660
 Alpha virt. eigenvalues --    0.55141   0.57589   0.57932   0.60611   0.62508
 Alpha virt. eigenvalues --    0.64005   0.64676   0.67722   0.71374   0.73648
 Alpha virt. eigenvalues --    0.75797   0.79678   0.84999   0.86576   0.91217
 Alpha virt. eigenvalues --    0.96157   0.98882   1.04453   1.06572   1.06788
 Alpha virt. eigenvalues --    1.09894   1.10113   1.10658   1.12245   1.13838
 Alpha virt. eigenvalues --    1.14901   1.15491   1.16244   1.19588   1.21920
 Alpha virt. eigenvalues --    1.26450   1.27330   1.28312   1.30581   1.34267
 Alpha virt. eigenvalues --    1.35416   1.37629   1.40469   1.41304   1.44197
 Alpha virt. eigenvalues --    1.47319   1.49036   1.54739   1.56353   1.56907
 Alpha virt. eigenvalues --    1.59332   1.60762   1.66246   1.67805   1.69609
 Alpha virt. eigenvalues --    1.72017   1.73936   1.75070   1.75794   1.77703
 Alpha virt. eigenvalues --    1.78200   1.79999   1.85808   1.86155   1.88129
 Alpha virt. eigenvalues --    1.88865   1.90074   1.90743   1.95316   2.05649
 Alpha virt. eigenvalues --    2.05831   2.06150   2.07073   2.09152   2.10884
 Alpha virt. eigenvalues --    2.14245   2.15375   2.16688   2.18995   2.20653
 Alpha virt. eigenvalues --    2.21199   2.21810   2.23799   2.25083   2.25825
 Alpha virt. eigenvalues --    2.26543   2.28644   2.32201   2.42833   2.45865
 Alpha virt. eigenvalues --    2.49456   2.50814   2.58476   2.58703   2.62028
 Alpha virt. eigenvalues --    2.64812   2.65810   2.68496   2.71113   2.73269
 Alpha virt. eigenvalues --    2.75191   2.80524   2.90041   2.92490   3.01917
 Alpha virt. eigenvalues --    3.41200   3.46716   3.56891   3.64068   3.65027
 Alpha virt. eigenvalues --    3.68187   3.71317   3.75700   3.80747   3.83578
 Alpha virt. eigenvalues --    3.88357   3.97330   4.10147   4.14506   4.19239
 Alpha virt. eigenvalues --    4.99501   4.99692   5.00031   5.00243   5.00802
 Alpha virt. eigenvalues --    5.01054   5.01502   5.02054   5.05729   5.06423
 Alpha virt. eigenvalues --    5.09920   5.10563   5.11326   5.12613   5.14241
 Alpha virt. eigenvalues --    5.15885   5.30540   5.30693   5.33077   5.35867
 Alpha virt. eigenvalues --    5.36957   5.39850   5.42124   5.43313   5.99567
 Alpha virt. eigenvalues --    6.08755   6.09183   6.10420   6.14180   6.15883
 Alpha virt. eigenvalues --    6.16926   6.18969   6.21094   6.23380   6.25491
 Alpha virt. eigenvalues --    6.27722   6.29043   6.39911   6.41654   6.46084
 Alpha virt. eigenvalues --    6.47626   6.62064   6.63804   6.65704   6.76260
 Alpha virt. eigenvalues --    6.93363   6.95988   6.98125   7.06823   7.22954
 Alpha virt. eigenvalues --    7.37700   7.41879   8.11021   8.16046   8.18857
 Alpha virt. eigenvalues --    8.56239   8.86782  10.57316  10.58096  10.81852
 Alpha virt. eigenvalues --   24.97405  29.29494  29.37821  29.43923  43.21706
 Alpha virt. eigenvalues --   43.28060  43.35992  43.42138  54.04618  70.20393
 Alpha virt. eigenvalues --   70.24931  70.28708 142.60057 142.68757 142.76093
 Alpha virt. eigenvalues --  202.55848 626.07366
     Molecular Orbital Coefficients:
                           1         2         3         4         5
                           O         O         O         O         O
     Eigenvalues --  -100.65527 -18.78045 -18.77936 -18.77828 -18.77489
   1 1   Pa 1S         -0.00000  -0.00000  -0.00000  -0.00000  -0.00000
   2        2S         -0.00000  -0.00007  -0.00011  -0.00012  -0.00007
   3        3S          0.00000   0.00000   0.00000   0.00000   0.00000
   4        4S          0.00001   0.00017   0.00025   0.00026   0.00017
   5        5S         -0.00001  -0.00066  -0.00098  -0.00102  -0.00069
   6        6S          0.00000   0.00126   0.00189   0.00194   0.00137
   7        7S          0.00016  -0.00150  -0.00240  -0.00247  -0.00183
   8        8S         -0.00062   0.00130   0.00195   0.00208   0.00170
   9        9S          0.00177  -0.00627  -0.00596  -0.00603  -0.00618
  10       10S         -0.00025   0.00145   0.00114   0.00114   0.00172
  11       11PX         0.00001   0.00003  -0.00000  -0.00000   0.00000
  12       11PY        -0.00000   0.00000   0.00003  -0.00003   0.00000
  13       11PZ         0.00000  -0.00000  -0.00000  -0.00000   0.00002
  14       12PX        -0.00005  -0.00021   0.00001   0.00002  -0.00002
  15       12PY         0.00000  -0.00000  -0.00021   0.00021  -0.00001
  16       12PZ        -0.00001   0.00003   0.00003   0.00001  -0.00019
  17       13PX         0.00009   0.00046  -0.00002  -0.00004   0.00005
  18       13PY        -0.00000   0.00000   0.00047  -0.00047   0.00001
  19       13PZ         0.00001  -0.00006  -0.00006  -0.00002   0.00042
  20       14PX        -0.00015  -0.00092   0.00005   0.00008  -0.00009
  21       14PY         0.00000  -0.00000  -0.00093   0.00094  -0.00002
  22       14PZ        -0.00002   0.00012   0.00012   0.00003  -0.00084
  23       15PX         0.00021   0.00148  -0.00007  -0.00012   0.00015
  24       15PY        -0.00001   0.00001   0.00151  -0.00150   0.00004
  25       15PZ         0.00003  -0.00019  -0.00019  -0.00005   0.00136
  26       16PX        -0.00041  -0.00261   0.00013   0.00021  -0.00025
  27       16PY         0.00001  -0.00001  -0.00276   0.00272  -0.00007
  28       16PZ        -0.00004   0.00033   0.00032   0.00008  -0.00233
  29       17PX         0.00109   0.00379  -0.00024  -0.00029   0.00024
  30       17PY        -0.00002  -0.00001   0.00529  -0.00527   0.00016
  31       17PZ         0.00004  -0.00046  -0.00040  -0.00011   0.00284
  32       18PX        -0.00291  -0.00962   0.00046   0.00004  -0.00026
  33       18PY        -0.00005   0.00066  -0.02121   0.02134  -0.00086
  34       18PZ         0.00014   0.00153  -0.00002   0.00035  -0.00641
  35       19PX        -0.00008   0.00014   0.00010   0.00002   0.00014
  36       19PY        -0.00001   0.00003   0.00034  -0.00030  -0.00007
  37       19PZ        -0.00005   0.00024   0.00007   0.00021  -0.00015
  38       20D 0        0.00003   0.00001   0.00008   0.00006  -0.00000
  39       20D+1       -0.00002  -0.00001  -0.00000  -0.00001   0.00002
  40       20D-1        0.00000  -0.00000  -0.00002   0.00003  -0.00001
  41       20D+2       -0.00003  -0.00007   0.00015   0.00016  -0.00001
  42       20D-2       -0.00000   0.00001  -0.00000  -0.00001   0.00000
  43       21D 0       -0.00006  -0.00006  -0.00025  -0.00018   0.00008
  44       21D+1        0.00004   0.00000   0.00001   0.00002  -0.00004
  45       21D-1       -0.00000   0.00001   0.00003  -0.00008   0.00003
  46       21D+2        0.00007   0.00024  -0.00046  -0.00048   0.00002
  47       21D-2        0.00001  -0.00003  -0.00000   0.00003   0.00000
  48       22D 0        0.00009   0.00018   0.00054   0.00042  -0.00041
  49       22D+1       -0.00006   0.00008  -0.00002  -0.00004   0.00002
  50       22D-1        0.00000  -0.00001  -0.00002   0.00011  -0.00007
  51       22D+2       -0.00010  -0.00055   0.00097   0.00100  -0.00003
  52       22D-2       -0.00001   0.00007   0.00001  -0.00007  -0.00000
  53       23D 0       -0.00009  -0.00008  -0.00087  -0.00052   0.00052
  54       23D+1        0.00009  -0.00003   0.00001   0.00008  -0.00006
  55       23D-1        0.00000   0.00001   0.00009  -0.00024   0.00014
  56       23D+2        0.00001   0.00046  -0.00135  -0.00141   0.00004
  57       23D-2        0.00002  -0.00011   0.00000   0.00008   0.00000
  58       24D 0       -0.00050   0.00153   0.00129   0.00186  -0.00342
  59       24D+1        0.00011   0.00140  -0.00010  -0.00001  -0.00033
  60       24D-1        0.00001  -0.00004   0.00067  -0.00065  -0.00033
  61       24D+2        0.00079  -0.00350   0.00294   0.00281  -0.00017
  62       24D-2        0.00005   0.00013   0.00013  -0.00008   0.00001
  63       25F 0       -0.00000   0.00003   0.00001   0.00001   0.00010
  64       25F+1        0.00002  -0.00002   0.00000   0.00000   0.00001
  65       25F-1       -0.00000   0.00000   0.00000   0.00001   0.00002
  66       25F+2        0.00000  -0.00004   0.00002   0.00002   0.00000
  67       25F-2       -0.00000   0.00001   0.00000  -0.00000   0.00000
  68       25F+3       -0.00002   0.00005   0.00001   0.00001   0.00001
  69       25F-3        0.00000  -0.00002  -0.00001   0.00000   0.00001
  70       26F 0       -0.00000  -0.00017  -0.00004  -0.00004  -0.00052
  71       26F+1       -0.00006   0.00016  -0.00000  -0.00001  -0.00006
  72       26F-1        0.00000  -0.00001   0.00007  -0.00010  -0.00010
  73       26F+2       -0.00001   0.00019  -0.00010  -0.00008  -0.00001
  74       26F-2        0.00000  -0.00002  -0.00002   0.00000  -0.00000
  75       26F+3        0.00008  -0.00029  -0.00005  -0.00006  -0.00004
  76       26F-3       -0.00000   0.00008   0.00014  -0.00011  -0.00002
  77       27F 0        0.00001   0.00044   0.00011   0.00011   0.00138
  78       27F+1        0.00010  -0.00051   0.00001   0.00004   0.00018
  79       27F-1       -0.00000   0.00001  -0.00024   0.00028   0.00026
  80       27F+2        0.00003  -0.00049   0.00025   0.00021   0.00001
  81       27F-2       -0.00000   0.00005   0.00003  -0.00000   0.00001
  82       27F+3       -0.00014   0.00084   0.00012   0.00013   0.00009
  83       27F-3        0.00001  -0.00022  -0.00040   0.00031   0.00006
[...]
 Mulliken charges with hydrogens summed into heavy atoms:
               1
     1  Pa   1.478805
     2  O   -0.270686
     4  O   -0.293644
     6  O   -0.261642
     8  O   -0.253219
    10  Cl  -0.399614
 Electronic spatial extent (au):  <R**2>=           1198.8941
 Charge=             -0.0000 electrons
 Dipole moment (field-independent basis, Debye):
    X=              5.7899    Y=              0.2513    Z=              0.1752  Tot=              5.7980
 Quadrupole moment (field-independent basis, Debye-Ang):
   XX=            -80.3933   YY=            -66.8419   ZZ=            -68.5597
   XY=              0.8700   XZ=              0.9527   YZ=             -0.9950
 Traceless Quadrupole moment (field-independent basis, Debye-Ang):
   XX=             -8.4617   YY=              5.0898   ZZ=              3.3720
   XY=              0.8700   XZ=              0.9527   YZ=             -0.9950
 Octapole moment (field-independent basis, Debye-Ang**2):
  XXX=             68.6433  YYY=              4.4559  ZZZ=              5.5886  XYY=             27.6613
  XXY=              8.0104  XXZ=             -0.6619  XZZ=             13.8100  YZZ=             -8.0538
  YYZ=              6.5743  XYZ=             -2.2866
 Hexadecapole moment (field-independent basis, Debye-Ang**3):
 XXXX=           -793.6593 YYYY=           -298.8846 ZZZZ=           -189.7076 XXXY=             32.3492
 XXXZ=            -15.2673 YYYX=            -15.5797 YYYZ=             21.0675 ZZZX=             14.1273
 ZZZY=            -24.2398 XXYY=           -196.1845 XXZZ=           -179.7896 YYZZ=           -115.8113
 XXYZ=             -6.2056 YYXZ=              0.0603 ZZXY=             -3.7521
 N-N= 5.578649202803D+02 E-N=-3.850496780997D+03  KE= 9.276551431040D+02
 Orbital energies and kinetic energies (alpha):
                                 1                 2
   1         O              -100.655267        137.104160
   2         O               -18.780445         29.112663
   3         O               -18.779359         29.111954
   4         O               -18.778281         29.112095
   5         O               -18.774886         29.113149
   6         O               -11.121695          4.704257
   7         O                -9.120257         21.459086
   8         O                -7.187406          5.037789
   9         O                -7.183980          5.036830
  10         O                -7.181871          5.035936
  11         O                -6.937614         20.545568
  12         O                -6.936147         20.547875
  13         O                -6.935217         20.549242
  14         O                -3.542205          6.839040
  15         O                -3.541859          6.838508
  16         O                -3.541077          6.838397
  17         O                -3.539363          6.837471
  18         O                -3.537428          6.837124
  19         O                -1.736542          6.465647
  20         O                -0.968225          2.305456
  21         O                -0.947493          2.400422
  22         O                -0.939169          2.487023
  23         O                -0.901178          2.946580
  24         O                -0.818017          2.550679
  25         O                -0.811035          2.554806
  26         O                -0.791457          2.604022
  27         O                -0.670880          3.261350
  28         O                -0.470125          2.957271
  29         O                -0.442964          4.007556
  30         O                -0.438656          3.296441
  31         O                -0.407648          2.428163
  32         O                -0.330279          2.134497
  33         O                -0.315259          2.160748
  34         O                -0.307580          2.968908
  35         O                -0.300978          3.493477
  36         O                -0.299114          2.924493
  37         O                -0.292582          2.546712
  38         O                -0.289918          4.309020
  39         O                -0.284814          4.481318
  40         O                -0.260330          3.027205
  41         O                -0.246362          2.424154
  42         O                -0.238358          2.430479
  43         V                -0.139975        137.514419
  44         V                -0.133580          5.933883
  45         V                -0.125519         13.409162
  46         V                -0.121715          5.463172
  47         V                -0.113148         13.506024
  48         V                -0.105686        205.398700
  49         V                -0.097817         23.718860
  50         V                -0.083018          5.656502
  51         V                -0.035090         17.197612
  52         V                -0.008941          1.426344
  53         V                -0.004262          2.553592
  54         V                 0.009205          1.957733
  55         V                 0.014253          1.709141
  56         V                 0.014831          1.170522
  57         V                 0.020084          1.373821
  58         V                 0.038154          1.517538
  59         V                 0.059626          0.856754
  60         V                 0.094954          6.364100
  61         V                 0.108206          0.922692
  62         V                 0.119899          1.070235
  63         V                 0.149911          3.936494
  64         V                 0.200368          1.621540
  65         V                 0.223559          1.095282
  66         V                 0.237848          1.461520
  67         V                 0.242031          1.439273
  68         V                 0.255488          1.218942
  69         V                 0.258360          1.177022
  70         V                 0.260680          1.228918
  71         V                 0.269052          1.373088
  72         V                 0.288760          1.280436
  73         V                 0.293829          2.050426
  74         V                 0.317635          1.554473
  75         V                 0.319757          1.659415
  76         V                 0.327213          1.461253
  77         V                 0.347161          1.632510
  78         V                 0.371387          1.616116
  79         V                 0.385968          2.166835
  80         V                 0.392399          2.017312
  81         V                 0.408365          1.557051
  82         V                 0.428669          1.712633
  83         V                 0.433080          1.760131
  84         V                 0.446095          1.589120
  85         V                 0.453497          1.774774
  86         V                 0.463117          2.008270
  87         V                 0.474699          2.788901
  88         V                 0.484045          1.826012
  89         V                 0.499355          1.767305
  90         V                 0.511604          1.895588
  91         V                 0.519123          1.796141
  92         V                 0.546596          2.328060
  93         V                 0.551411          1.569198
  94         V                 0.575889          1.513678
  95         V                 0.579323          1.520106
  96         V                 0.606105          2.080111
  97         V                 0.625081          2.616584
  98         V                 0.640050          1.651753
  99         V                 0.646757          1.828331
 100         V                 0.677222          1.816508
 101         V                 0.713740          2.084863
 102         V                 0.736481          1.533437
 103         V                 0.757969          1.888247
 104         V                 0.796784          1.696588
 105         V                 0.849986          1.931320
 106         V                 0.865756          1.960537
 107         V                 0.912166          3.721167
 108         V                 0.961573          2.358497
 109         V                 0.988820          3.798198
 110         V                 1.044528          2.527964
 111         V                 1.065715          2.847885
 112         V                 1.067876          2.770523
 113         V                 1.098937          3.137136
 114         V                 1.101130          2.879068
 115         V                 1.106580          2.968180
 116         V                 1.122454          2.825590
 117         V                 1.138380          2.492334
 118         V                 1.149011          2.367128
 119         V                 1.154908          2.832153
 120         V                 1.162440          2.817487
 121         V                 1.195876          2.585658
 122         V                 1.219203          2.908267
 123         V                 1.264500          3.407149
 124         V                 1.273304          3.379053
 125         V                 1.283115          3.550693
 126         V                 1.305810          2.630504
 127         V                 1.342670          2.773606
 128         V                 1.354164          2.643574
 129         V                 1.376287          2.999423
 130         V                 1.404687          2.483631
 131         V                 1.413042          2.626077
 132         V                 1.441967          2.919307
 133         V                 1.473185          2.868995
 134         V                 1.490358          2.850139
 135         V                 1.547393          3.246225
 136         V                 1.563529          3.610346
 137         V                 1.569066          3.799477
 138         V                 1.593322          3.478766
 139         V                 1.607620          3.523297
 140         V                 1.662456          3.334308
 141         V                 1.678050          3.351507
 142         V                 1.696093          3.379260
 143         V                 1.720165          3.606298
 144         V                 1.739361          4.283745
 145         V                 1.750700          3.930786
 146         V                 1.757944          3.450107
 147         V                 1.777026          3.860367
 148         V                 1.781999          3.472045
 149         V                 1.799988          3.627172
 150         V                 1.858079          3.864391
 151         V                 1.861549          3.851979
 152         V                 1.881288          4.170099
 153         V                 1.888648          4.168021
 154         V                 1.900738          4.103044
 155         V                 1.907430          3.942130
 156         V                 1.953159          3.703869
 157         V                 2.056492          3.385903
 158         V                 2.058311          3.880404
 159         V                 2.061504          3.228680
 160         V                 2.070731          3.512410
 161         V                 2.091516          3.386597
 162         V                 2.108836          3.598425
 163         V                 2.142453          3.740378
 164         V                 2.153750          3.772081
 165         V                 2.166876          3.883658
 166         V                 2.189951          3.888867
 167         V                 2.206534          4.080317
 168         V                 2.211990          6.649493
 169         V                 2.218105          6.117922
 170         V                 2.237991          4.708498
 171         V                 2.250832          4.890714
 172         V                 2.258255          4.316623
 173         V                 2.265431          4.087467
 174         V                 2.286440          4.298704
 175         V                 2.322005          5.323246
 176         V                 2.428327          4.726970
 177         V                 2.458646          4.048288
 178         V                 2.494561          4.390704
 179         V                 2.508136          4.817527
 180         V                 2.584755          6.207084
 181         V                 2.587029          6.559640
 182         V                 2.620280          6.740675
 183         V                 2.648120          6.377767
 184         V                 2.658096          6.248820
 185         V                 2.684957          6.720191
 186         V                 2.711125          6.367230
 187         V                 2.732689          6.541627
 188         V                 2.751906          6.520158
 189         V                 2.805238          6.778478
 190         V                 2.900413          6.858340
 191         V                 2.924900          6.804813
 192         V                 3.019173          6.600082
 193         V                 3.412002          8.621679
 194         V                 3.467158          8.402036
 195         V                 3.568909          8.226983
 196         V                 3.640685          6.899254
 197         V                 3.650268          8.539649
 198         V                 3.681874          7.304027
 199         V                 3.713167          7.504576
 200         V                 3.757001          7.527499
 201         V                 3.807468          9.231220
 202         V                 3.835783          9.780125
 203         V                 3.883566          8.973478
 204         V                 3.973304          9.225305
 205         V                 4.101468          9.412578
 206         V                 4.145055          9.469703
 207         V                 4.192393          9.208607
 208         V                 4.995008          6.438869
 209         V                 4.996922          6.441853
 210         V                 5.000312          6.448289
 211         V                 5.002433          6.456216
 212         V                 5.008024          6.471063
 213         V                 5.010537          6.463555
 214         V                 5.015019          6.489070
 215         V                 5.020542          6.474889
 216         V                 5.057288          6.676301
 217         V                 5.064232          6.631643
 218         V                 5.099204          6.825941
 219         V                 5.105632          6.700007
 220         V                 5.113265          6.852130
 221         V                 5.126128          6.784048
 222         V                 5.142407          6.823725
 223         V                 5.158849          6.850603
 224         V                 5.305396          6.901016
 225         V                 5.306927          7.086157
 226         V                 5.330766          7.868612
 227         V                 5.358669          7.082338
 228         V                 5.369567          7.015046
 229         V                 5.398501          7.116506
 230         V                 5.421239          7.227046
 231         V                 5.433135          7.217697
 232         V                 5.995669         10.729588
 233         V                 6.087551          9.006857
 234         V                 6.091835          9.136504
 235         V                 6.104201          9.095802
 236         V                 6.141805          9.486679
 237         V                 6.158827          9.151550
 238         V                 6.169263          9.335755
 239         V                 6.189693          9.360348
 240         V                 6.210939          9.300106
 241         V                 6.233801          9.308289
 242         V                 6.254914          9.349808
 243         V                 6.277221          9.337947
 244         V                 6.290429          9.366051
 245         V                 6.399114          9.620853
 246         V                 6.416537          9.626334
 247         V                 6.460837          9.656601
 248         V                 6.476263          9.671046
 249         V                 6.620640         10.139555
 250         V                 6.638041         10.310275
 251         V                 6.657044         10.257809
 252         V                 6.762600         10.137639
 253         V                 6.933626         10.199676
 254         V                 6.959878         10.334633
 255         V                 6.981246          9.984221
 256         V                 7.068231         10.616450
 257         V                 7.229537         13.078152
 258         V                 7.377000         13.471364
 259         V                 7.418792         13.786613
 260         V                 8.110213         15.824623
 261         V                 8.160459         15.801106
 262         V                 8.188565         15.810226
 263         V                 8.562388         16.150329
 264         V                 8.867825         16.400955
 265         V                10.573163         33.478337
 266         V                10.580962         33.479292
 267         V                10.818516         33.467158
 268         V                24.974052         44.484392
 269         V                29.294942         36.039552
 270         V                29.378210         36.121568
 271         V                29.439233         36.183929
 272         V                43.217060        108.591446
 273         V                43.280605        108.635639
 274         V                43.359919        108.725103
 275         V                43.421379        108.785118
 276         V                54.046181         39.958896
 277         V                70.203926         83.962834
 278         V                70.249315         84.046661
 279         V                70.287077         84.119689
 280         V               142.600567        242.445314
 281         V               142.687575        242.554019
 282         V               142.760933        242.647106
 283         V               202.558483        130.070184
 284         V               626.073664       1034.484564
 Total kinetic energy from orbitals= 9.276551431040D+02
 No NMR shielding tensors so no spin-rotation constants.
 Leave Link  601 at Tue Jul  4 10:47:21 2023, MaxMem=  2147483648 cpu:               2.0 elap:               0.3
 (Enter /home/pcmt/gaussian/g16.C.01/g16/l9999.exe)

 Test job not archived.
 1\1\GINC-U-0-9\SP\RBP86\Gen\Cl1H4O4Pa1\SHAABAN\04-Jul-2023\0\\#p BP86/
 GEN Pseudo=Read GFInput GFPrint IOP(6/7=3) Symm=(Loose) Int=(UltraFine
 ) Guess=(Harris) Scf=(NoVarAcc,MaxCycle=100,conver=8)\\pa_oh4_cl-bp86-
 cosmors-deftzvp-gp.com SGP in PCM calculation\\0,1\Pa,0,0.4489698047,0
 .0847951828,0.3092734457\O,0,1.1854805989,1.7610488363,-0.7010718061\H
 ,0,1.2297695899,2.1692608229,-1.575177068\O,0,-1.5085248851,0.84223543
 02,0.197808329\H,0,-2.0090009692,1.518048672,-0.2748173669\O,0,0.38922
 29212,-1.0279427686,-1.45756241\H,0,-0.0081003442,-1.8174583444,-1.841
 9257374\O,0,-0.2444585245,-1.4910800742,1.5068901123\H,0,-1.0999477633
 ,-1.8860458404,1.7203881314\Cl,0,2.9871975537,-0.6119929625,0.94104298
 37\\Version=ES64L-G16RevC.01\State=1-A\HF=-1205.6342632\RMSD=7.823e-09
 \Dipole=-2.0986089,0.6455271,-0.6185482\Quadrupole=-5.5409281,3.339496
 7,2.2014314,2.6650645,-1.0509122,-0.033745\PG=C01 [X(Cl1H4O4Pa1)]\\@


 LENDING MONEY TO FRIENDS CAUSES THEM TO LOSE THEIR MEMORIES.

    --  PETER'S THEORY OF RECIPROCAL INHIBITION OF FISCAL RECALL
 Job cpu time:       0 days  0 hours  7 minutes 53.1 seconds.
 Elapsed time:       0 days  0 hours  1 minutes 20.3 seconds.
 File lengths (MBytes):  RWF=     34 Int=      0 D2E=      0 Chk=      6 Scr=      1
 Normal termination of Gaussian 16 at Tue Jul  4 10:47:21 2023.
