

 Parallel Execution: Process Information
 ==============================================================================
 Rank   Node Name                              NodeID   MyNodeRank  NodeMaster
    0   u-0-6.local                               0          0          0
    1   u-0-6.local                               0          1         -1
    2   u-0-6.local                               1          0          1
    3   u-0-6.local                               1          1         -1
    4   u-0-6.local                               2          0          2
    5   u-0-6.local                               2          1         -1
    6   u-0-6.local                               3          0          3
    7   u-0-6.local                               3          1         -1
 ==============================================================================


May use up to 31228MB of RAM as shared memory on node 0
May use up to 31250MB of RAM as shared memory on node 3
May use up to 31250MB of RAM as shared memory on node 1
May use up to 31250MB of RAM as shared memory on node 2

 *******************************************************************************
 *                                                                             *
 *  --------------------------------                                           *
 *   Amsterdam Modeling Suite (AMS)              2022.103                      *
 *  --------------------------------                                           *
 *                                               r104886 2022-06-17            *
 *                                                                             *
 *                                                                             *
 *                              =================                              *
 *                              |               |                              *
 *                              |     A M S     |                              *
 *                              |               |                              *
 *                              =================                              *
 *                                                                             *
 *                                                                             *
 *   Online information and documentation:  https://www.scm.com/support/       *
 *   E-mail:  support@scm.com   info@scm.com                                   *
 *                                                                             *
 *   Scientific publications using AMS results must be properly referenced     *
 *   See the User Manuals (or the web site) for recommended citations          *
 *   The terms and conditions of the End User License Agreement apply to       *
 *   the use of AMS, https://www.scm.com/license-terms/                        *
 *                                                                             *
 **********************  x86_64_linux_intel / intelmpi  ************************
 
 Licensed to: Dr. Val?rie Vallet / Laboratoire PhLAM UMR 8523 / Villeneuve d'Ascq Cedex / FRANCE 2023-02-21 11:49:39
 SCM User ID: u10325
  
 AMS 2022.103  RunTime: Mar13-2023 19:08:44  ShM Nodes: 4  Procs: 8

 AMS jobname: pao_oh3_h2o.SR.b3lyp.tz2p.opt-freq-A2-solvation
 AMS jobid  : 1484401844

 Start   directory: /home/shaaban/ams/PhD/hyroxide/pao_oh3_h2o/solvation/
 Results directory: /home/shaaban/ams/PhD/hyroxide/pao_oh3_h2o/solvation/pao_oh3_h2o.SR.b3lyp.tz2p.opt-freq-A2-solvation.results/
 Scratch directory: /state/partition2/shaaban/934969.phlam-s-sakura/amstmp_pao_oh3_h2o.SR.b3lyp.tz2p.opt-freq-A2-solvation_kid0.1484401844/


 Communication costs MPI_COMM_WORLD:      2.780 usec per message,   0.0090 usec per 8-byte item
 Communication costs for intra-node:      0.521 usec per message,   0.0024 usec per 8-byte item

 RNG seed: 1021132160 -43610317 -2059797003 -2117477520 -2127734451 966728124 -967794571 -906755671



                      ************************************************************************
                      *  ADF 2022.103  RunTime: Mar13-2023 19:08:44  ShM Nodes: 4  Procs: 8  *
                      ************************************************************************
  
       ***************************
       *  GEOMETRY OPTIMIZATION  *
       ***************************

Optimization Method                    Quasi Newton
Optimization Coordinates               Delocalized Coordinates
Optimize lattice                       F
 
 ------------------------------------------------------
 Convergence criteria (Hartree,Angstrom)
 ------------------------------------------------------
 Maximum gradient               0.000100000000
 Maximum rms gradient           0.000066666667
 Maximum step allowed           0.001000000000
 Maximum rms step allowed       0.000666666667
 Maximum energy change allowe   0.000011000000
 Maximum stress energy allowe   0.000500000000
 
Initial model Hessian                  Automatic Hessian
 
------------------------------------
Quasi-Newton Optimizer Parameters
------------------------------------
Hessian Update Method                  BFGS
Maximum number of steps                  250
First GDIIS cycle                          0
Maximum GDIIS vectors                      0
Trust radius (bohr)                        0.200000
Trust radius varies                        T
Constraints converged at all steps         T
Use projector                              T
 
 Rigid motions settings for: old optimizer
 Atomic rotations (x,y,z):     T T T
 Atomic translations (x,y,z):  T T T
 Tolerance:                   1.000000000000000E-006
 
--------
Geometry
--------
Formula: H5O5Pa
Atoms
  Index Symbol   x (angstrom)   y (angstrom)   z (angstrom)
      1     Pa    -0.19696929     0.06054024     0.82872573       adf.R=2.200
      2      O     1.11258836     1.46961294    -0.14218011       adf.R=1.517
      3      O    -1.79432074     0.80735024    -0.34577190       adf.R=1.517
      4      O    -0.75645110     1.41573146     2.58785530       adf.R=1.517
      5      H    -1.93978192     1.62812553    -0.83441570       adf.R=1.350
      6      O     0.05930024    -1.64719568    -1.00859677       adf.R=1.517
      7      H    -0.36448826    -1.61424860    -1.87613364       adf.R=1.350
      8      H     0.76748299    -2.30185692    -1.06225282       adf.R=1.350
      9      H     2.06441769     1.55221237    -0.01218808       adf.R=1.350
     10      O     1.14039643    -0.88479193     1.73322065       adf.R=1.517
     11      H    -0.83463196     2.32210748     2.28130960       adf.R=1.350
 
Total System Charge             0.00000
Bonding info available!
 
 
----------------
ADF Engine Input
----------------
 
 Basis
 Type TZ2P
 Core None
 End
 XC
 Hybrid B3LYP
 End
 Solvation
 Surf Delley
 Solv name=Water cav0=0.0 cav1=0.0067639
 Charged method=CONJ
 C-Mat POT
 SCF VAR ALL
 CSMRSP
 End
 NumericalQuality Good
 

 Title: *** (NO TITLE) ***

 Using automatic Hessian for delocalized coordinates.
 *** GO1_GOStep1 ***

 SOLVATION
-------------------------------------------

  The Delley construction of COSMO surface surface is calculated

       Division Level for Surface Triangles (NDIV)                  3
       Final Division Level for Triangles (NFDIV)                   1
       Radius of the Solvent (RSOL)                           1.93000 angstr
  Dielectric Constant (EPSL)                                 78.39000

       COSMO equation is solved iteratively-               conjugate-gradient

       Maximun of Iterations for Charges (NCIX)                  1000
       Criterion for Charge convergence (CCNV)                1.0E-08

  COSMO charges included variationally in SCF

       COSMO included at every SCF cycle

  Geometry-dependent empirical factor                         0.00000

  C-Matrix calculated in cspmtx

  In cspmtx, C-Matrix calculated using fitted potential

-------------------------------------------



 -------------------------------------------
  COSMO surface
  Area             =          498.879
  Volume           =          803.686
  Number of Points =         1277
 -------------------------------------------



 ======================
 RI Hartree-Fock Scheme
 ======================
  
 Fit Set Quality     : GOOD
 Threshold Quality   : GOOD
 Integration Quality : GOOD
 Response Quality    : DEFAULT
 Is Range Separated  :  F
 
 RIHartreeFock Dependency: number of modified vectors:           5
 cosmo_calcen: 0.5 (esolb+esolc) (Hartrees) =   -0.069255

 Solvation energy (screening term,uncorrected) =    -43.458059 kcal/mol

 Solvation energy (dispersion and cavitation terms) =      0.932864 kcal/mol
 Solvation Energy Contributions (Hartrees)
          esola   esolb+esolc
     0.06925482   -0.13850964
 esol last cycle   -0.06925482
  
 Hartree-Fock exchange energy:   -509.179930457989     
 cosmo_calcen: 0.5 (esolb+esolc) (Hartrees) =   -0.069255

 Solvation energy (screening term,uncorrected) =    -43.458052 kcal/mol

 Solvation energy (dispersion and cavitation terms) =      0.932864 kcal/mol
 Solvation Energy Contributions (Hartrees)
          esola   esolb+esolc
     0.06925481   -0.13850961
 esol last cycle   -0.06925481

 Energy gradients wrt nuclear displacements
 ==========================================

     Atom      Cartesian (a.u./angstrom)
                 X         Y         Z
 ----------------------------------------
     1 Pa    0.008114 -0.011403 -0.021469
     2 O    -0.000002 -0.001735  0.000728
     3 O     0.000751 -0.002184  0.002561
     4 O    -0.013032  0.023128  0.022759
     5 H     0.000350  0.000382  0.000260
     6 O    -0.000357  0.001320  0.001379
     7 H    -0.000070  0.000167  0.000066
     8 H     0.000010  0.000133  0.000225
     9 H     0.000173  0.000051  0.000003
    10 O    -0.002203  0.003311 -0.002602
    11 H     0.006264 -0.013171 -0.003910
 ----------------------------------------
 Mulliken charges used for AMS results%charges...
 
----------------------------------------------------------------------
Geometry Convergence after Step   1       (Hartree/Angstrom,Angstrom)
----------------------------------------------------------------------
current energy                               -3.01825475 Hartree
energy change                      -3.01825475     0.00001100    F
constrained gradient max            0.02312406     0.00010000    F
constrained gradient rms            0.00807113     0.00006667    F
gradient max                        0.02312406
gradient rms                        0.00807113
cart. step max                      0.04507370     0.00100000    F
cart. step rms                      0.01046989     0.00066667    F
 
 
--------
Geometry
--------
Formula: H5O5Pa
Atoms
  Index Symbol   x (angstrom)   y (angstrom)   z (angstrom)
      1     Pa    -0.19313564     0.06039464     0.83186209       adf.R=2.200
      2      O     1.11136667     1.47021443    -0.14627058       adf.R=1.517
      3      O    -1.78677171     0.81382881    -0.34620817       adf.R=1.517
      4      O    -0.72838243     1.41524823     2.58322771       adf.R=1.517
      5      H    -1.92834679     1.63253353    -0.83928181       adf.R=1.350
      6      O     0.05791536    -1.64877793    -1.00678045       adf.R=1.517
      7      H    -0.36722200    -1.61566415    -1.87365750       adf.R=1.350
      8      H     0.76456155    -2.30508442    -1.06156400       adf.R=1.350
      9      H     2.06376494     1.55293766    -0.02135893       adf.R=1.350
     10      O     1.14349815    -0.89335962     1.73283995       adf.R=1.517
     11      H    -0.87970566     2.32531593     2.29676395       adf.R=1.350
 
Total System Charge             0.00000
Bonding info available!
 
 *** GO1_GOStep2 ***

 SOLVATION
-------------------------------------------

  The Delley construction of COSMO surface surface is calculated

       Division Level for Surface Triangles (NDIV)                  3
       Final Division Level for Triangles (NFDIV)                   1
       Radius of the Solvent (RSOL)                           1.93000 angstr
  Dielectric Constant (EPSL)                                 78.39000

       COSMO equation is solved iteratively-               conjugate-gradient

       Maximun of Iterations for Charges (NCIX)                  1000
       Criterion for Charge convergence (CCNV)                1.0E-08

  COSMO charges included variationally in SCF

       COSMO included at every SCF cycle

  Geometry-dependent empirical factor                         0.00000

  C-Matrix calculated in cspmtx

  In cspmtx, C-Matrix calculated using fitted potential

-------------------------------------------



 -------------------------------------------
  COSMO surface
  Area             =          500.700
  Volume           =          806.154
  Number of Points =         1273
 -------------------------------------------



 ======================
 RI Hartree-Fock Scheme
 ======================
  
 Fit Set Quality     : GOOD
 Threshold Quality   : GOOD
 Integration Quality : GOOD
 Response Quality    : DEFAULT
 Is Range Separated  :  F
 
 RIHartreeFock Dependency: number of modified vectors:           5
 cosmo_calcen: 0.5 (esolb+esolc) (Hartrees) =   -0.068830

 Solvation energy (screening term,uncorrected) =    -43.191332 kcal/mol

 Solvation energy (dispersion and cavitation terms) =      0.936270 kcal/mol
 Solvation Energy Contributions (Hartrees)
          esola   esolb+esolc
     0.06882976   -0.13765952
 esol last cycle   -0.06882976
  
 Hartree-Fock exchange energy:   -509.176337506905     
 cosmo_calcen: 0.5 (esolb+esolc) (Hartrees) =   -0.068830

 Solvation energy (screening term,uncorrected) =    -43.191338 kcal/mol

 Solvation energy (dispersion and cavitation terms) =      0.936270 kcal/mol
 Solvation Energy Contributions (Hartrees)
          esola   esolb+esolc
     0.06882977   -0.13765954
 esol last cycle   -0.06882977

 Energy gradients wrt nuclear displacements
 ==========================================

     Atom      Cartesian (a.u./angstrom)
                 X         Y         Z
 ----------------------------------------
     1 Pa    0.006852 -0.011088 -0.019711
     2 O    -0.000552 -0.001221  0.000826
     3 O     0.000964 -0.001715  0.001897
     4 O    -0.010287  0.010810  0.023521
     5 H     0.000182  0.000361  0.000212
     6 O    -0.000443  0.001382  0.001530
     7 H    -0.000123  0.000083  0.000095
     8 H     0.000145  0.000068  0.000072
     9 H    -0.000023  0.000015 -0.000015
    10 O    -0.001299  0.002250 -0.001991
    11 H     0.004583 -0.000944 -0.006437
 ----------------------------------------
 Mulliken charges used for AMS results%charges...

 dE(predicted):    -0.48264E-03, dE(actual):    -0.90530E-03, Trust radius:    0.200000, all in a.u.
 
----------------------------------------------------------------------
Geometry Convergence after Step   2       (Hartree/Angstrom,Angstrom)
----------------------------------------------------------------------
current energy                               -3.01916005 Hartree
energy change                      -0.00090530     0.00001100    F
constrained gradient max            0.02351873     0.00010000    F
constrained gradient rms            0.00656679     0.00006667    F
gradient max                        0.02351873
gradient rms                        0.00656679
cart. step max                      0.05361237     0.00100000    F
cart. step rms                      0.01615129     0.00066667    F
 
 
--------
Geometry
--------
Formula: H5O5Pa
Atoms
  Index Symbol   x (angstrom)   y (angstrom)   z (angstrom)
      1     Pa    -0.19263407     0.06566376     0.83424814       adf.R=2.200
      2      O     1.10745096     1.47299744    -0.15811799       adf.R=1.517
      3      O    -1.78052048     0.82453142    -0.35485552       adf.R=1.517
      4      O    -0.68774585     1.41028214     2.56357451       adf.R=1.517
      5      H    -1.91761726     1.63835808    -0.85664135       adf.R=1.350
      6      O     0.05821839    -1.65137277    -1.00255907       adf.R=1.517
      7      H    -0.36411568    -1.61961458    -1.87088598       adf.R=1.350
      8      H     0.76200244    -2.31097624    -1.05387348       adf.R=1.350
      9      H     2.06067958     1.55559222    -0.03995623       adf.R=1.350
     10      O     1.13767365    -0.90244310     1.73826292       adf.R=1.517
     11      H    -0.92584923     2.32456875     2.35037632       adf.R=1.350
 
Total System Charge             0.00000
Bonding info available!
 
 *** GO1_GOStep3 ***

 SOLVATION
-------------------------------------------

  The Delley construction of COSMO surface surface is calculated

       Division Level for Surface Triangles (NDIV)                  3
       Final Division Level for Triangles (NFDIV)                   1
       Radius of the Solvent (RSOL)                           1.93000 angstr
  Dielectric Constant (EPSL)                                 78.39000

       COSMO equation is solved iteratively-               conjugate-gradient

       Maximun of Iterations for Charges (NCIX)                  1000
       Criterion for Charge convergence (CCNV)                1.0E-08

  COSMO charges included variationally in SCF

       COSMO included at every SCF cycle

  Geometry-dependent empirical factor                         0.00000

  C-Matrix calculated in cspmtx

  In cspmtx, C-Matrix calculated using fitted potential

-------------------------------------------



 -------------------------------------------
  COSMO surface
  Area             =          499.901
  Volume           =          804.631
  Number of Points =         1270
 -------------------------------------------



 ======================
 RI Hartree-Fock Scheme
 ======================
  
 Fit Set Quality     : GOOD
 Threshold Quality   : GOOD
 Integration Quality : GOOD
 Response Quality    : DEFAULT
 Is Range Separated  :  F
 
 RIHartreeFock Dependency: number of modified vectors:           5
 cosmo_calcen: 0.5 (esolb+esolc) (Hartrees) =   -0.067555

 Solvation energy (screening term,uncorrected) =    -42.391450 kcal/mol

 Solvation energy (dispersion and cavitation terms) =      0.934776 kcal/mol
 Solvation Energy Contributions (Hartrees)
          esola   esolb+esolc
     0.06755507   -0.13511014
 esol last cycle   -0.06755507
  
 Hartree-Fock exchange energy:   -509.175997818920     
 cosmo_calcen: 0.5 (esolb+esolc) (Hartrees) =   -0.067555

 Solvation energy (screening term,uncorrected) =    -42.391457 kcal/mol

 Solvation energy (dispersion and cavitation terms) =      0.934776 kcal/mol
 Solvation Energy Contributions (Hartrees)
          esola   esolb+esolc
     0.06755508   -0.13511016
 esol last cycle   -0.06755508

 Energy gradients wrt nuclear displacements
 ==========================================

     Atom      Cartesian (a.u./angstrom)
                 X         Y         Z
 ----------------------------------------
     1 Pa    0.003983 -0.007798 -0.013988
     2 O    -0.001530 -0.000417  0.000819
     3 O     0.001129 -0.000786  0.000856
     4 O    -0.005317  0.000901  0.016530
     5 H    -0.000032  0.000126  0.000157
     6 O    -0.000319  0.001521  0.001798
     7 H    -0.000026  0.000004 -0.000073
     8 H     0.000016 -0.000014 -0.000005
     9 H    -0.000096  0.000011 -0.000048
    10 O     0.000110  0.000551 -0.000570
    11 H     0.002082  0.005899 -0.005475
 ----------------------------------------
 Mulliken charges used for AMS results%charges...

 dE(predicted):    -0.11933E-02, dE(actual):    -0.14141E-02, Trust radius:    0.400000, all in a.u.
 
----------------------------------------------------------------------
Geometry Convergence after Step   3       (Hartree/Angstrom,Angstrom)
----------------------------------------------------------------------
current energy                               -3.02057415 Hartree
energy change                      -0.00141410     0.00001100    F
constrained gradient max            0.01652492     0.00010000    F
constrained gradient rms            0.00445838     0.00006667    F
gradient max                        0.01652492
gradient rms                        0.00445838
cart. step max                      0.10891160     0.00100000    F
cart. step rms                      0.03116379     0.00066667    F
 
 
--------
Geometry
--------
Formula: H5O5Pa
Atoms
  Index Symbol   x (angstrom)   y (angstrom)   z (angstrom)
      1     Pa    -0.18802709     0.08621103     0.83478433       adf.R=2.200
      2      O     1.11627233     1.47522082    -0.18744535       adf.R=1.517
      3      O    -1.77249141     0.84595442    -0.37010413       adf.R=1.517
      4      O    -0.62700177     1.40908263     2.52349490       adf.R=1.517
      5      H    -1.90467373     1.64935193    -0.88900600       adf.R=1.350
      6      O     0.05658240    -1.65398278    -0.99228321       adf.R=1.517
      7      H    -0.36396008    -1.62823224    -1.86158939       adf.R=1.350
      8      H     0.75642913    -2.31821974    -1.03735157       adf.R=1.350
      9      H     2.07107911     1.55201149    -0.07856306       adf.R=1.350
     10      O     1.12863863    -0.90305149     1.74834781       adf.R=1.517
     11      H    -1.01530507     2.29324105     2.45928792       adf.R=1.350
 
Total System Charge             0.00000
Bonding info available!
 
 *** GO1_GOStep4 ***

 SOLVATION
-------------------------------------------

  The Delley construction of COSMO surface surface is calculated

       Division Level for Surface Triangles (NDIV)                  3
       Final Division Level for Triangles (NFDIV)                   1
       Radius of the Solvent (RSOL)                           1.93000 angstr
  Dielectric Constant (EPSL)                                 78.39000

       COSMO equation is solved iteratively-               conjugate-gradient

       Maximun of Iterations for Charges (NCIX)                  1000
       Criterion for Charge convergence (CCNV)                1.0E-08

  COSMO charges included variationally in SCF

       COSMO included at every SCF cycle

  Geometry-dependent empirical factor                         0.00000

  C-Matrix calculated in cspmtx

  In cspmtx, C-Matrix calculated using fitted potential

-------------------------------------------



 -------------------------------------------
  COSMO surface
  Area             =          501.681
  Volume           =          805.647
  Number of Points =         1279
 -------------------------------------------



 ======================
 RI Hartree-Fock Scheme
 ======================
  
 Fit Set Quality     : GOOD
 Threshold Quality   : GOOD
 Integration Quality : GOOD
 Response Quality    : DEFAULT
 Is Range Separated  :  F
 
 RIHartreeFock Dependency: number of modified vectors:           5
 cosmo_calcen: 0.5 (esolb+esolc) (Hartrees) =   -0.065401

 Solvation energy (screening term,uncorrected) =    -41.039705 kcal/mol

 Solvation energy (dispersion and cavitation terms) =      0.938105 kcal/mol
 Solvation Energy Contributions (Hartrees)
          esola   esolb+esolc
     0.06540093   -0.13080185
 esol last cycle   -0.06540093
  
 Hartree-Fock exchange energy:   -509.180292553778     
 cosmo_calcen: 0.5 (esolb+esolc) (Hartrees) =   -0.065401

 Solvation energy (screening term,uncorrected) =    -41.039705 kcal/mol

 Solvation energy (dispersion and cavitation terms) =      0.938105 kcal/mol
 Solvation Energy Contributions (Hartrees)
          esola   esolb+esolc
     0.06540093   -0.13080185
 esol last cycle   -0.06540093

 Energy gradients wrt nuclear displacements
 ==========================================

     Atom      Cartesian (a.u./angstrom)
                 X         Y         Z
 ----------------------------------------
     1 Pa   -0.000199  0.001345 -0.000735
     2 O    -0.002677  0.000459  0.000692
     3 O     0.001095  0.000176 -0.000597
     4 O     0.001749 -0.009095 -0.000569
     5 H    -0.000234 -0.000111  0.000121
     6 O    -0.000229  0.001740  0.001851
     7 H     0.000047 -0.000116 -0.000034
     8 H     0.000093 -0.000155 -0.000205
     9 H    -0.000018 -0.000098 -0.000058
    10 O     0.000999 -0.001268  0.001118
    11 H    -0.000626  0.007123 -0.001584
 ----------------------------------------
 Mulliken charges used for AMS results%charges...

 dE(predicted):    -0.11751E-02, dE(actual):    -0.12410E-02, Trust radius:    0.800000, all in a.u.
 
----------------------------------------------------------------------
Geometry Convergence after Step   4       (Hartree/Angstrom,Angstrom)
----------------------------------------------------------------------
current energy                               -3.02181514 Hartree
energy change                      -0.00124100     0.00001100    F
constrained gradient max            0.00906689     0.00010000    F
constrained gradient rms            0.00221632     0.00006667    F
gradient max                        0.00906689
gradient rms                        0.00221632
cart. step max                      0.05927489     0.00100000    F
cart. step rms                      0.01545151     0.00066667    F
 
 
--------
Geometry
--------
Formula: H5O5Pa
Atoms
  Index Symbol   x (angstrom)   y (angstrom)   z (angstrom)
      1     Pa    -0.17834237     0.09830860     0.83244061       adf.R=2.200
      2      O     1.13508246     1.47206622    -0.20227794       adf.R=1.517
      3      O    -1.76843302     0.85550571    -0.36911391       adf.R=1.517
      4      O    -0.61291427     1.41757061     2.51520020       adf.R=1.517
      5      H    -1.90073318     1.65486929    -0.89420229       adf.R=1.350
      6      O     0.05198886    -1.65459496    -0.98830261       adf.R=1.517
      7      H    -0.37109452    -1.63113560    -1.85643413       adf.R=1.350
      8      H     0.74873171    -2.32204436    -1.03221079       adf.R=1.350
      9      H     2.09044047     1.54356471    -0.09488881       adf.R=1.350
     10      O     1.13739627    -0.89251613     1.74625066       adf.R=1.517
     11      H    -1.07457996     2.26599302     2.49311126       adf.R=1.350
 
Total System Charge             0.00000
Bonding info available!
 
 *** GO1_GOStep5 ***

 SOLVATION
-------------------------------------------

  The Delley construction of COSMO surface surface is calculated

       Division Level for Surface Triangles (NDIV)                  3
       Final Division Level for Triangles (NFDIV)                   1
       Radius of the Solvent (RSOL)                           1.93000 angstr
  Dielectric Constant (EPSL)                                 78.39000

       COSMO equation is solved iteratively-               conjugate-gradient

       Maximun of Iterations for Charges (NCIX)                  1000
       Criterion for Charge convergence (CCNV)                1.0E-08

  COSMO charges included variationally in SCF

       COSMO included at every SCF cycle

  Geometry-dependent empirical factor                         0.00000

  C-Matrix calculated in cspmtx

  In cspmtx, C-Matrix calculated using fitted potential

-------------------------------------------



 -------------------------------------------
  COSMO surface
  Area             =          500.920
  Volume           =          804.224
  Number of Points =         1278
 -------------------------------------------



 ======================
 RI Hartree-Fock Scheme
 ======================
  
 Fit Set Quality     : GOOD
 Threshold Quality   : GOOD
 Integration Quality : GOOD
 Response Quality    : DEFAULT
 Is Range Separated  :  F
 
 RIHartreeFock Dependency: number of modified vectors:           5
 cosmo_calcen: 0.5 (esolb+esolc) (Hartrees) =   -0.065047

 Solvation energy (screening term,uncorrected) =    -40.817783 kcal/mol

 Solvation energy (dispersion and cavitation terms) =      0.936681 kcal/mol
 Solvation Energy Contributions (Hartrees)
          esola   esolb+esolc
     0.06504727   -0.13009454
 esol last cycle   -0.06504727
  
 Hartree-Fock exchange energy:   -509.181237473262     
 cosmo_calcen: 0.5 (esolb+esolc) (Hartrees) =   -0.065047

 Solvation energy (screening term,uncorrected) =    -40.817781 kcal/mol

 Solvation energy (dispersion and cavitation terms) =      0.936681 kcal/mol
 Solvation Energy Contributions (Hartrees)
          esola   esolb+esolc
     0.06504727   -0.13009454
 esol last cycle   -0.06504727

 Energy gradients wrt nuclear displacements
 ==========================================

     Atom      Cartesian (a.u./angstrom)
                 X         Y         Z
 ----------------------------------------
     1 Pa   -0.000492  0.002288  0.001801
     2 O    -0.002222  0.000528  0.000498
     3 O     0.000607  0.000341 -0.000896
     4 O     0.001940 -0.007412 -0.003514
     5 H    -0.000258 -0.000080  0.000107
     6 O    -0.000082  0.001417  0.001557
     7 H     0.000012 -0.000096 -0.000045
     8 H     0.000031 -0.000079 -0.000154
     9 H     0.000034 -0.000062 -0.000037
    10 O     0.000994 -0.001432  0.001066
    11 H    -0.000563  0.004587 -0.000384
 ----------------------------------------
 Mulliken charges used for AMS results%charges...

 dE(predicted):    -0.13709E-03, dE(actual):    -0.26696E-03, Trust radius:    0.800000, all in a.u.
 
----------------------------------------------------------------------
Geometry Convergence after Step   5       (Hartree/Angstrom,Angstrom)
----------------------------------------------------------------------
current energy                               -3.02208210 Hartree
energy change                      -0.00026696     0.00001100    F
constrained gradient max            0.00738987     0.00010000    F
constrained gradient rms            0.00188108     0.00006667    F
gradient max                        0.00738987
gradient rms                        0.00188108
cart. step max                      0.11660922     0.00100000    F
cart. step rms                      0.03108483     0.00066667    F
 
 
--------
Geometry
--------
Formula: H5O5Pa
Atoms
  Index Symbol   x (angstrom)   y (angstrom)   z (angstrom)
      1     Pa    -0.15601893     0.12292861     0.82501087       adf.R=2.200
      2      O     1.17922995     1.46298824    -0.23107470       adf.R=1.517
      3      O    -1.76065254     0.87374561    -0.36217401       adf.R=1.517
      4      O    -0.60032965     1.44095871     2.50927869       adf.R=1.517
      5      H    -1.89381115     1.66590850    -0.89810338       adf.R=1.350
      6      O     0.04053741    -1.65541204    -0.98115535       adf.R=1.517
      7      H    -0.38920361    -1.63619928    -1.84607941       adf.R=1.350
      8      H     0.73079563    -2.32949609    -1.02355880       adf.R=1.350
      9      H     2.13533560     1.52263309    -0.12410922       adf.R=1.350
     10      O     1.16284892    -0.86136541     1.73772815       adf.R=1.517
     11      H    -1.19118918     2.20089719     2.54380942       adf.R=1.350
 
Total System Charge             0.00000
Bonding info available!
 
 *** GO1_GOStep6 ***

 SOLVATION
-------------------------------------------

  The Delley construction of COSMO surface surface is calculated

       Division Level for Surface Triangles (NDIV)                  3
       Final Division Level for Triangles (NFDIV)                   1
       Radius of the Solvent (RSOL)                           1.93000 angstr
  Dielectric Constant (EPSL)                                 78.39000

       COSMO equation is solved iteratively-               conjugate-gradient

       Maximun of Iterations for Charges (NCIX)                  1000
       Criterion for Charge convergence (CCNV)                1.0E-08

  COSMO charges included variationally in SCF

       COSMO included at every SCF cycle

  Geometry-dependent empirical factor                         0.00000

  C-Matrix calculated in cspmtx

  In cspmtx, C-Matrix calculated using fitted potential

-------------------------------------------



 -------------------------------------------
  COSMO surface
  Area             =          502.849
  Volume           =          805.675
  Number of Points =         1288
 -------------------------------------------



 ======================
 RI Hartree-Fock Scheme
 ======================
  
 Fit Set Quality     : GOOD
 Threshold Quality   : GOOD
 Integration Quality : GOOD
 Response Quality    : DEFAULT
 Is Range Separated  :  F
 
 RIHartreeFock Dependency: number of modified vectors:           5
 cosmo_calcen: 0.5 (esolb+esolc) (Hartrees) =   -0.064921

 Solvation energy (screening term,uncorrected) =    -40.738561 kcal/mol

 Solvation energy (dispersion and cavitation terms) =      0.940289 kcal/mol
 Solvation Energy Contributions (Hartrees)
          esola   esolb+esolc
     0.06492102   -0.12984204
 esol last cycle   -0.06492102
  
 Hartree-Fock exchange energy:   -509.181393074959     
 cosmo_calcen: 0.5 (esolb+esolc) (Hartrees) =   -0.064921

 Solvation energy (screening term,uncorrected) =    -40.738560 kcal/mol

 Solvation energy (dispersion and cavitation terms) =      0.940289 kcal/mol
 Solvation Energy Contributions (Hartrees)
          esola   esolb+esolc
     0.06492102   -0.12984204
 esol last cycle   -0.06492102

 Energy gradients wrt nuclear displacements
 ==========================================

     Atom      Cartesian (a.u./angstrom)
                 X         Y         Z
 ----------------------------------------
     1 Pa    0.000468  0.000132  0.002086
     2 O    -0.000558  0.000287  0.000145
     3 O    -0.000617  0.000468 -0.000969
     4 O    -0.000580 -0.000887 -0.003300
     5 H    -0.000218  0.000016  0.000070
     6 O     0.000256  0.000830  0.000758
     7 H    -0.000035  0.000037 -0.000038
     8 H    -0.000033  0.000058  0.000018
     9 H     0.000045  0.000040 -0.000041
    10 O     0.000433 -0.000926  0.000283
    11 H     0.000839 -0.000056  0.000988
 ----------------------------------------
 Mulliken charges used for AMS results%charges...

 dE(predicted):    -0.21327E-03, dE(actual):    -0.33091E-03, Trust radius:    0.800000, all in a.u.
 
----------------------------------------------------------------------
Geometry Convergence after Step   6       (Hartree/Angstrom,Angstrom)
----------------------------------------------------------------------
current energy                               -3.02241301 Hartree
energy change                      -0.00033091     0.00001100    F
constrained gradient max            0.00331311     0.00010000    F
constrained gradient rms            0.00083011     0.00006667    F
gradient max                        0.00331311
gradient rms                        0.00083011
cart. step max                      0.03843932     0.00100000    F
cart. step rms                      0.01071183     0.00066667    F
 
 
--------
Geometry
--------
Formula: H5O5Pa
Atoms
  Index Symbol   x (angstrom)   y (angstrom)   z (angstrom)
      1     Pa    -0.14655857     0.13048541     0.82161697       adf.R=2.200
      2      O     1.19453765     1.46146185    -0.23896839       adf.R=1.517
      3      O    -1.75565314     0.88024318    -0.35789972       adf.R=1.517
      4      O    -0.60186126     1.44651953     2.51413544       adf.R=1.517
      5      H    -1.88820143     1.67080448    -0.89646999       adf.R=1.350
      6      O     0.03424138    -1.65701261    -0.97860481       adf.R=1.517
      7      H    -0.39925733    -1.63928399    -1.84165976       adf.R=1.350
      8      H     0.72235989    -2.33325302    -1.02181300       adf.R=1.350
      9      H     2.15069255     1.51795607    -0.13116458       adf.R=1.350
     10      O     1.17687119    -0.84642683     1.73262677       adf.R=1.517
     11      H    -1.22962850     2.17609307     2.54777332       adf.R=1.350
 
Total System Charge             0.00000
Bonding info available!
 
 *** GO1_GOStep7 ***

 SOLVATION
-------------------------------------------

  The Delley construction of COSMO surface surface is calculated

       Division Level for Surface Triangles (NDIV)                  3
       Final Division Level for Triangles (NFDIV)                   1
       Radius of the Solvent (RSOL)                           1.93000 angstr
  Dielectric Constant (EPSL)                                 78.39000

       COSMO equation is solved iteratively-               conjugate-gradient

       Maximun of Iterations for Charges (NCIX)                  1000
       Criterion for Charge convergence (CCNV)                1.0E-08

  COSMO charges included variationally in SCF

       COSMO included at every SCF cycle

  Geometry-dependent empirical factor                         0.00000

  C-Matrix calculated in cspmtx

  In cspmtx, C-Matrix calculated using fitted potential

-------------------------------------------



 -------------------------------------------
  COSMO surface
  Area             =          503.060
  Volume           =          805.557
  Number of Points =         1287
 -------------------------------------------



 ======================
 RI Hartree-Fock Scheme
 ======================
  
 Fit Set Quality     : GOOD
 Threshold Quality   : GOOD
 Integration Quality : GOOD
 Response Quality    : DEFAULT
 Is Range Separated  :  F
 
 RIHartreeFock Dependency: number of modified vectors:           5
 cosmo_calcen: 0.5 (esolb+esolc) (Hartrees) =   -0.065128

 Solvation energy (screening term,uncorrected) =    -40.868339 kcal/mol

 Solvation energy (dispersion and cavitation terms) =      0.940683 kcal/mol
 Solvation Energy Contributions (Hartrees)
          esola   esolb+esolc
     0.06512784   -0.13025567
 esol last cycle   -0.06512784
  
 Hartree-Fock exchange energy:   -509.180885128619     
 cosmo_calcen: 0.5 (esolb+esolc) (Hartrees) =   -0.065128

 Solvation energy (screening term,uncorrected) =    -40.868335 kcal/mol

 Solvation energy (dispersion and cavitation terms) =      0.940683 kcal/mol
 Solvation Energy Contributions (Hartrees)
          esola   esolb+esolc
     0.06512783   -0.13025566
 esol last cycle   -0.06512783

 Energy gradients wrt nuclear displacements
 ==========================================

     Atom      Cartesian (a.u./angstrom)
                 X         Y         Z
 ----------------------------------------
     1 Pa    0.001163 -0.001658  0.000428
     2 O     0.000077  0.000042  0.000124
     3 O    -0.000754  0.000344 -0.000761
     4 O    -0.001516  0.001281 -0.001228
     5 H    -0.000169  0.000037  0.000108
     6 O     0.000213  0.000651  0.000439
     7 H    -0.000015  0.000058 -0.000015
     8 H    -0.000012  0.000054  0.000067
     9 H     0.000016  0.000075 -0.000056
    10 O     0.000067 -0.000399 -0.000235
    11 H     0.000930 -0.000486  0.001130
 ----------------------------------------
 Mulliken charges used for AMS results%charges...

 dE(predicted):    -0.37235E-04, dE(actual):    -0.63674E-04, Trust radius:    0.800000, all in a.u.
 
----------------------------------------------------------------------
Geometry Convergence after Step   7       (Hartree/Angstrom,Angstrom)
----------------------------------------------------------------------
current energy                               -3.02247668 Hartree
energy change                      -0.00006367     0.00001100    F
constrained gradient max            0.00164795     0.00010000    F
constrained gradient rms            0.00065883     0.00006667    F
gradient max                        0.00164795
gradient rms                        0.00065883
cart. step max                      0.02133548     0.00100000    F
cart. step rms                      0.00710515     0.00066667    F
 
 
--------
Geometry
--------
Formula: H5O5Pa
Atoms
  Index Symbol   x (angstrom)   y (angstrom)   z (angstrom)
      1     Pa    -0.13994090     0.13450873     0.81936632       adf.R=2.200
      2      O     1.20181477     1.46342248    -0.24237958       adf.R=1.517
      3      O    -1.75018865     0.88547508    -0.35465029       adf.R=1.517
      4      O    -0.60421806     1.44504509     2.52123852       adf.R=1.517
      5      H    -1.88058040     1.67518375    -0.89511293       adf.R=1.350
      6      O     0.02851061    -1.65955988    -0.97643041       adf.R=1.517
      7      H    -0.40829872    -1.64290661    -1.83783090       adf.R=1.350
      8      H     0.71553684    -2.33686518    -1.02121955       adf.R=1.350
      9      H     2.15788866     1.51926473    -0.13371094       adf.R=1.350
     10      O     1.18798227    -0.83509628     1.72952610       adf.R=1.517
     11      H    -1.25096398     2.15911522     2.54077592       adf.R=1.350
 
Total System Charge             0.00000
Bonding info available!
 
 *** GO1_GOStep8 ***

 SOLVATION
-------------------------------------------

  The Delley construction of COSMO surface surface is calculated

       Division Level for Surface Triangles (NDIV)                  3
       Final Division Level for Triangles (NFDIV)                   1
       Radius of the Solvent (RSOL)                           1.93000 angstr
  Dielectric Constant (EPSL)                                 78.39000

       COSMO equation is solved iteratively-               conjugate-gradient

       Maximun of Iterations for Charges (NCIX)                  1000
       Criterion for Charge convergence (CCNV)                1.0E-08

  COSMO charges included variationally in SCF

       COSMO included at every SCF cycle

  Geometry-dependent empirical factor                         0.00000

  C-Matrix calculated in cspmtx

  In cspmtx, C-Matrix calculated using fitted potential

-------------------------------------------



 -------------------------------------------
  COSMO surface
  Area             =          503.803
  Volume           =          806.464
  Number of Points =         1286
 -------------------------------------------



 ======================
 RI Hartree-Fock Scheme
 ======================
  
 Fit Set Quality     : GOOD
 Threshold Quality   : GOOD
 Integration Quality : GOOD
 Response Quality    : DEFAULT
 Is Range Separated  :  F
 
 RIHartreeFock Dependency: number of modified vectors:           5
 cosmo_calcen: 0.5 (esolb+esolc) (Hartrees) =   -0.065385

 Solvation energy (screening term,uncorrected) =    -41.029414 kcal/mol

 Solvation energy (dispersion and cavitation terms) =      0.942072 kcal/mol
 Solvation Energy Contributions (Hartrees)
          esola   esolb+esolc
     0.06538453   -0.13076905
 esol last cycle   -0.06538453
  
 Hartree-Fock exchange energy:   -509.180659184644     
 cosmo_calcen: 0.5 (esolb+esolc) (Hartrees) =   -0.065385

 Solvation energy (screening term,uncorrected) =    -41.029412 kcal/mol

 Solvation energy (dispersion and cavitation terms) =      0.942072 kcal/mol
 Solvation Energy Contributions (Hartrees)
          esola   esolb+esolc
     0.06538452   -0.13076904
 esol last cycle   -0.06538452

 Energy gradients wrt nuclear displacements
 ==========================================

     Atom      Cartesian (a.u./angstrom)
                 X         Y         Z
 ----------------------------------------
     1 Pa    0.001407 -0.002423 -0.000993
     2 O     0.000243 -0.000202  0.000234
     3 O    -0.000452  0.000096 -0.000457
     4 O    -0.001310  0.001684  0.000391
     5 H    -0.000122  0.000065  0.000138
     6 O     0.000089  0.000580  0.000284
     7 H     0.000019  0.000044 -0.000019
     8 H     0.000011  0.000030  0.000060
     9 H    -0.000016  0.000078 -0.000071
    10 O    -0.000196  0.000041 -0.000538
    11 H     0.000328  0.000006  0.000972
 ----------------------------------------
 Mulliken charges used for AMS results%charges...

 dE(predicted):    -0.18610E-04, dE(actual):    -0.31661E-04, Trust radius:    0.800000, all in a.u.
 
----------------------------------------------------------------------
Geometry Convergence after Step   8       (Hartree/Angstrom,Angstrom)
----------------------------------------------------------------------
current energy                               -3.02250835 Hartree
energy change                      -0.00003166     0.00001100    F
constrained gradient max            0.00241088     0.00010000    F
constrained gradient rms            0.00069548     0.00006667    F
gradient max                        0.00241088
gradient rms                        0.00069548
cart. step max                      0.01363406     0.00100000    F
cart. step rms                      0.00554620     0.00066667    F
 
 
--------
Geometry
--------
Formula: H5O5Pa
Atoms
  Index Symbol   x (angstrom)   y (angstrom)   z (angstrom)
      1     Pa    -0.13542383     0.13720567     0.81775142       adf.R=2.200
      2      O     1.20428855     1.46770399    -0.24404865       adf.R=1.517
      3      O    -1.74505542     0.89075735    -0.35257293       adf.R=1.517
      4      O    -0.60536951     1.43950517     2.52751706       adf.R=1.517
      5      H    -1.87212714     1.67929670    -0.89561509       adf.R=1.350
      6      O     0.02346893    -1.66271718    -0.97419648       adf.R=1.517
      7      H    -0.41612864    -1.64709168    -1.83420422       adf.R=1.350
      8      H     0.71009344    -2.34037075    -1.02069846       adf.R=1.350
      9      H     2.16020140     1.52434778    -0.13433066       adf.R=1.350
     10      O     1.19562938    -0.82653108     1.72878534       adf.R=1.517
     11      H    -1.26203472     2.14548116     2.53118493       adf.R=1.350
 
Total System Charge             0.00000
Bonding info available!
 
 *** GO1_GOStep9 ***

 SOLVATION
-------------------------------------------

  The Delley construction of COSMO surface surface is calculated

       Division Level for Surface Triangles (NDIV)                  3
       Final Division Level for Triangles (NFDIV)                   1
       Radius of the Solvent (RSOL)                           1.93000 angstr
  Dielectric Constant (EPSL)                                 78.39000

       COSMO equation is solved iteratively-               conjugate-gradient

       Maximun of Iterations for Charges (NCIX)                  1000
       Criterion for Charge convergence (CCNV)                1.0E-08

  COSMO charges included variationally in SCF

       COSMO included at every SCF cycle

  Geometry-dependent empirical factor                         0.00000

  C-Matrix calculated in cspmtx

  In cspmtx, C-Matrix calculated using fitted potential

-------------------------------------------



 -------------------------------------------
  COSMO surface
  Area             =          503.314
  Volume           =          805.428
  Number of Points =         1284
 -------------------------------------------



 ======================
 RI Hartree-Fock Scheme
 ======================
  
 Fit Set Quality     : GOOD
 Threshold Quality   : GOOD
 Integration Quality : GOOD
 Response Quality    : DEFAULT
 Is Range Separated  :  F
 
 RIHartreeFock Dependency: number of modified vectors:           5
 cosmo_calcen: 0.5 (esolb+esolc) (Hartrees) =   -0.065586

 Solvation energy (screening term,uncorrected) =    -41.155681 kcal/mol

 Solvation energy (dispersion and cavitation terms) =      0.941158 kcal/mol
 Solvation Energy Contributions (Hartrees)
          esola   esolb+esolc
     0.06558575   -0.13117149
 esol last cycle   -0.06558575
  
 Hartree-Fock exchange energy:   -509.180867329461     
 cosmo_calcen: 0.5 (esolb+esolc) (Hartrees) =   -0.065586

 Solvation energy (screening term,uncorrected) =    -41.155680 kcal/mol

 Solvation energy (dispersion and cavitation terms) =      0.941158 kcal/mol
 Solvation Energy Contributions (Hartrees)
          esola   esolb+esolc
     0.06558574   -0.13117149
 esol last cycle   -0.06558574

 Energy gradients wrt nuclear displacements
 ==========================================

     Atom      Cartesian (a.u./angstrom)
                 X         Y         Z
 ----------------------------------------
     1 Pa    0.001118 -0.002048 -0.001662
     2 O     0.000133 -0.000358  0.000325
     3 O     0.000010 -0.000169 -0.000171
     4 O    -0.000711  0.001195  0.001150
     5 H    -0.000082  0.000081  0.000145
     6 O    -0.000028  0.000540  0.000226
     7 H     0.000053  0.000010 -0.000038
     8 H     0.000029  0.000003  0.000021
     9 H    -0.000037  0.000051 -0.000080
    10 O    -0.000283  0.000271 -0.000527
    11 H    -0.000201  0.000425  0.000611
 ----------------------------------------
 Mulliken charges used for AMS results%charges...

 dE(predicted):    -0.11845E-04, dE(actual):    -0.15506E-04, Trust radius:    0.800000, all in a.u.
 
----------------------------------------------------------------------
Geometry Convergence after Step   9       (Hartree/Angstrom,Angstrom)
----------------------------------------------------------------------
current energy                               -3.02252385 Hartree
energy change                      -0.00001551     0.00001100    F
constrained gradient max            0.00203588     0.00010000    F
constrained gradient rms            0.00063171     0.00006667    F
gradient max                        0.00203588
gradient rms                        0.00063171
cart. step max                      0.01389225     0.00100000    F
cart. step rms                      0.00528279     0.00066667    F
 
 
--------
Geometry
--------
Formula: H5O5Pa
Atoms
  Index Symbol   x (angstrom)   y (angstrom)   z (angstrom)
      1     Pa    -0.13192230     0.13988949     0.81623409       adf.R=2.200
      2      O     1.20468849     1.47362777    -0.24551005       adf.R=1.517
      3      O    -1.74041516     0.89712612    -0.35117722       adf.R=1.517
      4      O    -0.60461540     1.43225531     2.53168834       adf.R=1.517
      5      H    -1.86313303     1.68349598    -0.89840956       adf.R=1.350
      6      O     0.01870944    -1.66658359    -0.97163110       adf.R=1.517
      7      H    -0.42346328    -1.65214607    -1.83034828       adf.R=1.350
      8      H     0.70528972    -2.34420347    -1.01975893       adf.R=1.350
      9      H     2.16032719     1.53207973    -0.13407117       adf.R=1.350
     10      O     1.20084378    -0.81954307     1.72966992       adf.R=1.517
     11      H    -1.26876700     2.13158892     2.52288622       adf.R=1.350
 
Total System Charge             0.00000
Bonding info available!
 
 *** GO1_GOStep10 ***

 SOLVATION
-------------------------------------------

  The Delley construction of COSMO surface surface is calculated

       Division Level for Surface Triangles (NDIV)                  3
       Final Division Level for Triangles (NFDIV)                   1
       Radius of the Solvent (RSOL)                           1.93000 angstr
  Dielectric Constant (EPSL)                                 78.39000

       COSMO equation is solved iteratively-               conjugate-gradient

       Maximun of Iterations for Charges (NCIX)                  1000
       Criterion for Charge convergence (CCNV)                1.0E-08

  COSMO charges included variationally in SCF

       COSMO included at every SCF cycle

  Geometry-dependent empirical factor                         0.00000

  C-Matrix calculated in cspmtx

  In cspmtx, C-Matrix calculated using fitted potential

-------------------------------------------



 -------------------------------------------
  COSMO surface
  Area             =          504.258
  Volume           =          807.094
  Number of Points =         1285
 -------------------------------------------



 ======================
 RI Hartree-Fock Scheme
 ======================
  
 Fit Set Quality     : GOOD
 Threshold Quality   : GOOD
 Integration Quality : GOOD
 Response Quality    : DEFAULT
 Is Range Separated  :  F
 
 RIHartreeFock Dependency: number of modified vectors:           5
 cosmo_calcen: 0.5 (esolb+esolc) (Hartrees) =   -0.065723

 Solvation energy (screening term,uncorrected) =    -41.242113 kcal/mol

 Solvation energy (dispersion and cavitation terms) =      0.942924 kcal/mol
 Solvation Energy Contributions (Hartrees)
          esola   esolb+esolc
     0.06572348   -0.13144697
 esol last cycle   -0.06572348
  
 Hartree-Fock exchange energy:   -509.181377038651     
 cosmo_calcen: 0.5 (esolb+esolc) (Hartrees) =   -0.065723

 Solvation energy (screening term,uncorrected) =    -41.242112 kcal/mol

 Solvation energy (dispersion and cavitation terms) =      0.942924 kcal/mol
 Solvation Energy Contributions (Hartrees)
          esola   esolb+esolc
     0.06572348   -0.13144696
 esol last cycle   -0.06572348

 Energy gradients wrt nuclear displacements
 ==========================================

     Atom      Cartesian (a.u./angstrom)
                 X         Y         Z
 ----------------------------------------
     1 Pa    0.000342 -0.000835 -0.001524
     2 O    -0.000115 -0.000377  0.000338
     3 O     0.000484 -0.000360  0.000055
     4 O    -0.000008  0.000271  0.001009
     5 H    -0.000054  0.000087  0.000139
     6 O    -0.000039  0.000485  0.000125
     7 H     0.000012 -0.000044  0.000003
     8 H     0.000030 -0.000013 -0.000024
     9 H    -0.000017  0.000015 -0.000066
    10 O    -0.000192  0.000286 -0.000230
    11 H    -0.000442  0.000485  0.000175
 ----------------------------------------
 Mulliken charges used for AMS results%charges...

 dE(predicted):    -0.96618E-05, dE(actual):    -0.10040E-04, Trust radius:    0.800000, all in a.u.
 
----------------------------------------------------------------------
Geometry Convergence after Step  10       (Hartree/Angstrom,Angstrom)
----------------------------------------------------------------------
current energy                               -3.02253389 Hartree
energy change                      -0.00001004     0.00001100    T
constrained gradient max            0.00152125     0.00010000    F
constrained gradient rms            0.00041811     0.00006667    F
gradient max                        0.00152125
gradient rms                        0.00041811
cart. step max                      0.00468686     0.00100000    F
cart. step rms                      0.00182722     0.00066667    F
 
 
--------
Geometry
--------
Formula: H5O5Pa
Atoms
  Index Symbol   x (angstrom)   y (angstrom)   z (angstrom)
      1     Pa    -0.13136037     0.14082868     0.81587090       adf.R=2.200
      2      O     1.20386289     1.47640945    -0.24605545       adf.R=1.517
      3      O    -1.73987240     0.90009193    -0.35033423       adf.R=1.517
      4      O    -0.60268671     1.42949358     2.53142568       adf.R=1.517
      5      H    -1.86027417     1.68444712    -0.90096350       adf.R=1.350
      6      O     0.01704614    -1.66858540    -0.97047821       adf.R=1.517
      7      H    -0.42464779    -1.65368024    -1.82945810       adf.R=1.350
      8      H     0.70397167    -2.34581482    -1.01905409       adf.R=1.350
      9      H     2.15927875     1.53618711    -0.13324944       adf.R=1.350
     10      O     1.20090177    -0.81869234     1.73078365       adf.R=1.517
     11      H    -1.26867735     2.12690206     2.52108503       adf.R=1.350
 
Total System Charge             0.00000
Bonding info available!
 
 *** GO1_GOStep11 ***

 SOLVATION
-------------------------------------------

  The Delley construction of COSMO surface surface is calculated

       Division Level for Surface Triangles (NDIV)                  3
       Final Division Level for Triangles (NFDIV)                   1
       Radius of the Solvent (RSOL)                           1.93000 angstr
  Dielectric Constant (EPSL)                                 78.39000

       COSMO equation is solved iteratively-               conjugate-gradient

       Maximun of Iterations for Charges (NCIX)                  1000
       Criterion for Charge convergence (CCNV)                1.0E-08

  COSMO charges included variationally in SCF

       COSMO included at every SCF cycle

  Geometry-dependent empirical factor                         0.00000

  C-Matrix calculated in cspmtx

  In cspmtx, C-Matrix calculated using fitted potential

-------------------------------------------



 -------------------------------------------
  COSMO surface
  Area             =          504.262
  Volume           =          807.036
  Number of Points =         1287
 -------------------------------------------



 ======================
 RI Hartree-Fock Scheme
 ======================
  
 Fit Set Quality     : GOOD
 Threshold Quality   : GOOD
 Integration Quality : GOOD
 Response Quality    : DEFAULT
 Is Range Separated  :  F
 
 RIHartreeFock Dependency: number of modified vectors:           5
 cosmo_calcen: 0.5 (esolb+esolc) (Hartrees) =   -0.065715

 Solvation energy (screening term,uncorrected) =    -41.236686 kcal/mol

 Solvation energy (dispersion and cavitation terms) =      0.942931 kcal/mol
 Solvation Energy Contributions (Hartrees)
          esola   esolb+esolc
     0.06571484   -0.13142967
 esol last cycle   -0.06571484
  
 Hartree-Fock exchange energy:   -509.181654906512     
 cosmo_calcen: 0.5 (esolb+esolc) (Hartrees) =   -0.065715

 Solvation energy (screening term,uncorrected) =    -41.236684 kcal/mol

 Solvation energy (dispersion and cavitation terms) =      0.942931 kcal/mol
 Solvation Energy Contributions (Hartrees)
          esola   esolb+esolc
     0.06571483   -0.13142966
 esol last cycle   -0.06571483

 Energy gradients wrt nuclear displacements
 ==========================================

     Atom      Cartesian (a.u./angstrom)
                 X         Y         Z
 ----------------------------------------
     1 Pa   -0.000169  0.000010 -0.000889
     2 O    -0.000195 -0.000248  0.000259
     3 O     0.000540 -0.000321  0.000073
     4 O     0.000176 -0.000185  0.000341
     5 H    -0.000053  0.000082  0.000113
     6 O    -0.000011  0.000401  0.000152
     7 H     0.000014 -0.000054 -0.000025
     8 H     0.000002 -0.000007 -0.000058
     9 H    -0.000008 -0.000001 -0.000045
    10 O    -0.000040  0.000127  0.000044
    11 H    -0.000256  0.000194  0.000036
 ----------------------------------------
 Mulliken charges used for AMS results%charges...

 dE(predicted):    -0.33761E-05, dE(actual):    -0.45421E-05, Trust radius:    0.800000, all in a.u.
 
----------------------------------------------------------------------
Geometry Convergence after Step  11       (Hartree/Angstrom,Angstrom)
----------------------------------------------------------------------
current energy                               -3.02253843 Hartree
energy change                      -0.00000454     0.00001100    T
constrained gradient max            0.00088661     0.00010000    F
constrained gradient rms            0.00023916     0.00006667    F
gradient max                        0.00088661
gradient rms                        0.00023916
cart. step max                      0.00196608     0.00100000    F
cart. step rms                      0.00090771     0.00066667    F
 
 
--------
Geometry
--------
Formula: H5O5Pa
Atoms
  Index Symbol   x (angstrom)   y (angstrom)   z (angstrom)
      1     Pa    -0.13166024     0.14069979     0.81616177       adf.R=2.200
      2      O     1.20323796     1.47717840    -0.24582072       adf.R=1.517
      3      O    -1.74107065     0.90087057    -0.34904374       adf.R=1.517
      4      O    -0.60122165     1.42944043     2.53031957       adf.R=1.517
      5      H    -1.86028595     1.68346645    -0.90241084       adf.R=1.350
      6      O     0.01663794    -1.66944448    -0.97025317       adf.R=1.517
      7      H    -0.42389007    -1.65335869    -1.82982033       adf.R=1.350
      8      H     0.70417402    -2.34602284    -1.01916436       adf.R=1.350
      9      H     2.15846072     1.53789658    -0.13175970       adf.R=1.350
     10      O     1.19987163    -0.82022956     1.73112342       adf.R=1.517
     11      H    -1.26671127     2.12709046     2.52024036       adf.R=1.350
 
Total System Charge             0.00000
Bonding info available!
 
 *** GO1_GOStep12 ***

 SOLVATION
-------------------------------------------

  The Delley construction of COSMO surface surface is calculated

       Division Level for Surface Triangles (NDIV)                  3
       Final Division Level for Triangles (NFDIV)                   1
       Radius of the Solvent (RSOL)                           1.93000 angstr
  Dielectric Constant (EPSL)                                 78.39000

       COSMO equation is solved iteratively-               conjugate-gradient

       Maximun of Iterations for Charges (NCIX)                  1000
       Criterion for Charge convergence (CCNV)                1.0E-08

  COSMO charges included variationally in SCF

       COSMO included at every SCF cycle

  Geometry-dependent empirical factor                         0.00000

  C-Matrix calculated in cspmtx

  In cspmtx, C-Matrix calculated using fitted potential

-------------------------------------------



 -------------------------------------------
  COSMO surface
  Area             =          504.225
  Volume           =          807.013
  Number of Points =         1287
 -------------------------------------------



 ======================
 RI Hartree-Fock Scheme
 ======================
  
 Fit Set Quality     : GOOD
 Threshold Quality   : GOOD
 Integration Quality : GOOD
 Response Quality    : DEFAULT
 Is Range Separated  :  F
 
 RIHartreeFock Dependency: number of modified vectors:           5
 cosmo_calcen: 0.5 (esolb+esolc) (Hartrees) =   -0.065674

 Solvation energy (screening term,uncorrected) =    -41.210811 kcal/mol

 Solvation energy (dispersion and cavitation terms) =      0.942862 kcal/mol
 Solvation Energy Contributions (Hartrees)
          esola   esolb+esolc
     0.06567360   -0.13134720
 esol last cycle   -0.06567360
  
 Hartree-Fock exchange energy:   -509.181644446671     
 cosmo_calcen: 0.5 (esolb+esolc) (Hartrees) =   -0.065674

 Solvation energy (screening term,uncorrected) =    -41.210808 kcal/mol

 Solvation energy (dispersion and cavitation terms) =      0.942862 kcal/mol
 Solvation Energy Contributions (Hartrees)
          esola   esolb+esolc
     0.06567360   -0.13134719
 esol last cycle   -0.06567360

 Energy gradients wrt nuclear displacements
 ==========================================

     Atom      Cartesian (a.u./angstrom)
                 X         Y         Z
 ----------------------------------------
     1 Pa   -0.000330  0.000271 -0.000389
     2 O    -0.000153 -0.000098  0.000164
     3 O     0.000396 -0.000202  0.000018
     4 O     0.000083 -0.000232 -0.000080
     5 H    -0.000058  0.000067  0.000092
     6 O     0.000027  0.000321  0.000149
     7 H     0.000007 -0.000041 -0.000028
     8 H    -0.000010 -0.000005 -0.000064
     9 H     0.000005  0.000001 -0.000020
    10 O     0.000061 -0.000016  0.000152
    11 H    -0.000027 -0.000067  0.000007
 ----------------------------------------
 Mulliken charges used for AMS results%charges...
 
----------------------------------------------------------------------
Geometry Convergence after Step  12       (Hartree/Angstrom,Angstrom)
----------------------------------------------------------------------
current energy                               -3.02253865 Hartree
energy change                      -0.00000022     0.00001100    T
constrained gradient max            0.00039477     0.00010000    F
constrained gradient rms            0.00015791     0.00006667    F
gradient max                        0.00039477
gradient rms                        0.00015791
cart. step max                      0.00197043     0.00100000    F
cart. step rms                      0.00102847     0.00066667    F
 
 
--------
Geometry
--------
Formula: H5O5Pa
Atoms
  Index Symbol   x (angstrom)   y (angstrom)   z (angstrom)
      1     Pa    -0.13202537     0.14034144     0.81675094       adf.R=2.200
      2      O     1.20298080     1.47708929    -0.24549624       adf.R=1.517
      3      O    -1.74282979     0.90109469    -0.34707331       adf.R=1.517
      4      O    -0.59988701     1.43051671     2.52954098       adf.R=1.517
      5      H    -1.86080498     1.68152545    -0.90373875       adf.R=1.350
      6      O     0.01621949    -1.67003008    -0.97022293       adf.R=1.517
      7      H    -0.42270719    -1.65215532    -1.83058057       adf.R=1.350
      8      H     0.70466205    -2.34564147    -1.01967821       adf.R=1.350
      9      H     2.15799219     1.53861323    -0.13003674       adf.R=1.350
     10      O     1.19901925    -0.82206747     1.73095374       adf.R=1.517
     11      H    -1.26507699     2.12830065     2.51915334       adf.R=1.350
 
Total System Charge             0.00000
Bonding info available!
 
 *** GO1_GOStep13 ***

 SOLVATION
-------------------------------------------

  The Delley construction of COSMO surface surface is calculated

       Division Level for Surface Triangles (NDIV)                  3
       Final Division Level for Triangles (NFDIV)                   1
       Radius of the Solvent (RSOL)                           1.93000 angstr
  Dielectric Constant (EPSL)                                 78.39000

       COSMO equation is solved iteratively-               conjugate-gradient

       Maximun of Iterations for Charges (NCIX)                  1000
       Criterion for Charge convergence (CCNV)                1.0E-08

  COSMO charges included variationally in SCF

       COSMO included at every SCF cycle

  Geometry-dependent empirical factor                         0.00000

  C-Matrix calculated in cspmtx

  In cspmtx, C-Matrix calculated using fitted potential

-------------------------------------------



 -------------------------------------------
  COSMO surface
  Area             =          504.127
  Volume           =          806.999
  Number of Points =         1285
 -------------------------------------------



 ======================
 RI Hartree-Fock Scheme
 ======================
  
 Fit Set Quality     : GOOD
 Threshold Quality   : GOOD
 Integration Quality : GOOD
 Response Quality    : DEFAULT
 Is Range Separated  :  F
 
 RIHartreeFock Dependency: number of modified vectors:           5
 cosmo_calcen: 0.5 (esolb+esolc) (Hartrees) =   -0.065636

 Solvation energy (screening term,uncorrected) =    -41.187229 kcal/mol

 Solvation energy (dispersion and cavitation terms) =      0.942678 kcal/mol
 Solvation Energy Contributions (Hartrees)
          esola   esolb+esolc
     0.06563602   -0.13127204
 esol last cycle   -0.06563602
  
 Hartree-Fock exchange energy:   -509.181484301718     
 cosmo_calcen: 0.5 (esolb+esolc) (Hartrees) =   -0.065636

 Solvation energy (screening term,uncorrected) =    -41.187227 kcal/mol

 Solvation energy (dispersion and cavitation terms) =      0.942678 kcal/mol
 Solvation Energy Contributions (Hartrees)
          esola   esolb+esolc
     0.06563602   -0.13127203
 esol last cycle   -0.06563602

 Energy gradients wrt nuclear displacements
 ==========================================

     Atom      Cartesian (a.u./angstrom)
                 X         Y         Z
 ----------------------------------------
     1 Pa   -0.000312  0.000225 -0.000026
     2 O    -0.000042  0.000045  0.000068
     3 O     0.000185 -0.000066 -0.000049
     4 O    -0.000035 -0.000144 -0.000260
     5 H    -0.000061  0.000049  0.000072
     6 O     0.000001  0.000203  0.000182
     7 H     0.000064  0.000005 -0.000084
     8 H    -0.000017 -0.000003 -0.000060
     9 H     0.000010  0.000009  0.000009
    10 O     0.000101 -0.000105  0.000151
    11 H     0.000108 -0.000218 -0.000004
 ----------------------------------------
 Mulliken charges used for AMS results%charges...

 dE(predicted):    -0.75887E-06, dE(actual):     0.15857E-05, Trust radius:    0.020000, all in a.u.
 
----------------------------------------------------------------------
Geometry Convergence after Step  13       (Hartree/Angstrom,Angstrom)
----------------------------------------------------------------------
current energy                               -3.02253707 Hartree
energy change                       0.00000159     0.00001100    T
constrained gradient max            0.00030568     0.00010000    F
constrained gradient rms            0.00011961     0.00006667    F
gradient max                        0.00030568
gradient rms                        0.00011961
cart. step max                      0.00198664     0.00100000    F
cart. step rms                      0.00077904     0.00066667    F
 
 
--------
Geometry
--------
Formula: H5O5Pa
Atoms
  Index Symbol   x (angstrom)   y (angstrom)   z (angstrom)
      1     Pa    -0.13199929     0.14020424     0.81731903       adf.R=2.200
      2      O     1.20325005     1.47673653    -0.24529891       adf.R=1.517
      3      O    -1.74391929     0.90123999    -0.34533032       adf.R=1.517
      4      O    -0.59916115     1.43168662     2.52960946       adf.R=1.517
      5      H    -1.86049560     1.67953881    -0.90526690       adf.R=1.350
      6      O     0.01570763    -1.67027705    -0.97026425       adf.R=1.517
      7      H    -0.42313478    -1.65149174    -1.83063079       adf.R=1.350
      8      H     0.70516057    -2.34478794    -1.02069269       adf.R=1.350
      9      H     2.15808033     1.53880575    -0.12861584       adf.R=1.350
     10      O     1.19910616    -0.82286366     1.73048220       adf.R=1.517
     11      H    -1.26505220     2.12879559     2.51826128       adf.R=1.350
 
Total System Charge             0.00000
Bonding info available!
 
 *** GO1_GOStep14 ***

 SOLVATION
-------------------------------------------

  The Delley construction of COSMO surface surface is calculated

       Division Level for Surface Triangles (NDIV)                  3
       Final Division Level for Triangles (NFDIV)                   1
       Radius of the Solvent (RSOL)                           1.93000 angstr
  Dielectric Constant (EPSL)                                 78.39000

       COSMO equation is solved iteratively-               conjugate-gradient

       Maximun of Iterations for Charges (NCIX)                  1000
       Criterion for Charge convergence (CCNV)                1.0E-08

  COSMO charges included variationally in SCF

       COSMO included at every SCF cycle

  Geometry-dependent empirical factor                         0.00000

  C-Matrix calculated in cspmtx

  In cspmtx, C-Matrix calculated using fitted potential

-------------------------------------------



 -------------------------------------------
  COSMO surface
  Area             =          504.298
  Volume           =          807.273
  Number of Points =         1286
 -------------------------------------------



 ======================
 RI Hartree-Fock Scheme
 ======================
  
 Fit Set Quality     : GOOD
 Threshold Quality   : GOOD
 Integration Quality : GOOD
 Response Quality    : DEFAULT
 Is Range Separated  :  F
 
 RIHartreeFock Dependency: number of modified vectors:           5
 cosmo_calcen: 0.5 (esolb+esolc) (Hartrees) =   -0.065624

 Solvation energy (screening term,uncorrected) =    -41.179548 kcal/mol

 Solvation energy (dispersion and cavitation terms) =      0.942998 kcal/mol
 Solvation Energy Contributions (Hartrees)
          esola   esolb+esolc
     0.06562378   -0.13124756
 esol last cycle   -0.06562378
  
 Hartree-Fock exchange energy:   -509.181307154478     
 cosmo_calcen: 0.5 (esolb+esolc) (Hartrees) =   -0.065624

 Solvation energy (screening term,uncorrected) =    -41.179545 kcal/mol

 Solvation energy (dispersion and cavitation terms) =      0.942998 kcal/mol
 Solvation Energy Contributions (Hartrees)
          esola   esolb+esolc
     0.06562378   -0.13124755
 esol last cycle   -0.06562378

 Energy gradients wrt nuclear displacements
 ==========================================

     Atom      Cartesian (a.u./angstrom)
                 X         Y         Z
 ----------------------------------------
     1 Pa   -0.000166  0.000023  0.000137
     2 O     0.000057  0.000118  0.000008
     3 O     0.000030  0.000019 -0.000086
     4 O    -0.000083 -0.000036 -0.000200
     5 H    -0.000061  0.000039  0.000054
     6 O     0.000005  0.000114  0.000092
     7 H    -0.000007  0.000011  0.000001
     8 H     0.000061  0.000019 -0.000091
     9 H     0.000009  0.000017  0.000033
    10 O     0.000058 -0.000105  0.000064
    11 H     0.000097 -0.000220 -0.000013
 ----------------------------------------
 Mulliken charges used for AMS results%charges...
 
----------------------------------------------------------------------
Geometry Convergence after Step  14       (Hartree/Angstrom,Angstrom)
----------------------------------------------------------------------
current energy                               -3.02253657 Hartree
energy change                       0.00000050     0.00001100    T
constrained gradient max            0.00021668     0.00010000    F
constrained gradient rms            0.00008204     0.00006667    F
gradient max                        0.00021668
gradient rms                        0.00008204
cart. step max                      0.00251576     0.00100000    F
cart. step rms                      0.00091632     0.00066667    F
 
 
--------
Geometry
--------
Formula: H5O5Pa
Atoms
  Index Symbol   x (angstrom)   y (angstrom)   z (angstrom)
      1     Pa    -0.13236914     0.14000617     0.81803150       adf.R=2.200
      2      O     1.20301191     1.47597649    -0.24528199       adf.R=1.517
      3      O    -1.74526559     0.90111534    -0.34362503       adf.R=1.517
      4      O    -0.59836971     1.43290909     2.53021479       adf.R=1.517
      5      H    -1.86018330     1.67702305    -0.90720372       adf.R=1.350
      6      O     0.01537973    -1.67016910    -0.97050885       adf.R=1.517
      7      H    -0.42207584    -1.64984452    -1.83155331       adf.R=1.350
      8      H     0.70514914    -2.34431413    -1.02098424       adf.R=1.350
      9      H     2.15769789     1.53846454    -0.12768856       adf.R=1.350
     10      O     1.19895870    -0.82357622     1.72995108       adf.R=1.517
     11      H    -1.26439134     2.12999641     2.51822057       adf.R=1.350
 
Total System Charge             0.00000
Bonding info available!
 
 *** GO1_GOStep15 ***

 SOLVATION
-------------------------------------------

  The Delley construction of COSMO surface surface is calculated

       Division Level for Surface Triangles (NDIV)                  3
       Final Division Level for Triangles (NFDIV)                   1
       Radius of the Solvent (RSOL)                           1.93000 angstr
  Dielectric Constant (EPSL)                                 78.39000

       COSMO equation is solved iteratively-               conjugate-gradient

       Maximun of Iterations for Charges (NCIX)                  1000
       Criterion for Charge convergence (CCNV)                1.0E-08

  COSMO charges included variationally in SCF

       COSMO included at every SCF cycle

  Geometry-dependent empirical factor                         0.00000

  C-Matrix calculated in cspmtx

  In cspmtx, C-Matrix calculated using fitted potential

-------------------------------------------



 -------------------------------------------
  COSMO surface
  Area             =          504.294
  Volume           =          807.350
  Number of Points =         1286
 -------------------------------------------



 ======================
 RI Hartree-Fock Scheme
 ======================
  
 Fit Set Quality     : GOOD
 Threshold Quality   : GOOD
 Integration Quality : GOOD
 Response Quality    : DEFAULT
 Is Range Separated  :  F
 
 RIHartreeFock Dependency: number of modified vectors:           5
 cosmo_calcen: 0.5 (esolb+esolc) (Hartrees) =   -0.065615

 Solvation energy (screening term,uncorrected) =    -41.174236 kcal/mol

 Solvation energy (dispersion and cavitation terms) =      0.942990 kcal/mol
 Solvation Energy Contributions (Hartrees)
          esola   esolb+esolc
     0.06561531   -0.13123063
 esol last cycle   -0.06561531
  
 Hartree-Fock exchange energy:   -509.181131055942     
 cosmo_calcen: 0.5 (esolb+esolc) (Hartrees) =   -0.065615

 Solvation energy (screening term,uncorrected) =    -41.174233 kcal/mol

 Solvation energy (dispersion and cavitation terms) =      0.942990 kcal/mol
 Solvation Energy Contributions (Hartrees)
          esola   esolb+esolc
     0.06561531   -0.13123062
 esol last cycle   -0.06561531

 Energy gradients wrt nuclear displacements
 ==========================================

     Atom      Cartesian (a.u./angstrom)
                 X         Y         Z
 ----------------------------------------
     1 Pa    0.000019 -0.000222  0.000192
     2 O     0.000145  0.000151 -0.000029
     3 O    -0.000095  0.000088 -0.000111
     4 O    -0.000056  0.000016 -0.000053
     5 H    -0.000056  0.000020  0.000045
     6 O     0.000072 -0.000001  0.000028
     7 H     0.000034  0.000068 -0.000064
     8 H    -0.000030  0.000023 -0.000001
     9 H    -0.000007  0.000023  0.000054
    10 O    -0.000018 -0.000063 -0.000052
    11 H    -0.000009 -0.000104 -0.000009
 ----------------------------------------
 Mulliken charges used for AMS results%charges...
 
----------------------------------------------------------------------
Geometry Convergence after Step  15       (Hartree/Angstrom,Angstrom)
----------------------------------------------------------------------
current energy                               -3.02253591 Hartree
energy change                       0.00000066     0.00001100    T
constrained gradient max            0.00021074     0.00010000    F
constrained gradient rms            0.00007607     0.00006667    F
gradient max                        0.00021074
gradient rms                        0.00007607
cart. step max                      0.00181456     0.00100000    F
cart. step rms                      0.00061805     0.00066667    T
 
 
--------
Geometry
--------
Formula: H5O5Pa
Atoms
  Index Symbol   x (angstrom)   y (angstrom)   z (angstrom)
      1     Pa    -0.13272429     0.13994519     0.81858350       adf.R=2.200
      2      O     1.20248380     1.47541821    -0.24538766       adf.R=1.517
      3      O    -1.74559927     0.90108790    -0.34302225       adf.R=1.517
      4      O    -0.59810053     1.43316290     2.53110340       adf.R=1.517
      5      H    -1.85903333     1.67545933    -0.90901828       adf.R=1.350
      6      O     0.01505389    -1.66999363    -0.97055948       adf.R=1.517
      7      H    -0.42219959    -1.64918943    -1.83168611       adf.R=1.350
      8      H     0.70550161    -2.34341565    -1.02158523       adf.R=1.350
      9      H     2.15713838     1.53801249    -0.12758277       adf.R=1.350
     10      O     1.19898292    -0.82338311     1.73004132       adf.R=1.517
     11      H    -1.26396114     2.13048290     2.51868581       adf.R=1.350
 
Total System Charge             0.00000
Bonding info available!
 
 *** GO1_GOStep16 ***

 SOLVATION
-------------------------------------------

  The Delley construction of COSMO surface surface is calculated

       Division Level for Surface Triangles (NDIV)                  3
       Final Division Level for Triangles (NFDIV)                   1
       Radius of the Solvent (RSOL)                           1.93000 angstr
  Dielectric Constant (EPSL)                                 78.39000

       COSMO equation is solved iteratively-               conjugate-gradient

       Maximun of Iterations for Charges (NCIX)                  1000
       Criterion for Charge convergence (CCNV)                1.0E-08

  COSMO charges included variationally in SCF

       COSMO included at every SCF cycle

  Geometry-dependent empirical factor                         0.00000

  C-Matrix calculated in cspmtx

  In cspmtx, C-Matrix calculated using fitted potential

-------------------------------------------



 -------------------------------------------
  COSMO surface
  Area             =          504.272
  Volume           =          807.377
  Number of Points =         1286
[...]
     6     O       0.054356   0.011649  -0.014357
     7     H       0.070506  -0.001819  -0.023247
     8     H       0.084635   0.042516  -0.010337
     9     H       0.136811  -0.199501  -0.231667
    10     O      -0.169789  -0.068503   0.170852
    11     H      -0.284076  -0.192180  -0.058546
 
 Mode:    12      Frequency (cm-1):      151.9815     Intensity (km/mol):      280.8672
 Index  Atom      ---- Displacements (x/y/z) ----
     1    Pa      -0.000322  -0.004067   0.000496
     2     O      -0.028225  -0.008547  -0.044680
     3     O       0.004390   0.009591  -0.004416
     4     O       0.014290  -0.009338   0.015327
     5     H       0.127342  -0.072706  -0.137382
     6     O       0.085785   0.125821  -0.027258
     7     H      -0.451219  -0.403468   0.232041
     8     H      -0.473796  -0.468486   0.241749
     9     H      -0.023921  -0.006432  -0.080267
    10     O      -0.021248   0.001238   0.037032
    11     H       0.022664  -0.001485   0.011096
 
 Mode:    13      Frequency (cm-1):      162.9281     Intensity (km/mol):      174.9646
 Index  Atom      ---- Displacements (x/y/z) ----
     1    Pa       0.015875  -0.007339  -0.013068
     2     O      -0.177507   0.113361  -0.079062
     3     O       0.021765   0.075320   0.015792
     4     O       0.092980  -0.060067   0.057012
     5     H       0.411109  -0.180216  -0.397599
     6     O      -0.044429  -0.065469  -0.009933
     7     H       0.134687   0.185548  -0.094769
     8     H       0.139480   0.133935  -0.162378
     9     H      -0.206550   0.518146  -0.060005
    10     O      -0.163454   0.000164   0.249947
    11     H       0.177301   0.020158   0.000522
 
 Mode:    14      Frequency (cm-1):      170.9564     Intensity (km/mol):       49.6680
 Index  Atom      ---- Displacements (x/y/z) ----
     1    Pa       0.026688  -0.002025   0.029688
     2     O      -0.212637   0.103749  -0.137427
     3     O       0.092160   0.100576  -0.008372
     4     O      -0.226713   0.105269  -0.131018
     5     H       0.136495   0.331373   0.291443
     6     O       0.023417  -0.002227   0.038200
     7     H       0.078268  -0.041001   0.009591
     8     H       0.052443   0.023369   0.102260
     9     H      -0.159851   0.055126  -0.541605
    10     O      -0.059282  -0.312637  -0.163112
    11     H      -0.145896   0.178964  -0.291663
 
 Mode:    15      Frequency (cm-1):      188.3703     Intensity (km/mol):      208.4869
 Index  Atom      ---- Displacements (x/y/z) ----
     1    Pa      -0.001286   0.006189   0.003807
     2     O      -0.029940  -0.015319  -0.078818
     3     O       0.071842  -0.084635  -0.147263
     4     O       0.042472  -0.065898   0.060232
     5     H      -0.369922   0.494969   0.707030
     6     O      -0.011475   0.030040   0.006731
     7     H      -0.037823   0.065868   0.021009
     8     H      -0.019947   0.025063  -0.036661
     9     H      -0.035327   0.018413  -0.049520
    10     O      -0.033489   0.007002   0.052509
    11     H       0.132441   0.021195   0.177404
 
 Mode:    16      Frequency (cm-1):      262.8158     Intensity (km/mol):       44.8723
 Index  Atom      ---- Displacements (x/y/z) ----
     1    Pa       0.002558  -0.029627  -0.027500
     2     O       0.009573   0.012417  -0.001939
     3     O      -0.022203   0.021223   0.007950
     4     O      -0.000140   0.001662  -0.011985
     5     H       0.029221  -0.031746  -0.071282
     6     O      -0.057673   0.325429   0.359375
     7     H       0.147937   0.551016   0.258812
     8     H       0.116402   0.507061   0.290529
     9     H       0.006919   0.008259   0.018547
    10     O       0.014670   0.002075   0.016057
    11     H      -0.001682  -0.000823  -0.056009
 
 Mode:    17      Frequency (cm-1):      287.2990     Intensity (km/mol):      200.1563
 Index  Atom      ---- Displacements (x/y/z) ----
     1    Pa      -0.000002   0.001944   0.003593
     2     O       0.012298  -0.062065  -0.057290
     3     O      -0.000062   0.004592   0.000207
     4     O       0.006588   0.024486  -0.010834
     5     H       0.008305   0.026365   0.027545
     6     O       0.003481   0.008692   0.000745
     7     H      -0.011557  -0.047703   0.007207
     8     H       0.010896   0.014022   0.031622
     9     H      -0.119270   0.660829   0.628398
    10     O       0.002188  -0.029617  -0.031903
    11     H      -0.276694  -0.243636   0.053918
 
 Mode:    18      Frequency (cm-1):      304.9955     Intensity (km/mol):      162.0205
 Index  Atom      ---- Displacements (x/y/z) ----
     1    Pa       0.000073   0.001747   0.000794
     2     O       0.013256  -0.031204  -0.025221
     3     O       0.003475   0.005254   0.018443
     4     O      -0.067862  -0.053101   0.014220
     5     H      -0.126261  -0.078863  -0.067308
     6     O       0.000849   0.002084  -0.000511
     7     H      -0.008964  -0.024008   0.003906
     8     H       0.005406   0.006015   0.010772
     9     H      -0.037402   0.215019   0.258470
    10     O       0.019195   0.005248  -0.017421
    11     H       0.643904   0.619573  -0.221431
 
 Mode:    19      Frequency (cm-1):      344.6406     Intensity (km/mol):      442.3695
 Index  Atom      ---- Displacements (x/y/z) ----
     1    Pa       0.006029   0.003422   0.000676
     2     O      -0.000304  -0.049544   0.037540
     3     O      -0.143133  -0.030273  -0.042429
     4     O      -0.011184  -0.013167  -0.007722
     5     H       0.856657   0.347353   0.262015
     6     O      -0.002126   0.000288  -0.001154
     7     H       0.039889   0.022837  -0.021777
     8     H      -0.017527  -0.017518   0.022523
     9     H       0.001977   0.117755  -0.084935
    10     O       0.006952   0.006955  -0.007983
    11     H       0.114233   0.105809   0.012457
 
 Mode:    20      Frequency (cm-1):      416.6385     Intensity (km/mol):      505.5934
 Index  Atom      ---- Displacements (x/y/z) ----
     1    Pa       0.009192  -0.000884  -0.019022
     2     O      -0.099508  -0.166158   0.147177
     3     O       0.027979   0.002704  -0.015252
     4     O      -0.031316   0.131391   0.226330
     5     H      -0.228313  -0.015583   0.011393
     6     O      -0.013611   0.007705  -0.012518
     7     H      -0.035101  -0.198492  -0.006913
     8     H       0.099728   0.117135   0.080183
     9     H      -0.065550   0.452662  -0.531243
    10     O       0.007416   0.013475  -0.012465
    11     H      -0.147511   0.019669  -0.481930
 
 Mode:    21      Frequency (cm-1):      424.6965     Intensity (km/mol):      190.0588
 Index  Atom      ---- Displacements (x/y/z) ----
     1    Pa       0.005435   0.007659   0.008770
     2     O      -0.058703  -0.107948   0.099216
     3     O      -0.055665   0.076979  -0.063649
     4     O       0.021766  -0.102707  -0.188520
     5     H      -0.414272  -0.067086  -0.179950
     6     O      -0.009957   0.015102   0.000230
     7     H      -0.068060  -0.159388   0.025192
     8     H       0.093720   0.119449   0.039830
     9     H      -0.031717   0.409193  -0.460576
    10     O       0.044085  -0.009482   0.030400
    11     H       0.102389  -0.025588   0.506402
 
 Mode:    22      Frequency (cm-1):      432.9673     Intensity (km/mol):       58.4547
 Index  Atom      ---- Displacements (x/y/z) ----
     1    Pa       0.000803   0.002136  -0.001248
     2     O      -0.021259  -0.029479   0.020630
     3     O      -0.024050   0.026727  -0.012977
     4     O       0.000425   0.001618   0.005904
     5     H      -0.105925   0.002270  -0.028622
     6     O       0.067421  -0.043801   0.048553
     7     H      -0.143723   0.659375   0.172479
     8     H      -0.298976  -0.377182  -0.501978
     9     H      -0.023370   0.060690  -0.016354
    10     O       0.002700  -0.006994  -0.017716
    11     H      -0.012671  -0.010569  -0.043897
 
 Mode:    23      Frequency (cm-1):      475.4161     Intensity (km/mol):        8.6267
 Index  Atom      ---- Displacements (x/y/z) ----
     1    Pa      -0.002351  -0.003814  -0.012089
     2     O       0.002472  -0.010631   0.009917
     3     O       0.075699  -0.037623   0.074790
     4     O      -0.058394   0.084581   0.032249
     5     H       0.167454  -0.030942   0.064733
     6     O       0.008612  -0.006231   0.005330
     7     H      -0.054715   0.042721   0.038295
     8     H       0.001125  -0.006691  -0.081944
     9     H       0.002598   0.099521  -0.062186
    10     O      -0.007852   0.003871  -0.003264
    11     H       0.096453   0.230664   0.923321
 
 Mode:    24      Frequency (cm-1):      496.7596     Intensity (km/mol):      147.0712
 Index  Atom      ---- Displacements (x/y/z) ----
     1    Pa      -0.017878  -0.001709   0.004953
     2     O       0.137402   0.058573  -0.032035
     3     O       0.078654  -0.048090   0.056583
     4     O       0.020924  -0.039628  -0.030994
     5     H       0.166695  -0.008720   0.090604
     6     O       0.010376  -0.002967   0.009623
     7     H      -0.114395   0.029261   0.073106
     8     H       0.024988   0.023144  -0.124596
     9     H       0.163087   0.632697  -0.625868
    10     O      -0.004213   0.017966  -0.021517
    11     H      -0.000886  -0.060126  -0.257608
 
 Mode:    25      Frequency (cm-1):      544.9617     Intensity (km/mol):      346.2568
 Index  Atom      ---- Displacements (x/y/z) ----
     1    Pa       0.014394  -0.034837   0.016737
     2     O       0.175675   0.153731  -0.116681
     3     O      -0.248944   0.156197  -0.195698
     4     O      -0.059194   0.130689   0.141148
     5     H      -0.488388   0.059629  -0.276332
     6     O      -0.001339  -0.018105  -0.021035
     7     H      -0.076437  -0.109801   0.013120
     8     H       0.079270   0.065781  -0.042709
     9     H       0.184466   0.310267  -0.275010
    10     O      -0.054347   0.049020  -0.038950
    11     H      -0.012642   0.176748   0.413645
 
 Mode:    26      Frequency (cm-1):      650.2126     Intensity (km/mol):        9.1955
 Index  Atom      ---- Displacements (x/y/z) ----
     1    Pa      -0.000163  -0.000992   0.000674
     2     O       0.005285   0.003026  -0.001121
     3     O       0.001444  -0.006768   0.006440
     4     O       0.002186   0.001154   0.001076
     5     H      -0.083781  -0.023172  -0.002066
     6     O      -0.020990   0.007410  -0.016405
     7     H       0.586950   0.235870  -0.313306
     8     H      -0.345143  -0.367994   0.451428
     9     H       0.009094   0.138143  -0.111095
    10     O       0.003420   0.010148  -0.004837
    11     H       0.007507   0.007013   0.056123
 
 Mode:    27      Frequency (cm-1):      770.9614     Intensity (km/mol):      504.9582
 Index  Atom      ---- Displacements (x/y/z) ----
     1    Pa      -0.047417   0.020050  -0.029729
     2     O       0.097347   0.091858  -0.071270
     3     O      -0.069974   0.029912  -0.045500
     4     O      -0.024628   0.082669   0.118200
     5     H       0.020387   0.069371  -0.019874
     6     O       0.005581  -0.029288  -0.024493
     7     H       0.015334   0.038793  -0.029243
     8     H      -0.031324  -0.070704  -0.021138
     9     H       0.104181   0.098727  -0.079511
    10     O       0.673298  -0.477206   0.461643
    11     H      -0.056448   0.061380   0.004408
 
 Mode:    28      Frequency (cm-1):     1589.0686     Intensity (km/mol):      132.5647
 Index  Atom      ---- Displacements (x/y/z) ----
     1    Pa      -0.000065  -0.000085  -0.000082
     2     O       0.000315   0.000127  -0.000168
     3     O      -0.000189  -0.000134  -0.000681
     4     O      -0.000111   0.000253   0.000399
     5     H      -0.000205  -0.000109  -0.000640
     6     O      -0.014530   0.042957   0.057353
     7     H       0.420936  -0.519504  -0.218414
     8     H      -0.189390  -0.131852  -0.668297
     9     H       0.000216   0.000421   0.000539
    10     O       0.000874  -0.000969   0.000172
    11     H      -0.000150   0.000335  -0.000297
 
 Mode:    29      Frequency (cm-1):     3756.1876     Intensity (km/mol):      140.9451
 Index  Atom      ---- Displacements (x/y/z) ----
     1    Pa      -0.000002   0.000027   0.000027
     2     O       0.000315  -0.000082   0.000073
     3     O      -0.000008   0.000705  -0.000537
     4     O       0.000069  -0.000114  -0.000090
     5     H       0.001817  -0.012288   0.009457
     6     O      -0.010971   0.027928   0.039039
     7     H      -0.338038   0.039629  -0.617541
     8     H       0.513621  -0.486054  -0.006117
     9     H      -0.006310  -0.000442  -0.000721
    10     O      -0.000122   0.000057  -0.000139
    11     H      -0.000653   0.000746   0.000068
 
 Mode:    30      Frequency (cm-1):     3795.8705     Intensity (km/mol):      223.6283
 Index  Atom      ---- Displacements (x/y/z) ----
     1    Pa       0.000030  -0.000009   0.000032
     2     O       0.002837   0.000070   0.000456
     3     O       0.007341  -0.049317   0.037194
     4     O      -0.003454   0.003546  -0.000218
     5     H      -0.116482   0.787210  -0.594640
     6     O       0.000246   0.000232   0.000962
     7     H      -0.008945   0.000470  -0.014033
     8     H       0.004649  -0.002837  -0.000733
     9     H      -0.049325  -0.003387  -0.005834
    10     O      -0.000170   0.000036  -0.000096
    11     H       0.055275  -0.058232   0.000048
 
 Mode:    31      Frequency (cm-1):     3816.2773     Intensity (km/mol):      198.7258
 Index  Atom      ---- Displacements (x/y/z) ----
     1    Pa      -0.000041   0.000012   0.000003
     2     O      -0.056481  -0.004235  -0.006413
     3     O       0.000210  -0.000698   0.000494
     4     O      -0.017548   0.018536  -0.000112
     5     H      -0.001474   0.009719  -0.007159
     6     O       0.000046   0.000158   0.000366
     7     H      -0.003203   0.000226  -0.005083
     8     H       0.002539  -0.001881  -0.000290
     9     H       0.901947   0.065104   0.104219
    10     O      -0.000041   0.000190  -0.000165
    11     H       0.280972  -0.297239   0.000236
 
 Mode:    32      Frequency (cm-1):     3817.9608     Intensity (km/mol):      105.4900
 Index  Atom      ---- Displacements (x/y/z) ----
     1    Pa       0.000021  -0.000022   0.000001
     2     O      -0.025374  -0.002013  -0.002717
     3     O       0.000912  -0.004661   0.003758
     4     O       0.039051  -0.041366  -0.000228
     5     H      -0.010690   0.073743  -0.055969
     6     O       0.000313  -0.000039   0.000437
     7     H      -0.003741  -0.000053  -0.005575
     8     H      -0.001232   0.002136  -0.000019
     9     H       0.402259   0.029041   0.046734
    10     O      -0.000295   0.000277  -0.000274
    11     H      -0.623184   0.658890  -0.000823
 
 Mode:    33      Frequency (cm-1):     3837.3513     Intensity (km/mol):      248.1749
 Index  Atom      ---- Displacements (x/y/z) ----
     1    Pa      -0.000005   0.000003  -0.000005
     2     O      -0.000255  -0.000036  -0.000023
     3     O       0.000048  -0.000373   0.000310
     4     O       0.000176  -0.000209  -0.000012
     5     H      -0.000794   0.007077  -0.005090
     6     O      -0.051600   0.031863  -0.037071
     7     H       0.315280  -0.017501   0.631726
     8     H       0.505714  -0.488455  -0.041402
     9     H       0.004108  -0.000215   0.000613
    10     O      -0.000049  -0.000051  -0.000042
    11     H      -0.003010   0.003240  -0.000023

PES point character: Geometry corresponds to a local minimum on the PES.




 ============================
 Statistical Thermal Analysis  ***  ideal gas assumed  ***
 ============================
  
 Pressure:                  1.000000 atm.
 Temperature:             298.150000 K



 Moments of Inertia [amu*bohr^2] and principal axis
 ==================================================

         790.1310       1031.7164       1230.9002
 ------------------------------------------------
           0.1369          0.6964         -0.7045
          -0.6629         -0.4641         -0.5876
          -0.7361          0.5474          0.3981


 The rotational contribution to the molecular entropy includes
 a term, dependent on the symmetry number sigma. The results 
 reported below were computed using sigma = 1, determined from
 the point group symmetry of the input geometry (NOSYM). 
 If this is not the correct symmetry, try symmetrizing the molecule before
 running the calculation (note: linear molecules should be aligned along one
 of the Cartesian axes).
 Contributions from frequencies below 20 1/cm are not included in vibrational sums.
 Their contributions, if any, are reported separately.


     Temp                                                        Transl      Rotat     Vibrat     Total
     ----                                                        ------      -----     ------     -----

     298.15   Entropy (cal/mol-K):                               43.148     28.397     39.433    110.978
              Nuclear Internal Energy (kcal/mol):                 0.889      0.889     44.873     46.651
              Constant Volume Heat Capacity (cal/mol-K):          2.981      2.981     33.615     39.577
          (c) Constant Volume Heat Capacity (cal/mol-K):          2.981      2.981     30.414     36.376

       Summary of energy terms
                                                   hartree              eV         kcal/mol           kJ/mol
                                      --------------------     -----------       ----------      -----------
      Energy from Engine:               -3.022532861765774        -82.2473         -1896.67         -7935.66
      Nuclear Internal Energy:           0.074342756099090          2.0230            46.65           195.19
  (c) Nuclear Internal Energy:           0.072675186015043          1.9776            45.60           190.81
      Internal Energy U:                -2.948190105666684        -80.2243         -1850.02         -7740.47
      pV/n = RT:                         0.000944186013486          0.0257             0.59             2.48
      Enthalpy H:                       -2.947245919653198        -80.1986         -1849.42         -7737.99
      -T*S:                             -0.052729111602809         -1.4348           -33.09          -138.44
  (c) -T*S:                             -0.051505401438290         -1.4015           -32.32          -135.23
      Gibbs free energy:                -2.999975031256008        -81.6335         -1882.51         -7876.43
 
 
 
  (c) The properties marked with this symbol have been corrected using 'low vibrational frequency free rotor
      interpolation corrections'. For those terms all positive frequencies are used (also ones below 20 1/cm),
      but the contribution to the partition function of small vibrational frequencies is modified as described
      in the following paper:
      S. Grimme, 'Supramolecular Binding Thermodynamics by Dispersion-Corrected Density Functional Theory'
      (Chem. Eur. J. 2012, 18, 9955-9964)
      Configuration: Dampener Frequency          :   100.000 1/cm
                     Dampener Alpha              :     4.000
                     Averaging Moment of Inertia : 1.000E-44 kg m2

--------------
Atomic charges
--------------
  Index   Atom    Charge
      1     Pa    2.6023
      2      O   -0.7697
      3      O   -0.6986
      4      O   -0.7849
      5      H    0.1405
      6      O   -0.4200
      7      H    0.2468
      8      H    0.2477
      9      H    0.1509
     10      O   -0.8613
     11      H    0.1464


Dipole moment vector    (Debye):    -3.58274216   -4.22612619   -7.13579848
              magnitude (Debye):     9.03414655


Final PES point is a local minimum. Geometry optimization successful!


AMS application finished. Exiting.
NORMAL TERMINATION
     Total cpu time:   51591.90
  Total system time:    1434.18
 Total elapsed time:   53024.12
