
 Working directory              : /state/partition2/shaaban/999372.phlam-s-sakura/molpro.OyAel2bls4/
 Global scratch directory       : /state/partition2/shaaban/999372.phlam-s-sakura/molpro.OyAel2bls4/
 Wavefunction directory         : /home/shaaban/wfu/
 Main file repository           : /state/partition2/shaaban/999372.phlam-s-sakura/molpro.OyAel2bls4/

 id        : lill

 Nodes      nprocs
 u-0-0.local    8
 GA implementation: MPI file
 GA implementation (serial work in mppx): MPI file

 Using customized tuning parameters: mindgm=1; mindgv=20; mindgc=4; mindgr=1; noblas=0; minvec=7
 default implementation of scratch files=sf  


 Variables initialized (1040), CPU time= 0.02 sec
 ***,Pa(OH)4(Cl)- MP2 and CCSD(T)
 memory,2500, m;
 file, 1, pa_oh4_cl.ccsd-tx.int, new;
 file, 2, pa_oh4_cl.ccsd-tx.wfu, new;
 
 gprint, basis;
 gprint, orbital=10;
 
 nosym;
 
 geomtyp=xyz;
 
 geometry={
 Including file /home/shaaban/molpro/PhD/chloride/gp/pa_oh4_cl/pa_oh4_cl-B22-gp.xyz
 }
 
 charge=0;
 
                                                                                 ! Select X2C SR Hamiltonian
 SET,DKHO=101
 
                                                                                 ! Calculation with VTZ basis set
 basis={
 Pa=cc-pVTZ-X2C;
 O=aug-cc-pVTZ-X2C;
 H=aug-cc-pVTZ-X2C;
 Cl=aug-cc-pVTZ-X2C;
 }
 
 
                                                                                 ! Hartree-Fock calculation
 {hf;}
 
                                                                                 ! MP2 and CCSD(T) calculation
 {ccsd(t);}
 
                                                                  ! Save HF energy and CCSD(T) correlation energy for VTZ basis set
 energy_hf(1) = energr(1);
 corr_mp2(1) = EMP2-energr(1);
 corr_ccsdt(1) = ENERGT(1)-energr(1);
 
 Commands initialized (846), CPU time= 0.01 sec, 717 directives.
 Default parameters read. Elapsed time= 2.81 sec

 Checking input...
 Passed
1


                                         ***  PROGRAM SYSTEM MOLPRO  ***
                                       Copyright, TTI GmbH Stuttgart, 2015
                                    Version 2023.2 linked Fri Sep 22 09:27:09 2023


 **********************************************************************************************************************************
 LABEL *   Pa(OH)4(Cl)- MP2 and CCSD(T)                                                                                                                                  
  64 bit mpp version                                                                     DATE: 11-Jan-24          TIME: 17:02:42  
 **********************************************************************************************************************************

 SHA1:             3c61bfe44d37c8635c785372c339f5cbdd4e4b59
 **********************************************************************************************************************************

 Memory per process:      2500 MW
 Total memory per node:  20000 MW

 GA preallocation disabled
 GA check disabled

 Variable memory set to 2500.0 MW



 Permanent file  1  pa_oh4_cl.ccsd-tx.int            assigned.  Implementation=df  
 Permanent file  2  pa_oh4_cl.ccsd-tx.wfu            assigned.  Implementation=df  



 **********************************************************************************************************************************
 DATASETS  * FILE   NREC   LENGTH (MB)   RECORD NAMES
              1       1        0.06       500   
                                          VAR  

              2       1        0.06       500   
                                          VAR  

 PROGRAMS   *        TOTAL      FILE
 CPU TIMES  *         0.23      0.01
 REAL TIME  *         4.37 SEC
 DISK USED  *         0.16 MB (local),        1.32 MB (total)
 **********************************************************************************************************************************


 SETTING GEOMTYP        =    XYZ
 ZSYMEL=NOSYM


 Geometry recognized as XYZ

 SETTING CHARGE         =      0.0000000D+00                                  
 SETTING DKHO           =       101.00000000                                  
 SETTING BASIS          =    PA=CC-PVTZ-X2C,O=AUG-CC-PVTZ-X2C,H=AUG-CC-PVTZ-X2C,CL=AUG-CC-PVTZ-X2C


 Recomputing integrals since basis changed


 Using spherical harmonics

 Library entry PA     S cc-pVTZ-X2C          selected for orbital group  1
 Library entry PA     P cc-pVTZ-X2C          selected for orbital group  1
 Library entry PA     D cc-pVTZ-X2C          selected for orbital group  1
 Library entry PA     F cc-pVTZ-X2C          selected for orbital group  1
 Library entry PA     G cc-pVTZ-X2C          selected for orbital group  1
 Library entry PA     H cc-pVTZ-X2C          selected for orbital group  1
 Library entry CL     S aug-cc-pVTZ-X2C      selected for orbital group  2
 Library entry CL     P aug-cc-pVTZ-X2C      selected for orbital group  2
 Library entry CL     D aug-cc-pVTZ-X2C      selected for orbital group  2
 Library entry CL     F aug-cc-pVTZ-X2C      selected for orbital group  2
 Library entry H      S aug-cc-pVTZ-X2C      selected for orbital group  3
 Library entry H      P aug-cc-pVTZ-X2C      selected for orbital group  3
 Library entry H      D aug-cc-pVTZ-X2C      selected for orbital group  3
 Library entry O      S aug-cc-pVTZ-X2C      selected for orbital group  4
 Library entry O      P aug-cc-pVTZ-X2C      selected for orbital group  4
 Library entry O      D aug-cc-pVTZ-X2C      selected for orbital group  4
 Library entry O      F aug-cc-pVTZ-X2C      selected for orbital group  4


 PROGRAM * SEWARD (Integral evaluation for generally contracted gaussian basis sets)     Author: Roland Lindh, 1990

 Geometry written to block  1 of record 700


 Point group  C1  



 ATOMIC COORDINATES

 NR  ATOM    CHARGE       X              Y              Z

   1  PA     91.00    0.580163595   -0.222916606    0.124662532
   2  CL     17.00    2.579677425    3.244033633   -2.761585653
   3  H       1.00   -3.694298002    3.516368031    0.928918417
   4  O       8.00   -2.442281422    2.212172809    0.811662095
   5  H       1.00    5.295666537    0.059697131    3.405233798
   6  O       8.00    0.379441202   -2.598769730   -3.015089355
   7  H       1.00    0.390573708   -3.444175116   -4.617335843
   8  O       8.00   -1.028374271   -2.981641808    2.416014944
   9  H       1.00   -1.958485980   -4.200022929    3.382020913
  10  O       8.00    3.787997870   -0.074962062    2.410324067

 Bond lengths in Bohr (Angstrom)

 1-2  4.934392374  1-3  5.735860796  1-4  3.941675118  1-5  5.751346481  1-6  3.942462360
     ( 2.611167994)     ( 3.035286818)     ( 2.085844645)     ( 3.043481490)     ( 2.086261236)

  1- 7  5.735764927   1- 8  3.930426781   1- 9  5.733454455   1-10  3.941616411   3- 4  1.811689747
       ( 3.035236087)       ( 2.079892282)       ( 3.034013438)       ( 2.085813579)       ( 0.958704927)

  5-10  1.811365032   6- 7  1.811636831   8- 9  1.811829981
       ( 0.958533096)       ( 0.958676925)       ( 0.958779136)

 Bond angles

  1- 3- 4    6.59878087   1- 4- 3  170.37355063   1- 5-10    2.01520051   1- 6- 7  170.14792674

  1- 7- 6    6.75410613   1- 8- 9  173.17206900   1- 9- 8    4.67483202   1-10- 5  177.05886716

  2-1-3   85.75346126   2-1-4   88.77425741   2-1-5   88.10191060   2-1-6   88.75173176

  2- 1- 7   85.66453880   2- 1- 8  179.74012771   2- 1- 9  177.58753248   2- 1-10   89.02759717

  3-1-4    3.02766850   3-1-5  119.93300439   3-1-6  117.81311951   3-1-7  117.22011534

  3- 1- 8   94.06261210   3- 1- 9   92.44060885   3- 1-10  120.04677918   4- 1- 5  119.92834454

  4-1-6  118.16802629   4-1-7  117.75550462   4-1-8   91.04248679   4-1-9   89.42670588

  4- 1-10  119.98588913   5- 1- 6  121.70993795   5- 1- 7  121.75389477   5- 1- 8   92.14929109

  5- 1- 9   94.18948133   5- 1-10    0.92593232   6- 1- 7    3.09796713   6- 1- 8   91.17251413

  6- 1- 9   90.68114148   6- 1-10  121.72667370   7- 1- 8   94.25855736   7- 1- 9   93.75518132

  7- 1-10  121.82941173   8- 1- 9    2.15309898   8- 1-10   91.22362991   9- 1-10   93.26415617


 BASIS DATA

   Nr Sym  Nuc  Type         Exponents   Contraction coefficients

    1.1 A     1  1s    57606659.000000     0.002669    0.000875   -0.001011   -0.000162    0.000138   -0.000062
                                           0.000029    0.000051   -0.000067   -0.000085    0.000000
    2.1 A              15333099.000000     0.001763    0.000577   -0.000669   -0.000107    0.000091   -0.000041
                                           0.000019    0.000034   -0.000045   -0.000056    0.000000
    3.1 A               5244434.800000     0.005688    0.001860   -0.002159   -0.000346    0.000294   -0.000133
                                           0.000061    0.000110   -0.000144   -0.000182    0.000000
    4.1 A               1993947.300000     0.005833    0.001897   -0.002226   -0.000357    0.000304   -0.000137
                                           0.000063    0.000114   -0.000148   -0.000188    0.000000
    5.1 A                831464.670000     0.012471    0.004046   -0.004768   -0.000766    0.000651   -0.000294
                                           0.000135    0.000243   -0.000318   -0.000402    0.000000
    6.1 A                367473.800000     0.015337    0.004923   -0.005922   -0.000954    0.000810   -0.000366
                                           0.000168    0.000303   -0.000396   -0.000502    0.000000
    7.1 A                170948.980000     0.027802    0.008860   -0.010807   -0.001745    0.001481   -0.000669
                                           0.000307    0.000553   -0.000723   -0.000913    0.000000
    8.1 A                 82498.208000     0.037893    0.011845   -0.014983   -0.002432    0.002060   -0.000931
                                           0.000428    0.000771   -0.001008   -0.001281    0.000000
    9.1 A                 41068.557000     0.063446    0.019489   -0.025472   -0.004156    0.003514   -0.001588
                                           0.000730    0.001312   -0.001713   -0.002158    0.000000
   10.1 A                 20931.097000     0.090970    0.026964   -0.037612   -0.006192    0.005220   -0.002360
                                           0.001084    0.001959   -0.002562   -0.003271    0.000000
   11.1 A                 10881.858000     0.141353    0.040137   -0.060450   -0.010069    0.008456   -0.003823
                                           0.001756    0.003150   -0.004109   -0.005142    0.000000
                           5751.850200     0.192150    0.050328   -0.087023   -0.014758    0.012320   -0.005570
                                           0.002559    0.004641   -0.006081   -0.007843    0.000000
                           3085.413800     0.245625    0.057494   -0.119370   -0.020746    0.017180   -0.007769
                                           0.003568    0.006365   -0.008281   -0.010186    0.000000
                           1676.302600     0.236828    0.048791   -0.122988   -0.021795    0.017936   -0.008112
                                           0.003728    0.006861   -0.009046   -0.012129    0.000000
                            920.364860     0.144288    0.051386   -0.045258   -0.005640    0.005268   -0.002373
                                           0.001085    0.001652   -0.001974   -0.001042    0.000000
                            507.302700    -0.025759    0.115725    0.203246    0.056561   -0.041187    0.018724
                                          -0.008598   -0.014902    0.019190    0.021482    0.000000
                            285.301180    -0.127248    0.207489    0.548666    0.172341   -0.122683    0.055908
                                          -0.025737   -0.047910    0.063712    0.088054    0.000000
                            162.083520    -0.106345    0.166212    0.606264    0.222723   -0.155054    0.070944
                                          -0.032607   -0.056240    0.072273    0.078654    0.000000
                             92.502257    -0.075897    0.111536    0.036795   -0.036386    0.019294   -0.009062
                                           0.004086    0.001475    0.001168    0.030443    0.000000
                             54.996696    -0.159518    0.199400   -0.676887   -0.645265    0.447335   -0.211910
                                           0.098395    0.193270   -0.267108   -0.419400    0.000000
                             32.498055    -0.126680    0.162427   -0.590845   -0.685716    0.477369   -0.227312
                                           0.105023    0.171409   -0.214999   -0.161690    0.000000
                             19.139224    -0.031866    0.038627   -0.102127    0.187644   -0.152132    0.072681
                                          -0.032972   -0.027495    0.028200   -0.136514    0.000000
                             11.382710     0.001867    0.000895    0.103491    0.862021   -0.976205    0.547811
                                          -0.263192   -0.581563    0.872312    1.708580    0.000000
                              6.786052     0.000710   -0.001446    0.057992    0.445035   -0.716251    0.417708
                                          -0.198179   -0.257965    0.233684   -0.803168    0.000000
                              4.149622     0.000624    0.000224    0.007493    0.066545    0.448492   -0.350229
                                           0.170540    0.219139   -0.310498    1.111350    0.000000
                              2.398648    -0.000456    0.000036    0.000333    0.014140    0.872214   -0.849732
                                           0.456257    1.306370   -2.312230   -7.677220    0.000000
                              1.389239     0.000090    0.000196   -0.000539    0.002102    0.319316   -0.431871
                                           0.230358    0.273179    0.312923   10.897300    0.000000
                              0.799685    -0.000092   -0.000045    0.000120    0.000488    0.047531    0.436228
                                          -0.277578   -1.772950    4.829150   -2.756210    0.000000
                              0.427327     0.000032    0.000027   -0.000069   -0.000720    0.030738    0.715435
                                          -0.561943   -0.897998   -3.625440   -6.603630    0.000000
                              0.220940    -0.000014   -0.000008    0.000023   -0.000086    0.010089    0.233487
                                          -0.326569    1.531090   -1.220420    6.760400    0.000000
                              0.086038     0.000004    0.000003   -0.000008   -0.000060    0.001152    0.063336
                                           0.301677    1.025940    2.677810   -2.145480    0.000000
                              0.041219    -0.000002   -0.000001    0.000004   -0.000044    0.001537    0.118995
                                           0.692734   -0.772162   -0.536170   -1.021350    0.000000
                              0.018781     0.000001    0.000000   -0.000001   -0.000024    0.000590    0.043903
                                           0.253879   -0.484754   -0.805222    1.252960    1.000000
   12.1 A     1  2px   52575799.000000     0.000013
                       15301659.000000     0.000017
                        4822461.600000     0.000052
                        1632045.600000     0.000107
                         584338.640000     0.000256
                         219508.320000     0.000572
                          86085.039000     0.001336
                          35172.956000     0.003129
                          14975.745000     0.007503
                           6652.821900     0.017986
                           3084.270200     0.042103
                           1489.211300     0.090969
                            745.288670     0.167976
                            384.521300     0.234709
                            203.927220     0.220200
                            110.523340     0.174708
                             61.345569     0.190642
                             34.404375     0.137246
                             19.094147     0.033402
                             10.684628    -0.000867
                              5.931463    -0.000935
                              3.230992    -0.000009
                              1.730655     0.000164
                              0.869483     0.000022
                              0.440589     0.000009
                              0.215859    -0.000000
                              0.091015     0.000001
                              0.040174    -0.000000
                              0.017215     0.000000
   13.1 A     1  2py   52575799.000000     0.000013
                       15301659.000000     0.000017
                        4822461.600000     0.000052
                        1632045.600000     0.000107
                         584338.640000     0.000256
                         219508.320000     0.000572
                          86085.039000     0.001336
                          35172.956000     0.003129
                          14975.745000     0.007503
                           6652.821900     0.017986
                           3084.270200     0.042103
                           1489.211300     0.090969
                            745.288670     0.167976
                            384.521300     0.234709
                            203.927220     0.220200
                            110.523340     0.174708
                             61.345569     0.190642
                             34.404375     0.137246
                             19.094147     0.033402
                             10.684628    -0.000867
                              5.931463    -0.000935
                              3.230992    -0.000009
                              1.730655     0.000164
                              0.869483     0.000022
                              0.440589     0.000009
                              0.215859    -0.000000
                              0.091015     0.000001
                              0.040174    -0.000000
                              0.017215     0.000000
   14.1 A     1  2pz   52575799.000000     0.000013
                       15301659.000000     0.000017
                        4822461.600000     0.000052
                        1632045.600000     0.000107
                         584338.640000     0.000256
                         219508.320000     0.000572
                          86085.039000     0.001336
                          35172.956000     0.003129
                          14975.745000     0.007503
                           6652.821900     0.017986
                           3084.270200     0.042103
                           1489.211300     0.090969
                            745.288670     0.167976
                            384.521300     0.234709
                            203.927220     0.220200
                            110.523340     0.174708
                             61.345569     0.190642
                             34.404375     0.137246
                             19.094147     0.033402
                             10.684628    -0.000867
                              5.931463    -0.000935
                              3.230992    -0.000009
                              1.730655     0.000164
                              0.869483     0.000022
                              0.440589     0.000009
                              0.215859    -0.000000
                              0.091015     0.000001
                              0.040174    -0.000000
                              0.017215     0.000000
   15.1 A     1  2px   52575799.000000    -0.000015
                       15301659.000000    -0.000020
                        4822461.600000    -0.000063
                        1632045.600000    -0.000128
                         584338.640000    -0.000307
                         219508.320000    -0.000688
                          86085.039000    -0.001611
                          35172.956000    -0.003789
                          14975.745000    -0.009145
                           6652.821900    -0.022135
                           3084.270200    -0.052666
                           1489.211300    -0.116756
                            745.288670    -0.223673
                            384.521300    -0.322150
                            203.927220    -0.236330
                            110.523340     0.145050
                             61.345569     0.527334
                             34.404375     0.400957
                             19.094147     0.019469
                             10.684628    -0.122609
                              5.931463    -0.050931
                              3.230992    -0.002720
                              1.730655     0.002231
                              0.869483     0.000423
                              0.440589     0.000084
                              0.215859     0.000018
                              0.091015     0.000006
                              0.040174    -0.000002
                              0.017215     0.000001
   16.1 A     1  2py   52575799.000000    -0.000015
                       15301659.000000    -0.000020
                        4822461.600000    -0.000063
                        1632045.600000    -0.000128
                         584338.640000    -0.000307
                         219508.320000    -0.000688
                          86085.039000    -0.001611
                          35172.956000    -0.003789
                          14975.745000    -0.009145
                           6652.821900    -0.022135
                           3084.270200    -0.052666
                           1489.211300    -0.116756
                            745.288670    -0.223673
                            384.521300    -0.322150
                            203.927220    -0.236330
                            110.523340     0.145050
                             61.345569     0.527334
                             34.404375     0.400957
                             19.094147     0.019469
                             10.684628    -0.122609
                              5.931463    -0.050931
                              3.230992    -0.002720
                              1.730655     0.002231
                              0.869483     0.000423
                              0.440589     0.000084
                              0.215859     0.000018
                              0.091015     0.000006
                              0.040174    -0.000002
                              0.017215     0.000001
   17.1 A     1  2pz   52575799.000000    -0.000015
                       15301659.000000    -0.000020
                        4822461.600000    -0.000063
                        1632045.600000    -0.000128
                         584338.640000    -0.000307
                         219508.320000    -0.000688
                          86085.039000    -0.001611
                          35172.956000    -0.003789
                          14975.745000    -0.009145
                           6652.821900    -0.022135
                           3084.270200    -0.052666
                           1489.211300    -0.116756
                            745.288670    -0.223673
                            384.521300    -0.322150
                            203.927220    -0.236330
                            110.523340     0.145050
                             61.345569     0.527334
                             34.404375     0.400957
                             19.094147     0.019469
                             10.684628    -0.122609
                              5.931463    -0.050931
                              3.230992    -0.002720
                              1.730655     0.002231
                              0.869483     0.000423
                              0.440589     0.000084
                              0.215859     0.000018
                              0.091015     0.000006
                              0.040174    -0.000002
                              0.017215     0.000001
   18.1 A     1  2px   52575799.000000     0.000002
                       15301659.000000     0.000002
                        4822461.600000     0.000007
                        1632045.600000     0.000015
                         584338.640000     0.000036
                         219508.320000     0.000081
                          86085.039000     0.000191
                          35172.956000     0.000452
                          14975.745000     0.001103
                           6652.821900     0.002719
                           3084.270200     0.006655
                           1489.211300     0.015415
                            745.288670     0.031304
                            384.521300     0.047289
                            203.927220     0.017930
                            110.523340    -0.123036
                             61.345569    -0.327485
                             34.404375    -0.190153
                             19.094147     0.365341
                             10.684628     0.614487
                              5.931463     0.253665
                              3.230992     0.025247
                              1.730655     0.001457
                              0.869483    -0.000189
                              0.440589     0.000178
                              0.215859    -0.000001
                              0.091015     0.000034
                              0.040174    -0.000010
                              0.017215     0.000003
   19.1 A     1  2py   52575799.000000     0.000002
                       15301659.000000     0.000002
                        4822461.600000     0.000007
                        1632045.600000     0.000015
                         584338.640000     0.000036
                         219508.320000     0.000081
                          86085.039000     0.000191
                          35172.956000     0.000452
                          14975.745000     0.001103
                           6652.821900     0.002719
                           3084.270200     0.006655
                           1489.211300     0.015415
                            745.288670     0.031304
                            384.521300     0.047289
                            203.927220     0.017930
                            110.523340    -0.123036
                             61.345569    -0.327485
                             34.404375    -0.190153
                             19.094147     0.365341
                             10.684628     0.614487
                              5.931463     0.253665
                              3.230992     0.025247
                              1.730655     0.001457
                              0.869483    -0.000189
                              0.440589     0.000178
                              0.215859    -0.000001
                              0.091015     0.000034
                              0.040174    -0.000010
                              0.017215     0.000003
   20.1 A     1  2pz   52575799.000000     0.000002
                       15301659.000000     0.000002
                        4822461.600000     0.000007
                        1632045.600000     0.000015
                         584338.640000     0.000036
                         219508.320000     0.000081
                          86085.039000     0.000191
                          35172.956000     0.000452
                          14975.745000     0.001103
                           6652.821900     0.002719
                           3084.270200     0.006655
                           1489.211300     0.015415
                            745.288670     0.031304
                            384.521300     0.047289
                            203.927220     0.017930
                            110.523340    -0.123036
                             61.345569    -0.327485
                             34.404375    -0.190153
                             19.094147     0.365341
                             10.684628     0.614487
                              5.931463     0.253665
                              3.230992     0.025247
                              1.730655     0.001457
                              0.869483    -0.000189
                              0.440589     0.000178
                              0.215859    -0.000001
                              0.091015     0.000034
                              0.040174    -0.000010
                              0.017215     0.000003
   21.1 A     1  2px   52575799.000000    -0.000002
                       15301659.000000    -0.000003
                        4822461.600000    -0.000009
                        1632045.600000    -0.000018
                         584338.640000    -0.000043
                         219508.320000    -0.000097
                          86085.039000    -0.000228
                          35172.956000    -0.000537
                          14975.745000    -0.001302
                           6652.821900    -0.003177
                           3084.270200    -0.007652
                           1489.211300    -0.017311
                            745.288670    -0.034068
                            384.521300    -0.050256
                            203.927220    -0.027762
                            110.523340     0.078094
                             61.345569     0.225253
                             34.404375     0.124053
                             19.094147    -0.273486
                             10.684628    -0.553839
                              5.931463    -0.065277
                              3.230992     0.618524
                              1.730655     0.501044
                              0.869483     0.107343
                              0.440589     0.023201
                              0.215859     0.014691
                              0.091015     0.001511
                              0.040174     0.000132
                              0.017215    -0.000015
   22.1 A     1  2py   52575799.000000    -0.000002
                       15301659.000000    -0.000003
                        4822461.600000    -0.000009
                        1632045.600000    -0.000018
                         584338.640000    -0.000043
                         219508.320000    -0.000097
                          86085.039000    -0.000228
                          35172.956000    -0.000537
                          14975.745000    -0.001302
                           6652.821900    -0.003177
                           3084.270200    -0.007652
                           1489.211300    -0.017311
                            745.288670    -0.034068
                            384.521300    -0.050256
                            203.927220    -0.027762
                            110.523340     0.078094
                             61.345569     0.225253
                             34.404375     0.124053
                             19.094147    -0.273486
                             10.684628    -0.553839
                              5.931463    -0.065277
                              3.230992     0.618524
                              1.730655     0.501044
                              0.869483     0.107343
                              0.440589     0.023201
                              0.215859     0.014691
                              0.091015     0.001511
                              0.040174     0.000132
                              0.017215    -0.000015
   23.1 A     1  2pz   52575799.000000    -0.000002
                       15301659.000000    -0.000003
                        4822461.600000    -0.000009
                        1632045.600000    -0.000018
                         584338.640000    -0.000043
                         219508.320000    -0.000097
                          86085.039000    -0.000228
                          35172.956000    -0.000537
                          14975.745000    -0.001302
                           6652.821900    -0.003177
                           3084.270200    -0.007652
                           1489.211300    -0.017311
                            745.288670    -0.034068
                            384.521300    -0.050256
                            203.927220    -0.027762
                            110.523340     0.078094
                             61.345569     0.225253
                             34.404375     0.124053
                             19.094147    -0.273486
                             10.684628    -0.553839
                              5.931463    -0.065277
                              3.230992     0.618524
                              1.730655     0.501044
                              0.869483     0.107343
                              0.440589     0.023201
                              0.215859     0.014691
                              0.091015     0.001511
                              0.040174     0.000132
                              0.017215    -0.000015
   24.1 A     1  2px   52575799.000000     0.000001
                       15301659.000000     0.000001
                        4822461.600000     0.000004
                        1632045.600000     0.000008
                         584338.640000     0.000019
                         219508.320000     0.000043
                          86085.039000     0.000102
                          35172.956000     0.000240
                          14975.745000     0.000583
                           6652.821900     0.001422
                           3084.270200     0.003426
                           1489.211300     0.007745
                            745.288670     0.015249
                            384.521300     0.022470
                            203.927220     0.012451
                            110.523340    -0.035134
                             61.345569    -0.101385
                             34.404375    -0.055104
                             19.094147     0.131617
                             10.684628     0.274237
                              5.931463     0.008683
                              3.230992    -0.421618
                              1.730655    -0.381893
                              0.869483     0.226214
                              0.440589     0.602150
                              0.215859     0.367232
                              0.091015     0.055939
                              0.040174    -0.001129
                              0.017215     0.001121
   25.1 A     1  2py   52575799.000000     0.000001
                       15301659.000000     0.000001
                        4822461.600000     0.000004
                        1632045.600000     0.000008
                         584338.640000     0.000019
                         219508.320000     0.000043
                          86085.039000     0.000102
                          35172.956000     0.000240
                          14975.745000     0.000583
                           6652.821900     0.001422
                           3084.270200     0.003426
                           1489.211300     0.007745
                            745.288670     0.015249
                            384.521300     0.022470
                            203.927220     0.012451
                            110.523340    -0.035134
                             61.345569    -0.101385
                             34.404375    -0.055104
                             19.094147     0.131617
                             10.684628     0.274237
                              5.931463     0.008683
                              3.230992    -0.421618
                              1.730655    -0.381893
                              0.869483     0.226214
                              0.440589     0.602150
                              0.215859     0.367232
                              0.091015     0.055939
                              0.040174    -0.001129
                              0.017215     0.001121
   26.1 A     1  2pz   52575799.000000     0.000001
                       15301659.000000     0.000001
                        4822461.600000     0.000004
                        1632045.600000     0.000008
                         584338.640000     0.000019
                         219508.320000     0.000043
                          86085.039000     0.000102
                          35172.956000     0.000240
                          14975.745000     0.000583
                           6652.821900     0.001422
                           3084.270200     0.003426
                           1489.211300     0.007745
                            745.288670     0.015249
                            384.521300     0.022470
                            203.927220     0.012451
                            110.523340    -0.035134
                             61.345569    -0.101385
                             34.404375    -0.055104
                             19.094147     0.131617
                             10.684628     0.274237
                              5.931463     0.008683
                              3.230992    -0.421618
                              1.730655    -0.381893
                              0.869483     0.226214
                              0.440589     0.602150
                              0.215859     0.367232
                              0.091015     0.055939
                              0.040174    -0.001129
                              0.017215     0.001121
   27.1 A     1  2px   52575799.000000    -0.000000
                       15301659.000000    -0.000000
                        4822461.600000    -0.000001
                        1632045.600000    -0.000002
                         584338.640000    -0.000005
                         219508.320000    -0.000010
                          86085.039000    -0.000024
                          35172.956000    -0.000058
                          14975.745000    -0.000140
                           6652.821900    -0.000342
                           3084.270200    -0.000823
                           1489.211300    -0.001861
                            745.288670    -0.003664
                            384.521300    -0.005398
                            203.927220    -0.002991
                            110.523340     0.008482
                             61.345569     0.024454
                             34.404375     0.013272
                             19.094147    -0.032305
                             10.684628    -0.067432
                              5.931463    -0.001366
                              3.230992     0.110673
                              1.730655     0.103187
                              0.869483    -0.077840
                              0.440589    -0.217735
                              0.215859    -0.188345
                              0.091015     0.201020
                              0.040174     0.637069
                              0.017215     0.326669
   28.1 A     1  2py   52575799.000000    -0.000000
                       15301659.000000    -0.000000
                        4822461.600000    -0.000001
                        1632045.600000    -0.000002
                         584338.640000    -0.000005
                         219508.320000    -0.000010
                          86085.039000    -0.000024
                          35172.956000    -0.000058
                          14975.745000    -0.000140
                           6652.821900    -0.000342
                           3084.270200    -0.000823
                           1489.211300    -0.001861
                            745.288670    -0.003664
                            384.521300    -0.005398
                            203.927220    -0.002991
                            110.523340     0.008482
                             61.345569     0.024454
                             34.404375     0.013272
                             19.094147    -0.032305
                             10.684628    -0.067432
                              5.931463    -0.001366
                              3.230992     0.110673
                              1.730655     0.103187
                              0.869483    -0.077840
                              0.440589    -0.217735
                              0.215859    -0.188345
                              0.091015     0.201020
                              0.040174     0.637069
                              0.017215     0.326669
   29.1 A     1  2pz   52575799.000000    -0.000000
                       15301659.000000    -0.000000
                        4822461.600000    -0.000001
                        1632045.600000    -0.000002
                         584338.640000    -0.000005
                         219508.320000    -0.000010
                          86085.039000    -0.000024
                          35172.956000    -0.000058
                          14975.745000    -0.000140
                           6652.821900    -0.000342
                           3084.270200    -0.000823
                           1489.211300    -0.001861
                            745.288670    -0.003664
                            384.521300    -0.005398
                            203.927220    -0.002991
                            110.523340     0.008482
                             61.345569     0.024454
                             34.404375     0.013272
                             19.094147    -0.032305
                             10.684628    -0.067432
                              5.931463    -0.001366
                              3.230992     0.110673
                              1.730655     0.103187
                              0.869483    -0.077840
                              0.440589    -0.217735
                              0.215859    -0.188345
                              0.091015     0.201020
                              0.040174     0.637069
                              0.017215     0.326669
   30.1 A     1  2px   52575799.000000    -0.000001
                       15301659.000000    -0.000001
                        4822461.600000    -0.000003
                        1632045.600000    -0.000005
                         584338.640000    -0.000013
                         219508.320000    -0.000028
                          86085.039000    -0.000066
                          35172.956000    -0.000156
                          14975.745000    -0.000379
                           6652.821900    -0.000925
                           3084.270200    -0.002224
                           1489.211300    -0.005040
                            745.288670    -0.009895
                            384.521300    -0.014653
                            203.927220    -0.007970
                            110.523340     0.022757
                             61.345569     0.067049
                             34.404375     0.034635
                             19.094147    -0.086605
                             10.684628    -0.190567
                              5.931463     0.011210
                              3.230992     0.295370
                              1.730655     0.357708
                              0.869483    -0.483437
                              0.440589    -0.603385
                              0.215859     0.215887
                              0.091015     0.715465
                              0.040174     0.271767
                              0.017215     0.004114
   31.1 A     1  2py   52575799.000000    -0.000001
                       15301659.000000    -0.000001
                        4822461.600000    -0.000003
                        1632045.600000    -0.000005
                         584338.640000    -0.000013
                         219508.320000    -0.000028
                          86085.039000    -0.000066
                          35172.956000    -0.000156
                          14975.745000    -0.000379
                           6652.821900    -0.000925
                           3084.270200    -0.002224
                           1489.211300    -0.005040
                            745.288670    -0.009895
                            384.521300    -0.014653
                            203.927220    -0.007970
                            110.523340     0.022757
                             61.345569     0.067049
                             34.404375     0.034635
                             19.094147    -0.086605
                             10.684628    -0.190567
                              5.931463     0.011210
                              3.230992     0.295370
                              1.730655     0.357708
                              0.869483    -0.483437
                              0.440589    -0.603385
                              0.215859     0.215887
                              0.091015     0.715465
                              0.040174     0.271767
                              0.017215     0.004114
   32.1 A     1  2pz   52575799.000000    -0.000001
                       15301659.000000    -0.000001
                        4822461.600000    -0.000003
                        1632045.600000    -0.000005
                         584338.640000    -0.000013
                         219508.320000    -0.000028
                          86085.039000    -0.000066
                          35172.956000    -0.000156
                          14975.745000    -0.000379
                           6652.821900    -0.000925
                           3084.270200    -0.002224
                           1489.211300    -0.005040
                            745.288670    -0.009895
                            384.521300    -0.014653
                            203.927220    -0.007970
                            110.523340     0.022757
                             61.345569     0.067049
                             34.404375     0.034635
                             19.094147    -0.086605
                             10.684628    -0.190567
                              5.931463     0.011210
                              3.230992     0.295370
                              1.730655     0.357708
                              0.869483    -0.483437
                              0.440589    -0.603385
                              0.215859     0.215887
                              0.091015     0.715465
                              0.040174     0.271767
                              0.017215     0.004114
   33.1 A     1  2px   52575799.000000    -0.000001
                       15301659.000000    -0.000001
                        4822461.600000    -0.000004
                        1632045.600000    -0.000009
                         584338.640000    -0.000021
                         219508.320000    -0.000047
                          86085.039000    -0.000111
                          35172.956000    -0.000263
                          14975.745000    -0.000636
                           6652.821900    -0.001554
                           3084.270200    -0.003739
                           1489.211300    -0.008475
                            745.288670    -0.016642
                            384.521300    -0.024644
                            203.927220    -0.013367
                            110.523340     0.038637
                             61.345569     0.114090
                             34.404375     0.057493
                             19.094147    -0.152735
                             10.684628    -0.335275
                              5.931463     0.054116
                              3.230992     0.556566
                              1.730655     0.705542
                              0.869483    -1.835570
                              0.440589    -0.012121
                              0.215859     1.665730
                              0.091015    -0.585220
                              0.040174    -0.541179
                              0.017215     0.007323
   34.1 A     1  2py   52575799.000000    -0.000001
                       15301659.000000    -0.000001
                        4822461.600000    -0.000004
                        1632045.600000    -0.000009
                         584338.640000    -0.000021
                         219508.320000    -0.000047
                          86085.039000    -0.000111
                          35172.956000    -0.000263
                          14975.745000    -0.000636
                           6652.821900    -0.001554
                           3084.270200    -0.003739
                           1489.211300    -0.008475
                            745.288670    -0.016642
                            384.521300    -0.024644
                            203.927220    -0.013367
                            110.523340     0.038637
                             61.345569     0.114090
                             34.404375     0.057493
                             19.094147    -0.152735
                             10.684628    -0.335275
                              5.931463     0.054116
                              3.230992     0.556566
                              1.730655     0.705542
                              0.869483    -1.835570
                              0.440589    -0.012121
                              0.215859     1.665730
                              0.091015    -0.585220
                              0.040174    -0.541179
                              0.017215     0.007323
   35.1 A     1  2pz   52575799.000000    -0.000001
                       15301659.000000    -0.000001
                        4822461.600000    -0.000004
                        1632045.600000    -0.000009
                         584338.640000    -0.000021
                         219508.320000    -0.000047
                          86085.039000    -0.000111
                          35172.956000    -0.000263
                          14975.745000    -0.000636
                           6652.821900    -0.001554
                           3084.270200    -0.003739
                           1489.211300    -0.008475
                            745.288670    -0.016642
                            384.521300    -0.024644
                            203.927220    -0.013367
                            110.523340     0.038637
                             61.345569     0.114090
                             34.404375     0.057493
                             19.094147    -0.152735
                             10.684628    -0.335275
                              5.931463     0.054116
                              3.230992     0.556566
                              1.730655     0.705542
                              0.869483    -1.835570
                              0.440589    -0.012121
                              0.215859     1.665730
                              0.091015    -0.585220
                              0.040174    -0.541179
                              0.017215     0.007323
   36.1 A     1  2px   52575799.000000    -0.000001
                       15301659.000000    -0.000002
                        4822461.600000    -0.000006
                        1632045.600000    -0.000012
                         584338.640000    -0.000030
                         219508.320000    -0.000066
                          86085.039000    -0.000157
                          35172.956000    -0.000360
                          14975.745000    -0.000908
                           6652.821900    -0.002110
                           3084.270200    -0.005394
                           1489.211300    -0.011352
                            745.288670    -0.024563
                            384.521300    -0.031084
                            203.927220    -0.026677
                            110.523340     0.074398
                             61.345569     0.122621
                             34.404375     0.158055
                             19.094147    -0.396610
                             10.684628    -0.217370
                              5.931463    -0.310283
                              3.230992     1.975310
                              1.730655    -0.901781
                              0.869483    -2.796670
                              0.440589     4.376690
                              0.215859    -2.312120
                              0.091015    -0.328877
                              0.040174     0.867979
                              0.017215    -0.037454
   37.1 A     1  2py   52575799.000000    -0.000001
                       15301659.000000    -0.000002
                        4822461.600000    -0.000006
                        1632045.600000    -0.000012
                         584338.640000    -0.000030
                         219508.320000    -0.000066
                          86085.039000    -0.000157
                          35172.956000    -0.000360
                          14975.745000    -0.000908
                           6652.821900    -0.002110
                           3084.270200    -0.005394
                           1489.211300    -0.011352
                            745.288670    -0.024563
                            384.521300    -0.031084
                            203.927220    -0.026677
                            110.523340     0.074398
                             61.345569     0.122621
                             34.404375     0.158055
                             19.094147    -0.396610
                             10.684628    -0.217370
                              5.931463    -0.310283
                              3.230992     1.975310
                              1.730655    -0.901781
                              0.869483    -2.796670
                              0.440589     4.376690
                              0.215859    -2.312120
                              0.091015    -0.328877
                              0.040174     0.867979
                              0.017215    -0.037454
   38.1 A     1  2pz   52575799.000000    -0.000001
                       15301659.000000    -0.000002
                        4822461.600000    -0.000006
                        1632045.600000    -0.000012
                         584338.640000    -0.000030
                         219508.320000    -0.000066
                          86085.039000    -0.000157
                          35172.956000    -0.000360
                          14975.745000    -0.000908
                           6652.821900    -0.002110
                           3084.270200    -0.005394
                           1489.211300    -0.011352
                            745.288670    -0.024563
                            384.521300    -0.031084
                            203.927220    -0.026677
                            110.523340     0.074398
                             61.345569     0.122621
                             34.404375     0.158055
                             19.094147    -0.396610
                             10.684628    -0.217370
                              5.931463    -0.310283
                              3.230992     1.975310
                              1.730655    -0.901781
                              0.869483    -2.796670
                              0.440589     4.376690
                              0.215859    -2.312120
                              0.091015    -0.328877
                              0.040174     0.867979
                              0.017215    -0.037454
   39.1 A     1  2px   52575799.000000     0.000000
                       15301659.000000     0.000000
                        4822461.600000     0.000000
                        1632045.600000     0.000000
                         584338.640000     0.000000
                         219508.320000     0.000000
                          86085.039000     0.000000
                          35172.956000     0.000000
                          14975.745000     0.000000
                           6652.821900     0.000000
                           3084.270200     0.000000
                           1489.211300     0.000000
                            745.288670     0.000000
                            384.521300     0.000000
                            203.927220     0.000000
                            110.523340     0.000000
                             61.345569     0.000000
                             34.404375     0.000000
                             19.094147     0.000000
                             10.684628     0.000000
                              5.931463     0.000000
                              3.230992     0.000000
                              1.730655     0.000000
                              0.869483     0.000000
                              0.440589     0.000000
                              0.215859     0.000000
                              0.091015     0.000000
                              0.040174     0.000000
                              0.017215     1.000000
   40.1 A     1  2py   52575799.000000     0.000000
                       15301659.000000     0.000000
                        4822461.600000     0.000000
                        1632045.600000     0.000000
                         584338.640000     0.000000
                         219508.320000     0.000000
                          86085.039000     0.000000
                          35172.956000     0.000000
                          14975.745000     0.000000
                           6652.821900     0.000000
                           3084.270200     0.000000
                           1489.211300     0.000000
                            745.288670     0.000000
                            384.521300     0.000000
                            203.927220     0.000000
                            110.523340     0.000000
                             61.345569     0.000000
                             34.404375     0.000000
                             19.094147     0.000000
                             10.684628     0.000000
                              5.931463     0.000000
                              3.230992     0.000000
                              1.730655     0.000000
                              0.869483     0.000000
                              0.440589     0.000000
                              0.215859     0.000000
                              0.091015     0.000000
                              0.040174     0.000000
                              0.017215     1.000000
   41.1 A     1  2pz   52575799.000000     0.000000
                       15301659.000000     0.000000
                        4822461.600000     0.000000
                        1632045.600000     0.000000
                         584338.640000     0.000000
                         219508.320000     0.000000
                          86085.039000     0.000000
                          35172.956000     0.000000
                          14975.745000     0.000000
                           6652.821900     0.000000
                           3084.270200     0.000000
                           1489.211300     0.000000
                            745.288670     0.000000
                            384.521300     0.000000
                            203.927220     0.000000
                            110.523340     0.000000
                             61.345569     0.000000
                             34.404375     0.000000
                             19.094147     0.000000
                             10.684628     0.000000
                              5.931463     0.000000
                              3.230992     0.000000
                              1.730655     0.000000
                              0.869483     0.000000
                              0.440589     0.000000
                              0.215859     0.000000
                              0.091015     0.000000
                              0.040174     0.000000
                              0.017215     1.000000
   42.1 A     1  3d0     105911.200000     0.000020
                          24974.572000     0.000129
                           8108.852700     0.000677
                           3150.520500     0.003052
                           1380.647900     0.011950
                            658.188950     0.039706
                            332.909040     0.108875
                            176.023220     0.231727
                             95.780704     0.354949
                             53.337287     0.336096
                             29.864821     0.140603
                             16.526778    -0.033742
                              9.155323    -0.064042
                              4.984876    -0.024095
                              2.636633    -0.002233
                              1.354062     0.000305
                              0.656031     0.000103
                              0.269853     0.000008
                              0.103443     0.000000
                              0.036685     0.000000
   43.1 A     1  3d2-    105911.200000     0.000020
                          24974.572000     0.000129
                           8108.852700     0.000677
                           3150.520500     0.003052
                           1380.647900     0.011950
                            658.188950     0.039706
                            332.909040     0.108875
                            176.023220     0.231727
                             95.780704     0.354949
                             53.337287     0.336096
                             29.864821     0.140603
                             16.526778    -0.033742
                              9.155323    -0.064042
                              4.984876    -0.024095
                              2.636633    -0.002233
                              1.354062     0.000305
                              0.656031     0.000103
                              0.269853     0.000008
                              0.103443     0.000000
                              0.036685     0.000000
   44.1 A     1  3d1+    105911.200000     0.000020
                          24974.572000     0.000129
                           8108.852700     0.000677
                           3150.520500     0.003052
                           1380.647900     0.011950
                            658.188950     0.039706
                            332.909040     0.108875
                            176.023220     0.231727
                             95.780704     0.354949
                             53.337287     0.336096
                             29.864821     0.140603
                             16.526778    -0.033742
                              9.155323    -0.064042
                              4.984876    -0.024095
                              2.636633    -0.002233
                              1.354062     0.000305
                              0.656031     0.000103
                              0.269853     0.000008
                              0.103443     0.000000
                              0.036685     0.000000
   45.1 A     1  3d2+    105911.200000     0.000020
                          24974.572000     0.000129
                           8108.852700     0.000677
                           3150.520500     0.003052
                           1380.647900     0.011950
                            658.188950     0.039706
                            332.909040     0.108875
                            176.023220     0.231727
                             95.780704     0.354949
                             53.337287     0.336096
                             29.864821     0.140603
                             16.526778    -0.033742
                              9.155323    -0.064042
                              4.984876    -0.024095
                              2.636633    -0.002233
                              1.354062     0.000305
                              0.656031     0.000103
                              0.269853     0.000008
                              0.103443     0.000000
                              0.036685     0.000000
   46.1 A     1  3d1-    105911.200000     0.000020
                          24974.572000     0.000129
                           8108.852700     0.000677
                           3150.520500     0.003052
                           1380.647900     0.011950
                            658.188950     0.039706
                            332.909040     0.108875
                            176.023220     0.231727
                             95.780704     0.354949
                             53.337287     0.336096
                             29.864821     0.140603
                             16.526778    -0.033742
                              9.155323    -0.064042
                              4.984876    -0.024095
                              2.636633    -0.002233
                              1.354062     0.000305
                              0.656031     0.000103
                              0.269853     0.000008
                              0.103443     0.000000
                              0.036685     0.000000
   47.1 A     1  3d0     105911.200000    -0.000007
                          24974.572000    -0.000047
                           8108.852700    -0.000246
                           3150.520500    -0.001113
                           1380.647900    -0.004403
                            658.188950    -0.014782
                            332.909040    -0.041545
                            176.023220    -0.089264
                             95.780704    -0.132364
                             53.337287    -0.078125
                             29.864821     0.163137
                             16.526778     0.427766
                              9.155323     0.404323
                              4.984876     0.149842
                              2.636633     0.013528
                              1.354062    -0.001244
                              0.656031    -0.000625
                              0.269853    -0.000007
                              0.103443    -0.000015
                              0.036685     0.000003
   48.1 A     1  3d2-    105911.200000    -0.000007
                          24974.572000    -0.000047
                           8108.852700    -0.000246
                           3150.520500    -0.001113
                           1380.647900    -0.004403
                            658.188950    -0.014782
                            332.909040    -0.041545
                            176.023220    -0.089264
                             95.780704    -0.132364
                             53.337287    -0.078125
                             29.864821     0.163137
                             16.526778     0.427766
                              9.155323     0.404323
                              4.984876     0.149842
                              2.636633     0.013528
                              1.354062    -0.001244
                              0.656031    -0.000625
                              0.269853    -0.000007
                              0.103443    -0.000015
                              0.036685     0.000003
   49.1 A     1  3d1+    105911.200000    -0.000007
                          24974.572000    -0.000047
                           8108.852700    -0.000246
                           3150.520500    -0.001113
                           1380.647900    -0.004403
                            658.188950    -0.014782
                            332.909040    -0.041545
                            176.023220    -0.089264
                             95.780704    -0.132364
                             53.337287    -0.078125
                             29.864821     0.163137
                             16.526778     0.427766
                              9.155323     0.404323
                              4.984876     0.149842
                              2.636633     0.013528
                              1.354062    -0.001244
                              0.656031    -0.000625
                              0.269853    -0.000007
                              0.103443    -0.000015
                              0.036685     0.000003
   50.1 A     1  3d2+    105911.200000    -0.000007
                          24974.572000    -0.000047
                           8108.852700    -0.000246
                           3150.520500    -0.001113
                           1380.647900    -0.004403
                            658.188950    -0.014782
                            332.909040    -0.041545
                            176.023220    -0.089264
                             95.780704    -0.132364
                             53.337287    -0.078125
                             29.864821     0.163137
                             16.526778     0.427766
                              9.155323     0.404323
                              4.984876     0.149842
                              2.636633     0.013528
                              1.354062    -0.001244
                              0.656031    -0.000625
                              0.269853    -0.000007
                              0.103443    -0.000015
                              0.036685     0.000003
   51.1 A     1  3d1-    105911.200000    -0.000007
                          24974.572000    -0.000047
                           8108.852700    -0.000246
                           3150.520500    -0.001113
                           1380.647900    -0.004403
                            658.188950    -0.014782
                            332.909040    -0.041545
                            176.023220    -0.089264
                             95.780704    -0.132364
                             53.337287    -0.078125
                             29.864821     0.163137
                             16.526778     0.427766
                              9.155323     0.404323
                              4.984876     0.149842
                              2.636633     0.013528
                              1.354062    -0.001244
                              0.656031    -0.000625
                              0.269853    -0.000007
                              0.103443    -0.000015
                              0.036685     0.000003
   52.1 A     1  3d0     105911.200000     0.000004
                          24974.572000     0.000029
                           8108.852700     0.000151
                           3150.520500     0.000680
                           1380.647900     0.002694
                            658.188950     0.009015
                            332.909040     0.025311
                            176.023220     0.054175
                             95.780704     0.081018
                             53.337287     0.048855
                             29.864821    -0.090265
                             16.526778    -0.246113
                              9.155323    -0.206236
                              4.984876     0.172306
                              2.636633     0.505507
                              1.354062     0.395599
                              0.656031     0.111489
                              0.269853     0.006247
                              0.103443    -0.000029
                              0.036685    -0.000036
   53.1 A     1  3d2-    105911.200000     0.000004
                          24974.572000     0.000029
                           8108.852700     0.000151
                           3150.520500     0.000680
                           1380.647900     0.002694
                            658.188950     0.009015
                            332.909040     0.025311
                            176.023220     0.054175
                             95.780704     0.081018
                             53.337287     0.048855
                             29.864821    -0.090265
                             16.526778    -0.246113
                              9.155323    -0.206236
                              4.984876     0.172306
                              2.636633     0.505507
                              1.354062     0.395599
                              0.656031     0.111489
                              0.269853     0.006247
                              0.103443    -0.000029
                              0.036685    -0.000036
   54.1 A     1  3d1+    105911.200000     0.000004
                          24974.572000     0.000029
                           8108.852700     0.000151
                           3150.520500     0.000680
                           1380.647900     0.002694
                            658.188950     0.009015
                            332.909040     0.025311
                            176.023220     0.054175
                             95.780704     0.081018
                             53.337287     0.048855
                             29.864821    -0.090265
                             16.526778    -0.246113
                              9.155323    -0.206236
                              4.984876     0.172306
                              2.636633     0.505507
                              1.354062     0.395599
                              0.656031     0.111489
                              0.269853     0.006247
                              0.103443    -0.000029
                              0.036685    -0.000036
   55.1 A     1  3d2+    105911.200000     0.000004
                          24974.572000     0.000029
                           8108.852700     0.000151
                           3150.520500     0.000680
                           1380.647900     0.002694
                            658.188950     0.009015
                            332.909040     0.025311
                            176.023220     0.054175
                             95.780704     0.081018
                             53.337287     0.048855
                             29.864821    -0.090265
                             16.526778    -0.246113
                              9.155323    -0.206236
                              4.984876     0.172306
                              2.636633     0.505507
                              1.354062     0.395599
                              0.656031     0.111489
                              0.269853     0.006247
                              0.103443    -0.000029
                              0.036685    -0.000036
   56.1 A     1  3d1-    105911.200000     0.000004
                          24974.572000     0.000029
                           8108.852700     0.000151
                           3150.520500     0.000680
                           1380.647900     0.002694
                            658.188950     0.009015
                            332.909040     0.025311
                            176.023220     0.054175
                             95.780704     0.081018
                             53.337287     0.048855
                             29.864821    -0.090265
                             16.526778    -0.246113
                              9.155323    -0.206236
                              4.984876     0.172306
                              2.636633     0.505507
                              1.354062     0.395599
                              0.656031     0.111489
                              0.269853     0.006247
                              0.103443    -0.000029
                              0.036685    -0.000036
   57.1 A     1  3d0     105911.200000    -0.000001
                          24974.572000    -0.000008
                           8108.852700    -0.000042
                           3150.520500    -0.000189
                           1380.647900    -0.000746
                            658.188950    -0.002504
                            332.909040    -0.007016
                            176.023220    -0.015063
                             95.780704    -0.022420
                             53.337287    -0.013378
                             29.864821     0.026555
                             16.526778     0.070496
                              9.155323     0.058301
                              4.984876    -0.065834
                              2.636633    -0.177473
                              1.354062    -0.127085
                              0.656031     0.181760
                              0.269853     0.495490
                              0.103443     0.447072
                              0.036685     0.116353
   58.1 A     1  3d2-    105911.200000    -0.000001
                          24974.572000    -0.000008
                           8108.852700    -0.000042
                           3150.520500    -0.000189
                           1380.647900    -0.000746
                            658.188950    -0.002504
                            332.909040    -0.007016
                            176.023220    -0.015063
                             95.780704    -0.022420
                             53.337287    -0.013378
                             29.864821     0.026555
                             16.526778     0.070496
                              9.155323     0.058301
                              4.984876    -0.065834
                              2.636633    -0.177473
                              1.354062    -0.127085
                              0.656031     0.181760
                              0.269853     0.495490
                              0.103443     0.447072
                              0.036685     0.116353
   59.1 A     1  3d1+    105911.200000    -0.000001
                          24974.572000    -0.000008
                           8108.852700    -0.000042
                           3150.520500    -0.000189
                           1380.647900    -0.000746
                            658.188950    -0.002504
                            332.909040    -0.007016
                            176.023220    -0.015063
                             95.780704    -0.022420
                             53.337287    -0.013378
                             29.864821     0.026555
                             16.526778     0.070496
                              9.155323     0.058301
                              4.984876    -0.065834
                              2.636633    -0.177473
                              1.354062    -0.127085
                              0.656031     0.181760
                              0.269853     0.495490
                              0.103443     0.447072
                              0.036685     0.116353
   60.1 A     1  3d2+    105911.200000    -0.000001
                          24974.572000    -0.000008
                           8108.852700    -0.000042
                           3150.520500    -0.000189
                           1380.647900    -0.000746
                            658.188950    -0.002504
                            332.909040    -0.007016
                            176.023220    -0.015063
                             95.780704    -0.022420
                             53.337287    -0.013378
                             29.864821     0.026555
                             16.526778     0.070496
                              9.155323     0.058301
                              4.984876    -0.065834
                              2.636633    -0.177473
[...]
   64.1     2.00000    -0.51834     4  1  pz  -0.35520    6  1  px   0.45921   10  1  py   0.37658   10  1  pz   0.29399
   65.1     2.00000    -0.51065     4  1  px   0.36821    4  1  py   0.28812    4  1  pz   0.47478    6  1  px   0.25348
                                   10  1  py   0.25074
   66.1     2.00000    -0.51005     4  1  py   0.25154    6  1  px   0.56462   10  1  py  -0.35386   10  1  pz  -0.31592
   67.1     2.00000    -0.50309     4  1  pz  -0.39174    6  1  py   0.41889   10  1  py   0.37736   10  1  pz  -0.29147
   68.1     2.00000    -0.48924     4  1  pz   0.27188    8  1  px   0.54604    8  1  pz   0.39718   10  1  pz  -0.29460
   69.1     2.00000    -0.48777     4  1  px   0.27504    6  1  py  -0.29130    8  1  py   0.47976    8  1  pz   0.39993
   70.1     2.00000    -0.44281     2  2  px   0.34795    2  2  py   0.61673    2  2  pz  -0.51538
   71.1     2.00000    -0.41758     2  2  px  -0.51304    2  2  py   0.63118    2  2  pz   0.40591
   72.1     2.00000    -0.41723     2  2  px   0.65626    2  2  pz   0.61462
   73.1     0.00000     0.02277     1  4  s   -0.41122    1  5  s   -1.29812    1  6  s   -4.56968    1  7  s   -5.87852
                                    1 11  s    2.54923    1  5  px   0.47007    1  5  py   0.76193    1  5  pz  -0.64519
                                    1  6  px   0.95422    1  6  py   1.60285    1  6  pz  -1.35385    1 10  px  -0.56830
                                    1 10  py  -0.98536    1 10  pz   0.82329    2  6  s   -0.73193    3  4  s    0.75398
                                    4  5  s    0.85661    4  4  px   0.53790    4  4  py  -0.42960    5  4  s    0.72894
                                    6  5  s    0.82692    6  4  py   0.41958    6  4  pz   0.53666    7  4  s    0.73140
                                    8  5  s    1.89088    8  4  px   0.40388    8  4  py   0.65922    8  4  pz  -0.53726
                                    9  4  s    0.69428   10  5  s    0.82257   10  4  px  -0.53823   10  4  pz  -0.40484
   74.1     0.00000     0.03394     1  5  px  -1.28197    1  5  pz  -0.94782    1  6  px  -2.52188    1  6  pz  -1.92316
                                    1  7  px  -0.44754    1  7  pz  -0.29897    1 10  px   2.15067    1 10  pz   1.60569
                                    1  4  d1+ -0.33684    1  8  d1+  0.26916    4  5  s   -1.03509    4  4  px  -0.29592
                                    4  4  py   0.52814    4  4  pz   0.46029    5  4  s    0.61918    6  5  s   -1.14825
                                    6  4  px   0.33263    6  4  py  -0.56824    6  4  pz  -0.42734   10  5  s    2.11511
                                   10  4  px  -1.15917   10  4  pz  -0.79955
   75.1     0.00000     0.03423     1  5  px   0.66451    1  5  py  -1.06896    1  5  pz  -0.89242    1  6  px   1.39331
                                    1  6  py  -2.19048    1  6  pz  -1.84872    1  7  py  -0.32078    1  7  pz  -0.25861
                                    1 10  px  -1.17612    1 10  py   1.88502    1 10  pz   1.55319    3  4  s    0.46721
                                    3  3  px  -0.26060    4  5  s    1.76940    4  4  px   1.03743    4  4  py  -0.59401
                                    6  5  s   -1.75113    6  4  px  -0.28871    6  4  py  -0.68549    6  4  pz  -0.96692
                                    7  4  s   -0.50002   10  4  py   0.36748   10  4  pz   0.31233
   76.1     0.00000     0.03843     1  6  s    0.78361    1  7  s    0.84875    1 11  s    0.30771    1  5  px   0.71109
                                    1  5  py   1.33157    1  5  pz  -1.06607    1  6  px   2.20052    1  6  py   3.98331
                                    1  6  pz  -3.22969    1  7  py  -0.28147    1 10  px  -1.15344    1 10  py  -2.17666
                                    1 10  pz   1.78363    1  4  d2- -0.26824    1  4  d1-  0.38269    2  6  s   -1.05394
                                    2  5  py   0.34623    2  5  pz  -0.28899    3  4  s   -0.99788    4  5  s   -0.65037
                                    4  4  px  -0.61774    4  4  py   0.44899    5  4  s   -0.94132    6  5  s   -0.58710
                                    6  4  py  -0.47778    6  4  pz  -0.53893    7  4  s   -0.93834    8  5  s    3.31496
                                    8  4  px   0.48366    8  4  py   0.84785    8  4  pz  -0.71166    9  4  s    1.16409
                                   10  5  s   -0.71083   10  4  px   0.57173   10  4  pz   0.42756
   77.1     0.00000     0.05452     1  5  px   0.43819    1  5  py  -0.42558    1  7  px   0.62986    1  7  py  -0.59393
                                    1  7  pz  -0.38759    1 10  px   2.17038    1 10  py  -2.24273    1 10  pz  -1.27336
                                    1  8  d0   0.68583    1  8  d2-  0.70773    1  8  d1+  0.36061    1  8  d1-  0.37972
                                    3  3  s    0.91875    3  4  s    3.90450    4  3  px   0.26192    4  3  py  -0.25176
                                    4  4  px   0.48785    4  4  py  -0.66859    5  4  s   -1.23782    6  4  px   0.31827
                                    6  4  py  -0.36821    6  4  pz  -0.50818    7  3  s   -0.63206    7  4  s   -2.83225
                                   10  4  px   0.44707   10  4  py  -0.31739
   78.1     0.00000     0.05509     1  5  px  -0.46714    1  5  pz  -0.43731    1  7  px  -0.65211    1  7  py  -0.26084
                                    1  7  pz  -0.63869    1 10  px  -2.34172    1 10  py  -0.76560    1 10  pz  -2.61733
                                    1  8  d0   0.28425    1  8  d1+ -0.67197    1  8  d2+ -0.64861    1  8  d1-  0.44393
                                    2  5  pz   0.25753    3  4  s   -0.92674    4  4  px  -0.34061    4  4  pz  -0.36109
                                    5  3  s    0.89357    5  4  s    4.09072    6  4  px  -0.29948    6  4  pz  -0.63581
                                    7  3  s   -0.75735    7  4  s   -3.01934   10  3  px  -0.30712   10  4  px  -0.66882
                                   10  4  pz  -0.57911
   79.1     0.00000     0.05910     1  6  s    0.39042    1  7  s    0.72882    1 11  s   -3.02767    1  5  px  -0.49406
                                    1  5  py  -0.70698    1  5  pz   0.53835    1  6  px  -2.71047    1  6  py  -4.49802
                                    1  6  pz   3.69153    1  7  px   0.75639    1  7  py   1.41693    1  7  pz  -1.22414
                                    1  8  py  -0.37639    1  8  pz   0.32340    1 10  px   2.50701    1 10  py   4.17784
                                    1 10  pz  -3.45842    1  8  d2- -0.50464    1  8  d1+  0.39137    1  8  d1-  0.65927
                                    1  6  f1- -0.25254    1  6  f0  -0.25199    1  6  f3+  0.29188    1  6  f2-  0.29358
                                    2  6  s    2.00802    2  5  px  -0.33793    2  5  py  -0.60135    2  5  pz   0.50390
                                    3  4  s   -0.43598    4  5  s   -0.58554    6  5  s   -0.62156    7  4  s   -0.41332
                                    8  5  s   -2.33159    8  4  px   0.59603    8  4  py   0.82707    8  4  pz  -0.66611
                                    9  3  s    1.46072    9  4  s    4.83385   10  5  s   -0.47135
   80.1     0.00000     0.07157     1  6  s    0.39026    1  7  s    0.28150    1  8  s    0.37928    1 11  s    7.04555
                                    1 10  px  -0.65961    1 10  py  -0.37964    1 10  pz   0.29787    1  4  d1-  0.31188
                                    3  3  s   -0.61420    3  4  s   -2.41431    4  4  px  -0.33799    4  4  py   0.44575
                                    5  3  s   -0.49883    5  4  s   -1.90409    6  4  pz  -0.52022    7  3  s   -0.57577
                                    7  4  s   -2.19677    8  5  s    0.74512    9  3  s   -0.53811    9  4  s   -2.12109
                                   10  4  px   0.40987
   81.1     0.00000     0.09962     1  4  s   -0.60391    1  5  s   -1.90996    1  6  s   -6.99064    1  7  s   -9.92472
                                    1  8  s    0.58509    1  9  s    0.42922    1 11  s   14.23463    1  5  px   0.84586
                                    1  5  py   1.23909    1  5  pz  -1.06767    1  6  px   1.53213    1  6  py   2.01161
                                    1  6  pz  -1.67760    1  7  px   0.44803    1  7  py   0.83432    1  7  pz  -0.74593
                                    1 10  px  -1.48283    1 10  py  -2.07362    1 10  pz   1.68291    1  4  d2-  0.28204
                                    1  4  d1- -0.45256    1  8  d2-  0.59912    1  8  d1+ -0.32164    1  8  d2+ -0.47106
                                    1  8  d1- -0.99951    1  2  f2+  0.29096    2  6  s   -4.14266    2  4  px   0.32092
                                    2  4  py   0.53719    2  4  pz  -0.43933    2  5  px   0.50486    2  5  py   0.79719
                                    2  5  pz  -0.65899    3  3  s   -0.93710    3  4  s   -1.87642    3  3  px  -0.39233
                                    3  3  py   0.25716    4  5  s    3.26968    4  4  px   0.56923    4  4  py  -0.27616
                                    5  3  s   -0.74867    5  4  s   -1.80033    5  3  px   0.33536    5  3  pz   0.34783
                                    6  5  s    2.97679    6  4  py   0.58649    6  4  pz   0.38563    7  3  s   -0.83623
                                    7  4  s   -1.88496    7  3  py  -0.33750    7  3  pz  -0.31560    8  5  s    1.94353
                                    8  3  py   0.32284    8  3  pz  -0.26906    8  4  py   0.72907    8  4  pz  -0.63280
                                    9  2  s    0.40152    9  4  s   -3.39876   10  5  s    2.87528   10  4  px  -0.47574
                                   10  4  pz  -0.66641
   82.1     0.00000     0.10616     1  6  s   -0.80990    1  7  s   -1.15345    1 11  s    1.30972    1  5  px  -0.69691
                                    1  5  py   0.77771    1  6  px  -2.24870    1  6  py   2.02486    1  6  pz   0.85944
                                    1  7  px   0.27876    1 10  px   0.89479    1 10  py  -0.98736    1 10  pz  -0.28879
                                    1  4  d1+ -0.30466    1  4  d2+  0.41968    1  8  d0   0.37783    1  8  d1+ -1.39360
                                    1  8  d2+  1.72533    1  8  d1-  0.25406    1  2  f0   0.38501    1  2  f3+  0.43242
                                    2  5  px  -0.40177    2  5  py   0.36238    3  3  s    0.57342    3  4  s   -0.30139
                                    3  3  py  -0.31002    4  5  s   -1.89746    4  4  px   0.40197    4  4  py   0.94223
                                    4  4  pz  -0.70182    5  3  s   -0.25704    6  5  s    1.39327    6  4  py  -0.42866
                                    6  4  pz   0.53926    7  3  s   -0.39930    8  5  s    0.51498    8  4  px   0.96162
                                    8  4  py  -0.63345    8  4  pz  -0.47334    9  4  s   -0.25281   10  5  s    0.87682
                                   10  4  py  -0.32440


 HOMO     72.1    -0.417233 =     -11.3535eV
 LUMO     73.1     0.022771 =       0.6196eV
 LUMO-HOMO         0.440004 =      11.9731eV

 Orbitals saved in record  2100.2


 **********************************************************************************************************************************
 DATASETS  * FILE   NREC   LENGTH (MB)   RECORD NAMES
              1      22       48.65       500      610      700      900      950      970     1000      129      960     1700   
                                          VAR    BASINP    GEOM    SYMINP    ZMAT    AOBASIS   BASIS     P2S    ABASIS    OPER   
                                         1101     1401     1411     1412     1650     1100     1400     1410     1200     1210   
                                          SR      EKINR    POTR     PVPR    MOLCAS      S      EKIN      POT      H0       H01  
                                         1080     1600   
                                         AOSYM     SMH  

              2       6       15.75       500      610      700     1000      520     2100   
                                          VAR    BASINP    GEOM     BASIS   MCVARS     RHF  

 PROGRAMS   *        TOTAL    HF-SCF       INT      FILE
 CPU TIMES  *       581.10    197.07    383.78      0.01
 REAL TIME  *       655.90 SEC
 DISK USED  *        80.89 MB (local),       90.98 GB (total)
 GA USED    *         0.01 MB       (max)       0.00 MB       (current)
 **********************************************************************************************************************************


 PROGRAM * CCSD (Closed-shell coupled cluster)     Authors: C. Hampel, H.-J. Werner, 1991, M. Deegan, P.J. Knowles, 1992


 Convergence thresholds:  THRVAR = 1.00D-08  THRDEN = 1.00D-06

 CCSD(T)     terms to be evaluated (factor= 1.000)


 Number of core orbitals:          48 (  48 )
 Number of closed-shell orbitals:  24 (  24 )
 Number of external orbitals:     415 ( 415 )

 Molecular orbitals read from record     2100.2  Type=RHF/CANONICAL  

 Number of N-1 electron functions:              24
 Number of N-2 electron functions:             300
 Number of singly external CSFs:              9960
 Number of doubly external CSFs:          49605780
 Total number of CSFs:                    49615741

 Length of J-op  integral file:               0.00 MB
 Length of K-op  integral file:              16.29 MB
 Length of 3-ext integral record:             0.00 MB

 Memory could be reduced to 2010.25 Mwords without degradation in triples

 Integral transformation finished. Total CPU:1043.43 sec, npass=  1  Memory used:1565.86 MW

 Reference energy:                 -27984.42913844

 MP2 singlet pair energy:              -0.97714651
 MP2 triplet pair energy:              -0.65836968
 MP2 correlation energy:               -1.63551619
 MP2 total energy:                 -27986.06465463

 SCS-MP2 correlation energy:           -1.58222806   (PS=  1.200000  PT=  0.333333)
 SCS-MP2 total energy:             -27986.01136650

 ITER.      SQ.NORM     CORR.ENERGY   TOTAL ENERGY   ENERGY CHANGE        DEN1      VAR(S)    VAR(P)  DIIS     TIME  TIME/IT
   1      1.44382434    -1.64665794-27986.07579638    -0.01114175     0.04934389  0.27D-01  0.11D-01  1  1  2412.04   789.94
   2      1.47456677    -1.63849942-27986.06763786     0.00815852    -0.04162746  0.36D-03  0.21D-02  2  2  3217.99   804.06
   3      1.49476756    -1.64068039-27986.06981883    -0.00218097    -0.00534461  0.11D-02  0.14D-03  3  3  4094.42   832.48
   4      1.50616664    -1.63948321-27986.06862165     0.00119717    -0.00349827  0.19D-03  0.36D-04  4  4  5043.26   865.60
   5      1.51509123    -1.63884306-27986.06798150     0.00064015    -0.00165580  0.40D-04  0.47D-05  5  5  5998.72   886.59
   6      1.51782398    -1.63869243-27986.06783087     0.00015063    -0.00019255  0.58D-05  0.17D-05  6  6  6960.65   902.16
   7      1.51907846    -1.63857766-27986.06771610     0.00011477    -0.00004929  0.14D-05  0.25D-06  6  1  8138.27   945.57
   8      1.51943965    -1.63857287-27986.06771130     0.00000480    -0.00005181  0.26D-06  0.63D-07  6  2  9322.55   977.93
   9      1.51949661    -1.63857772-27986.06771615    -0.00000485     0.00001315  0.67D-07  0.13D-07  6  4 10034.66   950.27
  10      1.51952117    -1.63857941-27986.06771785    -0.00000169    -0.00000268  0.14D-07  0.37D-08  6  3 10716.18   924.99
  11      1.51953636    -1.63857847-27986.06771690     0.00000094    -0.00000375  0.46D-08  0.87D-09  6  5 11409.69   905.80
  12      1.51953044    -1.63858046-27986.06771890    -0.00000200     0.00000428  0.10D-08  0.32D-09  6  1 12193.57   897.35
  13      1.51953018    -1.63857998-27986.06771842     0.00000048    -0.00000017  0.13D-09  0.46D-10  6  6 12845.90   879.69
  14      1.51952857    -1.63858052-27986.06771896    -0.00000054     0.00000075  0.22D-10  0.67D-11  6  2 13480.64   863.36

 Norm of t1 vector:      0.23273407      S-energy:    -0.00000007      T1 diagnostic:  0.02375332
                                                                       D1 diagnostic:  0.06577425
                                                                       D2 diagnostic:  0.14714923 (internal)

 Singles amplitudes (print threshold =  0.500E-01):

         I         SYM. A    A   T(IA)

        16         1        20      0.05705213

   CPU time for triples:   3018.22 sec for i =  1 - 11 / 24 (~  10.7 % done)
   CPU time for triples:   2591.75 sec for i = 12 - 17 / 24 (~  37.0 % done)
   CPU time for triples:   3535.80 sec for i = 18 - 20 / 24 (~  59.0 % done)
   CPU time for triples:   2489.86 sec for i = 21 - 22 / 24 (~  77.7 % done)
   CPU time for triples:   3583.49 sec for i = 23 - 24 / 24 (  100.0 % done)

 Total CPU time for triples:  15222.83 sec


 RESULTS
 =======

  Reference energy                   -27984.4291384376    
  CCSD singlet pair energy             -1.053001709925
  CCSD triplet pair energy             -0.585578745156
  CCSD correlation energy              -1.638580522790

  Triples (T) contribution             -0.080884292263
  Total correlation energy             -1.719464815052

  CCSD total energy                  -27986.0677189604    
  CCSD[T] energy                     -27986.1591528729    
  CCSD-T energy                      -27986.1450944336    
 !CCSD(T) total energy               -27986.1486032527    

 Timing summary (sec):

 STEP                 CPU(USER)    SYS     CPU(TOT)    WALL
 Transformation       1046.23     48.32   1094.55   1105.35
 CCSD iterations     12453.64    233.97  12687.61  12124.81
 Triples             15222.83    201.85  15424.68  15463.11

 Program statistics:

 Available memory in ccsd:              2499997624
 Min. memory needed in ccsd:             114731579
 Max. memory used in ccsd:               160716983
 Max. memory used in cckext:             144840417 (14 integral passes)



 **********************************************************************************************************************************
 DATASETS  * FILE   NREC   LENGTH (MB)   RECORD NAMES
              1      23     7426.44       500      610      700      900      950      970     1000      129      960     1700   
                                          VAR    BASINP    GEOM    SYMINP    ZMAT    AOBASIS   BASIS     P2S    ABASIS    OPER   
                                         1101     1401     1411     1412     1650     1100     1400     1410     1200     1210   
                                          SR      EKINR    POTR     PVPR    MOLCAS      S      EKIN      POT      H0       H01  
                                         1080     1600     1380   
                                         AOSYM     SMH     JKOP   

              2       6       15.75       500      610      700     1000      520     2100   
                                          VAR    BASINP    GEOM     BASIS   MCVARS     RHF  

 PROGRAMS   *        TOTAL   CCSD(T)    HF-SCF       INT      FILE
 CPU TIMES  *     28721.17  28140.07    197.07    383.78      0.01
 REAL TIME  *     29357.25 SEC
 DISK USED  *        11.89 GB (local),      153.11 GB (total)
 SF USED    *        12.65 GB
 GA USED    *         0.01 MB       (max)       0.00 MB       (current)
 **********************************************************************************************************************************
 SETTING ENERGY_HF(1)   =    -27984.42913844  AU                              
 SETTING CORR_MP2(1)    =        -1.63551619  AU                              
 SETTING CORR_CCSDT(1)  =        -1.71946482  AU                              

 CCSD(T)/PA=CC-PVTZ-X2C,O=AUG-CC-PVTZ-X2C,H=AUG-CC-PVTZ-X2C,CL=AUG-CC-PVTZ-X2C energy= -27986.148603252677

         CCSD(T)          HF-SCF
 -27986.14860325 -27984.42913844
 **********************************************************************************************************************************
 Molpro calculation terminated
