
 Working directory              : /state/partition2/shaaban/999368.phlam-s-sakura/molpro.cdINxG2FXo/
 Global scratch directory       : /state/partition2/shaaban/999368.phlam-s-sakura/molpro.cdINxG2FXo/
 Wavefunction directory         : /home/shaaban/wfu/
 Main file repository           : /state/partition2/shaaban/999368.phlam-s-sakura/molpro.cdINxG2FXo/

 id        : lill

 Nodes      nprocs
 u-0-6.local    8
 GA implementation: MPI file
 GA implementation (serial work in mppx): MPI file

 Using customized tuning parameters: mindgm=1; mindgv=20; mindgc=4; mindgr=1; noblas=0; minvec=7
 default implementation of scratch files=sf  


 Variables initialized (1040), CPU time= 0.00 sec
 ***,Pa(OH)4(NO3) - MP2 and CCSD(T)
 memory,2500, m;
 file, 1, pa_oh4_no3.ccsd-tx.int, new;
 file, 2, pa_oh4_no3.ccsd-tx.wfu, new;
 
 gprint, basis;
 gprint, orbital=10;
 
 nosym;
 
 geomtyp=xyz;
 
 geometry={
 Including file /home/shaaban/molpro/PhD/nitrate/gp/pa_oh4_no3/pa_oh4_no3-B22-gp.xyz
 }
 
 charge=0;
 
                                                                                 ! Select X2C SR Hamiltonian
 SET,DKHO=101
 
                                                                                 ! Calculation with VTZ basis set
 basis={
 Pa=cc-pVTZ-X2C;
 O=aug-cc-pVTZ-X2C;
 H=aug-cc-pVTZ-X2C;
 N=aug-cc-pVTZ-X2C;
 }
 
                                                                                 ! Hartree-Fock calculation
 {hf;}
 
                                                                                 ! MP2 and CCSD(T) calculation
 {ccsd(t);}
 
                                                                  ! Save HF energy and CCSD(T) correlation energy for VTZ basis set
 energy_hf(1) = energr(1);
 corr_mp2(1) = EMP2-energr(1);
 corr_ccsdt(1) = ENERGT(1)-energr(1);
 
 Commands initialized (846), CPU time= 0.00 sec, 717 directives.
 Default parameters read. Elapsed time= 0.20 sec

 Checking input...
 Passed
1


                                         ***  PROGRAM SYSTEM MOLPRO  ***
                                       Copyright, TTI GmbH Stuttgart, 2015
                                    Version 2023.2 linked Fri Sep 22 09:27:09 2023


 **********************************************************************************************************************************
 LABEL *   Pa(OH)4(NO3) - MP2 and CCSD(T)                                                                                                                                
  64 bit mpp version                                                                     DATE: 11-Jan-24          TIME: 16:50:21  
 **********************************************************************************************************************************

 SHA1:             3c61bfe44d37c8635c785372c339f5cbdd4e4b59
 **********************************************************************************************************************************

 Memory per process:      2500 MW
 Total memory per node:  20000 MW

 GA preallocation disabled
 GA check disabled

 Variable memory set to 2500.0 MW



 Permanent file  1  pa_oh4_no3.ccsd-tx.int           assigned.  Implementation=df  
 Permanent file  2  pa_oh4_no3.ccsd-tx.wfu           assigned.  Implementation=df  



 **********************************************************************************************************************************
 DATASETS  * FILE   NREC   LENGTH (MB)   RECORD NAMES
              1       1        0.06       500   
                                          VAR  

              2       1        0.06       500   
                                          VAR  

 PROGRAMS   *        TOTAL      FILE
 CPU TIMES  *         0.13      0.01
 REAL TIME  *        12.67 SEC
 DISK USED  *         0.16 MB (local),        1.32 MB (total)
 **********************************************************************************************************************************


 SETTING GEOMTYP        =    XYZ
 ZSYMEL=NOSYM


 Geometry recognized as XYZ

 SETTING CHARGE         =      0.0000000D+00                                  
 SETTING DKHO           =       101.00000000                                  
 SETTING BASIS          =    PA=CC-PVTZ-X2C,O=AUG-CC-PVTZ-X2C,H=AUG-CC-PVTZ-X2C,N=AUG-CC-PVTZ-X2C


 Recomputing integrals since basis changed


 Using spherical harmonics

 Library entry PA     S cc-pVTZ-X2C          selected for orbital group  1
 Library entry PA     P cc-pVTZ-X2C          selected for orbital group  1
 Library entry PA     D cc-pVTZ-X2C          selected for orbital group  1
 Library entry PA     F cc-pVTZ-X2C          selected for orbital group  1
 Library entry PA     G cc-pVTZ-X2C          selected for orbital group  1
 Library entry PA     H cc-pVTZ-X2C          selected for orbital group  1
 Library entry O      S aug-cc-pVTZ-X2C      selected for orbital group  2
 Library entry O      P aug-cc-pVTZ-X2C      selected for orbital group  2
 Library entry O      D aug-cc-pVTZ-X2C      selected for orbital group  2
 Library entry O      F aug-cc-pVTZ-X2C      selected for orbital group  2
 Library entry H      S aug-cc-pVTZ-X2C      selected for orbital group  3
 Library entry H      P aug-cc-pVTZ-X2C      selected for orbital group  3
 Library entry H      D aug-cc-pVTZ-X2C      selected for orbital group  3
 Library entry N      S aug-cc-pVTZ-X2C      selected for orbital group 11
 Library entry N      P aug-cc-pVTZ-X2C      selected for orbital group 11
 Library entry N      D aug-cc-pVTZ-X2C      selected for orbital group 11
 Library entry N      F aug-cc-pVTZ-X2C      selected for orbital group 11


 PROGRAM * SEWARD (Integral evaluation for generally contracted gaussian basis sets)     Author: Roland Lindh, 1990

 Geometry written to block  1 of record 700


 Point group  C1  



 ATOMIC COORDINATES

 NR  ATOM    CHARGE       X              Y              Z

   1  PA     91.00    0.447918489    0.537917219    0.777884018
   2  O       8.00    2.021641041    1.368396128    4.281570318
   3  H       1.00   -4.911295606    1.606553677    2.568707722
   4  O       8.00   -3.214067892    1.328921808    2.000680539
   5  H       1.00    2.501112593    1.455349563    6.028850925
   6  O       8.00   -0.680004368    0.153501921   -2.966782464
   7  H       1.00   -1.455353320   -0.253115090   -4.555519745
   8  O       8.00    0.989278090   -3.339682860    1.216476489
   9  H       1.00    1.141855596   -5.140425999    1.337380037
  10  O       8.00    1.939529881    4.784585667   -0.499187283
  11  O       8.00    4.620793853    1.727342827   -0.980671007
  12  N       7.00    4.166133480    4.107201215   -1.215314472
  13  O       8.00    5.688471219    5.571518685   -2.032462704

 Bond lengths in Bohr (Angstrom)

 1-2  3.929645732  1-3  5.750670321  1-4  3.940947075  1-5  5.712262388  1-6  3.929696191
     ( 2.079478968)     ( 3.043123681)     ( 2.085459381)     ( 3.022799078)     ( 2.079505670)

  1- 7  5.717811767   1- 8  3.939697443   1- 9  5.747883629   1-10  4.678675941   1-11  4.681894687
       ( 3.025735683)       ( 2.084798105)       ( 3.041649027)       ( 2.475848685)       ( 2.477551972)

  1-12  5.526097283   2- 5  1.813957934   3- 4  1.811164335   6- 7  1.813998220   8- 9  1.811235329
       ( 2.924284748)       ( 0.959905200)       ( 0.958426891)       ( 0.959926519)       ( 0.958464460)

 10-12  2.435046495  11-12  2.434234902  12-13  2.264833123
       ( 1.288571113)       ( 1.288141636)       ( 1.198498075)

 Bond angles

  1-2-5  167.11393438   1-3-4    1.89201796   1-4-3  177.23858083   1-5-2    8.82504068

  1-6-7  168.29137681   1-7-6    8.01726349   1-8-9  175.98294084   1-9-8    2.75216390

  1-10-12   96.85163105   1-11-12   96.78292201   1-12-10   57.20401805   1-12-11   57.27802265

  1-12-13  179.94562660   2- 1- 3   93.22664301   2- 1- 4   93.04164406   2- 1- 5    4.06102494

  2-1-6  170.14446139   2-1-7  173.82788484   2-1-8   93.07923545   2-1-9   94.22324625

  2- 1-10   85.63383918   2- 1-11   85.65676671   2- 1-12   85.16029149   3- 1- 4    0.86940122

  3-1-5   91.08068100   3-1-6   92.71910731   3-1-7   90.34235349   3-1-8  106.03881527

  3- 1- 9  105.41320212   3- 1-10  102.32405392   3- 1-11  154.20644886   3- 1-12  128.26807046

  4-1-5   90.94737858   4-1-6   92.78547386   4-1-7   90.45164185   4-1-8  106.89945579

  4- 1- 9  106.27613135   4- 1-10  101.46415693   4- 1-11  153.34732805   4- 1-12  127.40842290

  5-1-6  174.17727903   5-1-7  177.86799737   5-1-8   90.36378157   5-1-9   91.47789041

  5- 1-10   89.45815980   5- 1-11   89.08982987   5- 1-12   89.19666545   6- 1- 7    3.69135970

  6- 1- 8   92.82261180   6- 1- 9   91.76320879   6- 1-10   85.42257268   6- 1-11   85.56945912

  6- 1-12   84.98608836   7- 1- 8   90.76876281   7- 1- 9   89.67401979   7- 1-10   88.68711126

  7- 1-11   88.93815812   7- 1-12   88.67554326   8- 1- 9    1.26489525   8- 1-10  151.63476043

  8- 1-11   99.75216213   8- 1-12  125.69093414   9- 1-10  152.22235743   9- 1-11  100.36582243

  9- 1-12  126.29612507  10- 1-11   51.88340566  10- 1-12   25.94435090  10-12-11  114.48203882

 10-12-13  122.74331428  11- 1-12   25.93905534  11-12-13  122.77464689


 BASIS DATA

   Nr Sym  Nuc  Type         Exponents   Contraction coefficients

    1.1 A     1  1s    57606659.000000     0.002669    0.000875   -0.001011   -0.000162    0.000138   -0.000062
                                           0.000029    0.000051   -0.000067   -0.000085    0.000000
    2.1 A              15333099.000000     0.001763    0.000577   -0.000669   -0.000107    0.000091   -0.000041
                                           0.000019    0.000034   -0.000045   -0.000056    0.000000
    3.1 A               5244434.800000     0.005688    0.001860   -0.002159   -0.000346    0.000294   -0.000133
                                           0.000061    0.000110   -0.000144   -0.000182    0.000000
    4.1 A               1993947.300000     0.005833    0.001897   -0.002226   -0.000357    0.000304   -0.000137
                                           0.000063    0.000114   -0.000148   -0.000188    0.000000
    5.1 A                831464.670000     0.012471    0.004046   -0.004768   -0.000766    0.000651   -0.000294
                                           0.000135    0.000243   -0.000318   -0.000402    0.000000
    6.1 A                367473.800000     0.015337    0.004923   -0.005922   -0.000954    0.000810   -0.000366
                                           0.000168    0.000303   -0.000396   -0.000502    0.000000
    7.1 A                170948.980000     0.027802    0.008860   -0.010807   -0.001745    0.001481   -0.000669
                                           0.000307    0.000553   -0.000723   -0.000913    0.000000
    8.1 A                 82498.208000     0.037893    0.011845   -0.014983   -0.002432    0.002060   -0.000931
                                           0.000428    0.000771   -0.001008   -0.001281    0.000000
    9.1 A                 41068.557000     0.063446    0.019489   -0.025472   -0.004156    0.003514   -0.001588
                                           0.000730    0.001312   -0.001713   -0.002158    0.000000
   10.1 A                 20931.097000     0.090970    0.026964   -0.037612   -0.006192    0.005220   -0.002360
                                           0.001084    0.001959   -0.002562   -0.003271    0.000000
   11.1 A                 10881.858000     0.141353    0.040137   -0.060450   -0.010069    0.008456   -0.003823
                                           0.001756    0.003150   -0.004109   -0.005142    0.000000
                           5751.850200     0.192150    0.050328   -0.087023   -0.014758    0.012320   -0.005570
                                           0.002559    0.004641   -0.006081   -0.007843    0.000000
                           3085.413800     0.245625    0.057494   -0.119370   -0.020746    0.017180   -0.007769
                                           0.003568    0.006365   -0.008281   -0.010186    0.000000
                           1676.302600     0.236828    0.048791   -0.122988   -0.021795    0.017936   -0.008112
                                           0.003728    0.006861   -0.009046   -0.012129    0.000000
                            920.364860     0.144288    0.051386   -0.045258   -0.005640    0.005268   -0.002373
                                           0.001085    0.001652   -0.001974   -0.001042    0.000000
                            507.302700    -0.025759    0.115725    0.203246    0.056561   -0.041187    0.018724
                                          -0.008598   -0.014902    0.019190    0.021482    0.000000
                            285.301180    -0.127248    0.207489    0.548666    0.172341   -0.122683    0.055908
                                          -0.025737   -0.047910    0.063712    0.088054    0.000000
                            162.083520    -0.106345    0.166212    0.606264    0.222723   -0.155054    0.070944
                                          -0.032607   -0.056240    0.072273    0.078654    0.000000
                             92.502257    -0.075897    0.111536    0.036795   -0.036386    0.019294   -0.009062
                                           0.004086    0.001475    0.001168    0.030443    0.000000
                             54.996696    -0.159518    0.199400   -0.676887   -0.645265    0.447335   -0.211910
                                           0.098395    0.193270   -0.267108   -0.419400    0.000000
                             32.498055    -0.126680    0.162427   -0.590845   -0.685716    0.477369   -0.227312
                                           0.105023    0.171409   -0.214999   -0.161690    0.000000
                             19.139224    -0.031866    0.038627   -0.102127    0.187644   -0.152132    0.072681
                                          -0.032972   -0.027495    0.028200   -0.136514    0.000000
                             11.382710     0.001867    0.000895    0.103491    0.862021   -0.976205    0.547811
                                          -0.263192   -0.581563    0.872312    1.708580    0.000000
                              6.786052     0.000710   -0.001446    0.057992    0.445035   -0.716251    0.417708
                                          -0.198179   -0.257965    0.233684   -0.803168    0.000000
                              4.149622     0.000624    0.000224    0.007493    0.066545    0.448492   -0.350229
                                           0.170540    0.219139   -0.310498    1.111350    0.000000
                              2.398648    -0.000456    0.000036    0.000333    0.014140    0.872214   -0.849732
                                           0.456257    1.306370   -2.312230   -7.677220    0.000000
                              1.389239     0.000090    0.000196   -0.000539    0.002102    0.319316   -0.431871
                                           0.230358    0.273179    0.312923   10.897300    0.000000
                              0.799685    -0.000092   -0.000045    0.000120    0.000488    0.047531    0.436228
                                          -0.277578   -1.772950    4.829150   -2.756210    0.000000
                              0.427327     0.000032    0.000027   -0.000069   -0.000720    0.030738    0.715435
                                          -0.561943   -0.897998   -3.625440   -6.603630    0.000000
                              0.220940    -0.000014   -0.000008    0.000023   -0.000086    0.010089    0.233487
                                          -0.326569    1.531090   -1.220420    6.760400    0.000000
                              0.086038     0.000004    0.000003   -0.000008   -0.000060    0.001152    0.063336
                                           0.301677    1.025940    2.677810   -2.145480    0.000000
                              0.041219    -0.000002   -0.000001    0.000004   -0.000044    0.001537    0.118995
                                           0.692734   -0.772162   -0.536170   -1.021350    0.000000
                              0.018781     0.000001    0.000000   -0.000001   -0.000024    0.000590    0.043903
                                           0.253879   -0.484754   -0.805222    1.252960    1.000000
   12.1 A     1  2px   52575799.000000     0.000013
                       15301659.000000     0.000017
                        4822461.600000     0.000052
                        1632045.600000     0.000107
                         584338.640000     0.000256
                         219508.320000     0.000572
                          86085.039000     0.001336
                          35172.956000     0.003129
                          14975.745000     0.007503
                           6652.821900     0.017986
                           3084.270200     0.042103
                           1489.211300     0.090969
                            745.288670     0.167976
                            384.521300     0.234709
                            203.927220     0.220200
                            110.523340     0.174708
                             61.345569     0.190642
                             34.404375     0.137246
                             19.094147     0.033402
                             10.684628    -0.000867
                              5.931463    -0.000935
                              3.230992    -0.000009
                              1.730655     0.000164
                              0.869483     0.000022
                              0.440589     0.000009
                              0.215859    -0.000000
                              0.091015     0.000001
                              0.040174    -0.000000
                              0.017215     0.000000
   13.1 A     1  2py   52575799.000000     0.000013
                       15301659.000000     0.000017
                        4822461.600000     0.000052
                        1632045.600000     0.000107
                         584338.640000     0.000256
                         219508.320000     0.000572
                          86085.039000     0.001336
                          35172.956000     0.003129
                          14975.745000     0.007503
                           6652.821900     0.017986
                           3084.270200     0.042103
                           1489.211300     0.090969
                            745.288670     0.167976
                            384.521300     0.234709
                            203.927220     0.220200
                            110.523340     0.174708
                             61.345569     0.190642
                             34.404375     0.137246
                             19.094147     0.033402
                             10.684628    -0.000867
                              5.931463    -0.000935
                              3.230992    -0.000009
                              1.730655     0.000164
                              0.869483     0.000022
                              0.440589     0.000009
                              0.215859    -0.000000
                              0.091015     0.000001
                              0.040174    -0.000000
                              0.017215     0.000000
   14.1 A     1  2pz   52575799.000000     0.000013
                       15301659.000000     0.000017
                        4822461.600000     0.000052
                        1632045.600000     0.000107
                         584338.640000     0.000256
                         219508.320000     0.000572
                          86085.039000     0.001336
                          35172.956000     0.003129
                          14975.745000     0.007503
                           6652.821900     0.017986
                           3084.270200     0.042103
                           1489.211300     0.090969
                            745.288670     0.167976
                            384.521300     0.234709
                            203.927220     0.220200
                            110.523340     0.174708
                             61.345569     0.190642
                             34.404375     0.137246
                             19.094147     0.033402
                             10.684628    -0.000867
                              5.931463    -0.000935
                              3.230992    -0.000009
                              1.730655     0.000164
                              0.869483     0.000022
                              0.440589     0.000009
                              0.215859    -0.000000
                              0.091015     0.000001
                              0.040174    -0.000000
                              0.017215     0.000000
   15.1 A     1  2px   52575799.000000    -0.000015
                       15301659.000000    -0.000020
                        4822461.600000    -0.000063
                        1632045.600000    -0.000128
                         584338.640000    -0.000307
                         219508.320000    -0.000688
                          86085.039000    -0.001611
                          35172.956000    -0.003789
                          14975.745000    -0.009145
                           6652.821900    -0.022135
                           3084.270200    -0.052666
                           1489.211300    -0.116756
                            745.288670    -0.223673
                            384.521300    -0.322150
                            203.927220    -0.236330
                            110.523340     0.145050
                             61.345569     0.527334
                             34.404375     0.400957
                             19.094147     0.019469
                             10.684628    -0.122609
                              5.931463    -0.050931
                              3.230992    -0.002720
                              1.730655     0.002231
                              0.869483     0.000423
                              0.440589     0.000084
                              0.215859     0.000018
                              0.091015     0.000006
                              0.040174    -0.000002
                              0.017215     0.000001
   16.1 A     1  2py   52575799.000000    -0.000015
                       15301659.000000    -0.000020
                        4822461.600000    -0.000063
                        1632045.600000    -0.000128
                         584338.640000    -0.000307
                         219508.320000    -0.000688
                          86085.039000    -0.001611
                          35172.956000    -0.003789
                          14975.745000    -0.009145
                           6652.821900    -0.022135
                           3084.270200    -0.052666
                           1489.211300    -0.116756
                            745.288670    -0.223673
                            384.521300    -0.322150
                            203.927220    -0.236330
                            110.523340     0.145050
                             61.345569     0.527334
                             34.404375     0.400957
                             19.094147     0.019469
                             10.684628    -0.122609
                              5.931463    -0.050931
                              3.230992    -0.002720
                              1.730655     0.002231
                              0.869483     0.000423
                              0.440589     0.000084
                              0.215859     0.000018
                              0.091015     0.000006
                              0.040174    -0.000002
                              0.017215     0.000001
   17.1 A     1  2pz   52575799.000000    -0.000015
                       15301659.000000    -0.000020
                        4822461.600000    -0.000063
                        1632045.600000    -0.000128
                         584338.640000    -0.000307
                         219508.320000    -0.000688
                          86085.039000    -0.001611
                          35172.956000    -0.003789
                          14975.745000    -0.009145
                           6652.821900    -0.022135
                           3084.270200    -0.052666
                           1489.211300    -0.116756
                            745.288670    -0.223673
                            384.521300    -0.322150
                            203.927220    -0.236330
                            110.523340     0.145050
                             61.345569     0.527334
                             34.404375     0.400957
                             19.094147     0.019469
                             10.684628    -0.122609
                              5.931463    -0.050931
                              3.230992    -0.002720
                              1.730655     0.002231
                              0.869483     0.000423
                              0.440589     0.000084
                              0.215859     0.000018
                              0.091015     0.000006
                              0.040174    -0.000002
                              0.017215     0.000001
   18.1 A     1  2px   52575799.000000     0.000002
                       15301659.000000     0.000002
                        4822461.600000     0.000007
                        1632045.600000     0.000015
                         584338.640000     0.000036
                         219508.320000     0.000081
                          86085.039000     0.000191
                          35172.956000     0.000452
                          14975.745000     0.001103
                           6652.821900     0.002719
                           3084.270200     0.006655
                           1489.211300     0.015415
                            745.288670     0.031304
                            384.521300     0.047289
                            203.927220     0.017930
                            110.523340    -0.123036
                             61.345569    -0.327485
                             34.404375    -0.190153
                             19.094147     0.365341
                             10.684628     0.614487
                              5.931463     0.253665
                              3.230992     0.025247
                              1.730655     0.001457
                              0.869483    -0.000189
                              0.440589     0.000178
                              0.215859    -0.000001
                              0.091015     0.000034
                              0.040174    -0.000010
                              0.017215     0.000003
   19.1 A     1  2py   52575799.000000     0.000002
                       15301659.000000     0.000002
                        4822461.600000     0.000007
                        1632045.600000     0.000015
                         584338.640000     0.000036
                         219508.320000     0.000081
                          86085.039000     0.000191
                          35172.956000     0.000452
                          14975.745000     0.001103
                           6652.821900     0.002719
                           3084.270200     0.006655
                           1489.211300     0.015415
                            745.288670     0.031304
                            384.521300     0.047289
                            203.927220     0.017930
                            110.523340    -0.123036
                             61.345569    -0.327485
                             34.404375    -0.190153
                             19.094147     0.365341
                             10.684628     0.614487
                              5.931463     0.253665
                              3.230992     0.025247
                              1.730655     0.001457
                              0.869483    -0.000189
                              0.440589     0.000178
                              0.215859    -0.000001
                              0.091015     0.000034
                              0.040174    -0.000010
                              0.017215     0.000003
   20.1 A     1  2pz   52575799.000000     0.000002
                       15301659.000000     0.000002
                        4822461.600000     0.000007
                        1632045.600000     0.000015
                         584338.640000     0.000036
                         219508.320000     0.000081
                          86085.039000     0.000191
                          35172.956000     0.000452
                          14975.745000     0.001103
                           6652.821900     0.002719
                           3084.270200     0.006655
                           1489.211300     0.015415
                            745.288670     0.031304
                            384.521300     0.047289
                            203.927220     0.017930
                            110.523340    -0.123036
                             61.345569    -0.327485
                             34.404375    -0.190153
                             19.094147     0.365341
                             10.684628     0.614487
                              5.931463     0.253665
                              3.230992     0.025247
                              1.730655     0.001457
                              0.869483    -0.000189
                              0.440589     0.000178
                              0.215859    -0.000001
                              0.091015     0.000034
                              0.040174    -0.000010
                              0.017215     0.000003
   21.1 A     1  2px   52575799.000000    -0.000002
                       15301659.000000    -0.000003
                        4822461.600000    -0.000009
                        1632045.600000    -0.000018
                         584338.640000    -0.000043
                         219508.320000    -0.000097
                          86085.039000    -0.000228
                          35172.956000    -0.000537
                          14975.745000    -0.001302
                           6652.821900    -0.003177
                           3084.270200    -0.007652
                           1489.211300    -0.017311
                            745.288670    -0.034068
                            384.521300    -0.050256
                            203.927220    -0.027762
                            110.523340     0.078094
                             61.345569     0.225253
                             34.404375     0.124053
                             19.094147    -0.273486
                             10.684628    -0.553839
                              5.931463    -0.065277
                              3.230992     0.618524
                              1.730655     0.501044
                              0.869483     0.107343
                              0.440589     0.023201
                              0.215859     0.014691
                              0.091015     0.001511
                              0.040174     0.000132
                              0.017215    -0.000015
   22.1 A     1  2py   52575799.000000    -0.000002
                       15301659.000000    -0.000003
                        4822461.600000    -0.000009
                        1632045.600000    -0.000018
                         584338.640000    -0.000043
                         219508.320000    -0.000097
                          86085.039000    -0.000228
                          35172.956000    -0.000537
                          14975.745000    -0.001302
                           6652.821900    -0.003177
                           3084.270200    -0.007652
                           1489.211300    -0.017311
                            745.288670    -0.034068
                            384.521300    -0.050256
                            203.927220    -0.027762
                            110.523340     0.078094
                             61.345569     0.225253
                             34.404375     0.124053
                             19.094147    -0.273486
                             10.684628    -0.553839
                              5.931463    -0.065277
                              3.230992     0.618524
                              1.730655     0.501044
                              0.869483     0.107343
                              0.440589     0.023201
                              0.215859     0.014691
                              0.091015     0.001511
                              0.040174     0.000132
                              0.017215    -0.000015
   23.1 A     1  2pz   52575799.000000    -0.000002
                       15301659.000000    -0.000003
                        4822461.600000    -0.000009
                        1632045.600000    -0.000018
                         584338.640000    -0.000043
                         219508.320000    -0.000097
                          86085.039000    -0.000228
                          35172.956000    -0.000537
                          14975.745000    -0.001302
                           6652.821900    -0.003177
                           3084.270200    -0.007652
                           1489.211300    -0.017311
                            745.288670    -0.034068
                            384.521300    -0.050256
                            203.927220    -0.027762
                            110.523340     0.078094
                             61.345569     0.225253
                             34.404375     0.124053
                             19.094147    -0.273486
                             10.684628    -0.553839
                              5.931463    -0.065277
                              3.230992     0.618524
                              1.730655     0.501044
                              0.869483     0.107343
                              0.440589     0.023201
                              0.215859     0.014691
                              0.091015     0.001511
                              0.040174     0.000132
                              0.017215    -0.000015
   24.1 A     1  2px   52575799.000000     0.000001
                       15301659.000000     0.000001
                        4822461.600000     0.000004
                        1632045.600000     0.000008
                         584338.640000     0.000019
                         219508.320000     0.000043
                          86085.039000     0.000102
                          35172.956000     0.000240
                          14975.745000     0.000583
                           6652.821900     0.001422
                           3084.270200     0.003426
                           1489.211300     0.007745
                            745.288670     0.015249
                            384.521300     0.022470
                            203.927220     0.012451
                            110.523340    -0.035134
                             61.345569    -0.101385
                             34.404375    -0.055104
                             19.094147     0.131617
                             10.684628     0.274237
                              5.931463     0.008683
                              3.230992    -0.421618
                              1.730655    -0.381893
                              0.869483     0.226214
                              0.440589     0.602150
                              0.215859     0.367232
                              0.091015     0.055939
                              0.040174    -0.001129
                              0.017215     0.001121
   25.1 A     1  2py   52575799.000000     0.000001
                       15301659.000000     0.000001
                        4822461.600000     0.000004
                        1632045.600000     0.000008
                         584338.640000     0.000019
                         219508.320000     0.000043
                          86085.039000     0.000102
                          35172.956000     0.000240
                          14975.745000     0.000583
                           6652.821900     0.001422
                           3084.270200     0.003426
                           1489.211300     0.007745
                            745.288670     0.015249
                            384.521300     0.022470
                            203.927220     0.012451
                            110.523340    -0.035134
                             61.345569    -0.101385
                             34.404375    -0.055104
                             19.094147     0.131617
                             10.684628     0.274237
                              5.931463     0.008683
                              3.230992    -0.421618
                              1.730655    -0.381893
                              0.869483     0.226214
                              0.440589     0.602150
                              0.215859     0.367232
                              0.091015     0.055939
                              0.040174    -0.001129
                              0.017215     0.001121
   26.1 A     1  2pz   52575799.000000     0.000001
                       15301659.000000     0.000001
                        4822461.600000     0.000004
                        1632045.600000     0.000008
                         584338.640000     0.000019
                         219508.320000     0.000043
                          86085.039000     0.000102
                          35172.956000     0.000240
                          14975.745000     0.000583
                           6652.821900     0.001422
                           3084.270200     0.003426
                           1489.211300     0.007745
                            745.288670     0.015249
                            384.521300     0.022470
                            203.927220     0.012451
                            110.523340    -0.035134
                             61.345569    -0.101385
                             34.404375    -0.055104
                             19.094147     0.131617
                             10.684628     0.274237
                              5.931463     0.008683
                              3.230992    -0.421618
                              1.730655    -0.381893
                              0.869483     0.226214
                              0.440589     0.602150
                              0.215859     0.367232
                              0.091015     0.055939
                              0.040174    -0.001129
                              0.017215     0.001121
   27.1 A     1  2px   52575799.000000    -0.000000
                       15301659.000000    -0.000000
                        4822461.600000    -0.000001
                        1632045.600000    -0.000002
                         584338.640000    -0.000005
                         219508.320000    -0.000010
                          86085.039000    -0.000024
                          35172.956000    -0.000058
                          14975.745000    -0.000140
                           6652.821900    -0.000342
                           3084.270200    -0.000823
                           1489.211300    -0.001861
                            745.288670    -0.003664
                            384.521300    -0.005398
                            203.927220    -0.002991
                            110.523340     0.008482
                             61.345569     0.024454
                             34.404375     0.013272
                             19.094147    -0.032305
                             10.684628    -0.067432
                              5.931463    -0.001366
                              3.230992     0.110673
                              1.730655     0.103187
                              0.869483    -0.077840
                              0.440589    -0.217735
                              0.215859    -0.188345
                              0.091015     0.201020
                              0.040174     0.637069
                              0.017215     0.326669
   28.1 A     1  2py   52575799.000000    -0.000000
                       15301659.000000    -0.000000
                        4822461.600000    -0.000001
                        1632045.600000    -0.000002
                         584338.640000    -0.000005
                         219508.320000    -0.000010
                          86085.039000    -0.000024
                          35172.956000    -0.000058
                          14975.745000    -0.000140
                           6652.821900    -0.000342
                           3084.270200    -0.000823
                           1489.211300    -0.001861
                            745.288670    -0.003664
                            384.521300    -0.005398
                            203.927220    -0.002991
                            110.523340     0.008482
                             61.345569     0.024454
                             34.404375     0.013272
                             19.094147    -0.032305
                             10.684628    -0.067432
                              5.931463    -0.001366
                              3.230992     0.110673
                              1.730655     0.103187
                              0.869483    -0.077840
                              0.440589    -0.217735
                              0.215859    -0.188345
                              0.091015     0.201020
                              0.040174     0.637069
                              0.017215     0.326669
   29.1 A     1  2pz   52575799.000000    -0.000000
                       15301659.000000    -0.000000
                        4822461.600000    -0.000001
                        1632045.600000    -0.000002
                         584338.640000    -0.000005
                         219508.320000    -0.000010
                          86085.039000    -0.000024
                          35172.956000    -0.000058
                          14975.745000    -0.000140
                           6652.821900    -0.000342
                           3084.270200    -0.000823
                           1489.211300    -0.001861
                            745.288670    -0.003664
                            384.521300    -0.005398
                            203.927220    -0.002991
                            110.523340     0.008482
                             61.345569     0.024454
                             34.404375     0.013272
                             19.094147    -0.032305
                             10.684628    -0.067432
                              5.931463    -0.001366
                              3.230992     0.110673
                              1.730655     0.103187
                              0.869483    -0.077840
                              0.440589    -0.217735
                              0.215859    -0.188345
                              0.091015     0.201020
                              0.040174     0.637069
                              0.017215     0.326669
   30.1 A     1  2px   52575799.000000    -0.000001
                       15301659.000000    -0.000001
                        4822461.600000    -0.000003
                        1632045.600000    -0.000005
                         584338.640000    -0.000013
                         219508.320000    -0.000028
                          86085.039000    -0.000066
                          35172.956000    -0.000156
                          14975.745000    -0.000379
                           6652.821900    -0.000925
                           3084.270200    -0.002224
                           1489.211300    -0.005040
                            745.288670    -0.009895
                            384.521300    -0.014653
                            203.927220    -0.007970
                            110.523340     0.022757
                             61.345569     0.067049
                             34.404375     0.034635
                             19.094147    -0.086605
                             10.684628    -0.190567
                              5.931463     0.011210
                              3.230992     0.295370
                              1.730655     0.357708
                              0.869483    -0.483437
                              0.440589    -0.603385
                              0.215859     0.215887
                              0.091015     0.715465
                              0.040174     0.271767
                              0.017215     0.004114
   31.1 A     1  2py   52575799.000000    -0.000001
                       15301659.000000    -0.000001
                        4822461.600000    -0.000003
                        1632045.600000    -0.000005
                         584338.640000    -0.000013
                         219508.320000    -0.000028
                          86085.039000    -0.000066
                          35172.956000    -0.000156
                          14975.745000    -0.000379
                           6652.821900    -0.000925
                           3084.270200    -0.002224
                           1489.211300    -0.005040
                            745.288670    -0.009895
                            384.521300    -0.014653
                            203.927220    -0.007970
                            110.523340     0.022757
                             61.345569     0.067049
                             34.404375     0.034635
                             19.094147    -0.086605
                             10.684628    -0.190567
                              5.931463     0.011210
                              3.230992     0.295370
                              1.730655     0.357708
                              0.869483    -0.483437
                              0.440589    -0.603385
                              0.215859     0.215887
                              0.091015     0.715465
                              0.040174     0.271767
                              0.017215     0.004114
   32.1 A     1  2pz   52575799.000000    -0.000001
                       15301659.000000    -0.000001
                        4822461.600000    -0.000003
                        1632045.600000    -0.000005
                         584338.640000    -0.000013
                         219508.320000    -0.000028
                          86085.039000    -0.000066
                          35172.956000    -0.000156
                          14975.745000    -0.000379
                           6652.821900    -0.000925
                           3084.270200    -0.002224
                           1489.211300    -0.005040
                            745.288670    -0.009895
                            384.521300    -0.014653
                            203.927220    -0.007970
                            110.523340     0.022757
                             61.345569     0.067049
                             34.404375     0.034635
                             19.094147    -0.086605
                             10.684628    -0.190567
                              5.931463     0.011210
                              3.230992     0.295370
                              1.730655     0.357708
                              0.869483    -0.483437
                              0.440589    -0.603385
                              0.215859     0.215887
                              0.091015     0.715465
                              0.040174     0.271767
                              0.017215     0.004114
   33.1 A     1  2px   52575799.000000    -0.000001
                       15301659.000000    -0.000001
                        4822461.600000    -0.000004
                        1632045.600000    -0.000009
                         584338.640000    -0.000021
                         219508.320000    -0.000047
                          86085.039000    -0.000111
                          35172.956000    -0.000263
                          14975.745000    -0.000636
                           6652.821900    -0.001554
                           3084.270200    -0.003739
                           1489.211300    -0.008475
                            745.288670    -0.016642
                            384.521300    -0.024644
                            203.927220    -0.013367
                            110.523340     0.038637
                             61.345569     0.114090
                             34.404375     0.057493
                             19.094147    -0.152735
                             10.684628    -0.335275
                              5.931463     0.054116
                              3.230992     0.556566
                              1.730655     0.705542
                              0.869483    -1.835570
                              0.440589    -0.012121
                              0.215859     1.665730
                              0.091015    -0.585220
                              0.040174    -0.541179
                              0.017215     0.007323
   34.1 A     1  2py   52575799.000000    -0.000001
                       15301659.000000    -0.000001
                        4822461.600000    -0.000004
                        1632045.600000    -0.000009
                         584338.640000    -0.000021
                         219508.320000    -0.000047
                          86085.039000    -0.000111
                          35172.956000    -0.000263
                          14975.745000    -0.000636
                           6652.821900    -0.001554
                           3084.270200    -0.003739
                           1489.211300    -0.008475
                            745.288670    -0.016642
                            384.521300    -0.024644
                            203.927220    -0.013367
                            110.523340     0.038637
                             61.345569     0.114090
                             34.404375     0.057493
                             19.094147    -0.152735
                             10.684628    -0.335275
                              5.931463     0.054116
                              3.230992     0.556566
                              1.730655     0.705542
                              0.869483    -1.835570
                              0.440589    -0.012121
                              0.215859     1.665730
                              0.091015    -0.585220
                              0.040174    -0.541179
                              0.017215     0.007323
   35.1 A     1  2pz   52575799.000000    -0.000001
                       15301659.000000    -0.000001
                        4822461.600000    -0.000004
                        1632045.600000    -0.000009
                         584338.640000    -0.000021
                         219508.320000    -0.000047
                          86085.039000    -0.000111
                          35172.956000    -0.000263
                          14975.745000    -0.000636
                           6652.821900    -0.001554
                           3084.270200    -0.003739
                           1489.211300    -0.008475
                            745.288670    -0.016642
                            384.521300    -0.024644
                            203.927220    -0.013367
                            110.523340     0.038637
                             61.345569     0.114090
                             34.404375     0.057493
                             19.094147    -0.152735
                             10.684628    -0.335275
                              5.931463     0.054116
                              3.230992     0.556566
                              1.730655     0.705542
                              0.869483    -1.835570
                              0.440589    -0.012121
                              0.215859     1.665730
                              0.091015    -0.585220
                              0.040174    -0.541179
                              0.017215     0.007323
   36.1 A     1  2px   52575799.000000    -0.000001
                       15301659.000000    -0.000002
                        4822461.600000    -0.000006
                        1632045.600000    -0.000012
                         584338.640000    -0.000030
                         219508.320000    -0.000066
                          86085.039000    -0.000157
                          35172.956000    -0.000360
                          14975.745000    -0.000908
                           6652.821900    -0.002110
                           3084.270200    -0.005394
                           1489.211300    -0.011352
                            745.288670    -0.024563
                            384.521300    -0.031084
                            203.927220    -0.026677
                            110.523340     0.074398
                             61.345569     0.122621
                             34.404375     0.158055
                             19.094147    -0.396610
                             10.684628    -0.217370
                              5.931463    -0.310283
                              3.230992     1.975310
                              1.730655    -0.901781
                              0.869483    -2.796670
                              0.440589     4.376690
                              0.215859    -2.312120
                              0.091015    -0.328877
                              0.040174     0.867979
                              0.017215    -0.037454
   37.1 A     1  2py   52575799.000000    -0.000001
                       15301659.000000    -0.000002
                        4822461.600000    -0.000006
                        1632045.600000    -0.000012
                         584338.640000    -0.000030
                         219508.320000    -0.000066
                          86085.039000    -0.000157
                          35172.956000    -0.000360
                          14975.745000    -0.000908
                           6652.821900    -0.002110
                           3084.270200    -0.005394
                           1489.211300    -0.011352
                            745.288670    -0.024563
                            384.521300    -0.031084
                            203.927220    -0.026677
                            110.523340     0.074398
                             61.345569     0.122621
                             34.404375     0.158055
                             19.094147    -0.396610
                             10.684628    -0.217370
                              5.931463    -0.310283
                              3.230992     1.975310
                              1.730655    -0.901781
                              0.869483    -2.796670
                              0.440589     4.376690
                              0.215859    -2.312120
                              0.091015    -0.328877
                              0.040174     0.867979
                              0.017215    -0.037454
   38.1 A     1  2pz   52575799.000000    -0.000001
                       15301659.000000    -0.000002
                        4822461.600000    -0.000006
                        1632045.600000    -0.000012
                         584338.640000    -0.000030
                         219508.320000    -0.000066
                          86085.039000    -0.000157
                          35172.956000    -0.000360
                          14975.745000    -0.000908
                           6652.821900    -0.002110
                           3084.270200    -0.005394
                           1489.211300    -0.011352
                            745.288670    -0.024563
                            384.521300    -0.031084
                            203.927220    -0.026677
                            110.523340     0.074398
                             61.345569     0.122621
                             34.404375     0.158055
                             19.094147    -0.396610
                             10.684628    -0.217370
                              5.931463    -0.310283
                              3.230992     1.975310
                              1.730655    -0.901781
                              0.869483    -2.796670
                              0.440589     4.376690
                              0.215859    -2.312120
                              0.091015    -0.328877
                              0.040174     0.867979
                              0.017215    -0.037454
   39.1 A     1  2px   52575799.000000     0.000000
                       15301659.000000     0.000000
                        4822461.600000     0.000000
                        1632045.600000     0.000000
                         584338.640000     0.000000
                         219508.320000     0.000000
                          86085.039000     0.000000
                          35172.956000     0.000000
                          14975.745000     0.000000
                           6652.821900     0.000000
                           3084.270200     0.000000
                           1489.211300     0.000000
                            745.288670     0.000000
                            384.521300     0.000000
                            203.927220     0.000000
                            110.523340     0.000000
                             61.345569     0.000000
                             34.404375     0.000000
                             19.094147     0.000000
                             10.684628     0.000000
                              5.931463     0.000000
                              3.230992     0.000000
                              1.730655     0.000000
                              0.869483     0.000000
                              0.440589     0.000000
                              0.215859     0.000000
                              0.091015     0.000000
                              0.040174     0.000000
                              0.017215     1.000000
   40.1 A     1  2py   52575799.000000     0.000000
                       15301659.000000     0.000000
                        4822461.600000     0.000000
                        1632045.600000     0.000000
                         584338.640000     0.000000
                         219508.320000     0.000000
                          86085.039000     0.000000
                          35172.956000     0.000000
                          14975.745000     0.000000
                           6652.821900     0.000000
                           3084.270200     0.000000
                           1489.211300     0.000000
                            745.288670     0.000000
                            384.521300     0.000000
                            203.927220     0.000000
                            110.523340     0.000000
                             61.345569     0.000000
                             34.404375     0.000000
                             19.094147     0.000000
                             10.684628     0.000000
                              5.931463     0.000000
                              3.230992     0.000000
                              1.730655     0.000000
                              0.869483     0.000000
                              0.440589     0.000000
                              0.215859     0.000000
                              0.091015     0.000000
                              0.040174     0.000000
                              0.017215     1.000000
   41.1 A     1  2pz   52575799.000000     0.000000
                       15301659.000000     0.000000
                        4822461.600000     0.000000
                        1632045.600000     0.000000
                         584338.640000     0.000000
                         219508.320000     0.000000
                          86085.039000     0.000000
                          35172.956000     0.000000
                          14975.745000     0.000000
                           6652.821900     0.000000
                           3084.270200     0.000000
                           1489.211300     0.000000
                            745.288670     0.000000
                            384.521300     0.000000
                            203.927220     0.000000
                            110.523340     0.000000
                             61.345569     0.000000
                             34.404375     0.000000
                             19.094147     0.000000
                             10.684628     0.000000
                              5.931463     0.000000
                              3.230992     0.000000
                              1.730655     0.000000
                              0.869483     0.000000
                              0.440589     0.000000
                              0.215859     0.000000
                              0.091015     0.000000
                              0.040174     0.000000
                              0.017215     1.000000
   42.1 A     1  3d0     105911.200000     0.000020
                          24974.572000     0.000129
                           8108.852700     0.000677
                           3150.520500     0.003052
                           1380.647900     0.011950
                            658.188950     0.039706
                            332.909040     0.108875
                            176.023220     0.231727
                             95.780704     0.354949
                             53.337287     0.336096
                             29.864821     0.140603
                             16.526778    -0.033742
                              9.155323    -0.064042
                              4.984876    -0.024095
                              2.636633    -0.002233
                              1.354062     0.000305
                              0.656031     0.000103
                              0.269853     0.000008
                              0.103443     0.000000
                              0.036685     0.000000
   43.1 A     1  3d2-    105911.200000     0.000020
                          24974.572000     0.000129
                           8108.852700     0.000677
                           3150.520500     0.003052
                           1380.647900     0.011950
                            658.188950     0.039706
                            332.909040     0.108875
                            176.023220     0.231727
                             95.780704     0.354949
                             53.337287     0.336096
                             29.864821     0.140603
                             16.526778    -0.033742
                              9.155323    -0.064042
                              4.984876    -0.024095
                              2.636633    -0.002233
                              1.354062     0.000305
                              0.656031     0.000103
                              0.269853     0.000008
                              0.103443     0.000000
                              0.036685     0.000000
   44.1 A     1  3d1+    105911.200000     0.000020
                          24974.572000     0.000129
                           8108.852700     0.000677
                           3150.520500     0.003052
                           1380.647900     0.011950
                            658.188950     0.039706
                            332.909040     0.108875
                            176.023220     0.231727
                             95.780704     0.354949
                             53.337287     0.336096
                             29.864821     0.140603
                             16.526778    -0.033742
                              9.155323    -0.064042
                              4.984876    -0.024095
                              2.636633    -0.002233
                              1.354062     0.000305
                              0.656031     0.000103
                              0.269853     0.000008
                              0.103443     0.000000
                              0.036685     0.000000
   45.1 A     1  3d2+    105911.200000     0.000020
                          24974.572000     0.000129
                           8108.852700     0.000677
                           3150.520500     0.003052
                           1380.647900     0.011950
                            658.188950     0.039706
                            332.909040     0.108875
                            176.023220     0.231727
                             95.780704     0.354949
                             53.337287     0.336096
                             29.864821     0.140603
                             16.526778    -0.033742
                              9.155323    -0.064042
                              4.984876    -0.024095
                              2.636633    -0.002233
                              1.354062     0.000305
                              0.656031     0.000103
                              0.269853     0.000008
                              0.103443     0.000000
                              0.036685     0.000000
   46.1 A     1  3d1-    105911.200000     0.000020
                          24974.572000     0.000129
                           8108.852700     0.000677
                           3150.520500     0.003052
                           1380.647900     0.011950
                            658.188950     0.039706
                            332.909040     0.108875
                            176.023220     0.231727
                             95.780704     0.354949
                             53.337287     0.336096
                             29.864821     0.140603
                             16.526778    -0.033742
                              9.155323    -0.064042
                              4.984876    -0.024095
                              2.636633    -0.002233
                              1.354062     0.000305
                              0.656031     0.000103
                              0.269853     0.000008
                              0.103443     0.000000
                              0.036685     0.000000
   47.1 A     1  3d0     105911.200000    -0.000007
                          24974.572000    -0.000047
                           8108.852700    -0.000246
                           3150.520500    -0.001113
                           1380.647900    -0.004403
                            658.188950    -0.014782
                            332.909040    -0.041545
                            176.023220    -0.089264
                             95.780704    -0.132364
                             53.337287    -0.078125
                             29.864821     0.163137
                             16.526778     0.427766
                              9.155323     0.404323
                              4.984876     0.149842
                              2.636633     0.013528
                              1.354062    -0.001244
                              0.656031    -0.000625
                              0.269853    -0.000007
                              0.103443    -0.000015
                              0.036685     0.000003
   48.1 A     1  3d2-    105911.200000    -0.000007
                          24974.572000    -0.000047
                           8108.852700    -0.000246
                           3150.520500    -0.001113
                           1380.647900    -0.004403
                            658.188950    -0.014782
                            332.909040    -0.041545
                            176.023220    -0.089264
                             95.780704    -0.132364
                             53.337287    -0.078125
                             29.864821     0.163137
                             16.526778     0.427766
                              9.155323     0.404323
                              4.984876     0.149842
                              2.636633     0.013528
                              1.354062    -0.001244
                              0.656031    -0.000625
                              0.269853    -0.000007
                              0.103443    -0.000015
                              0.036685     0.000003
   49.1 A     1  3d1+    105911.200000    -0.000007
                          24974.572000    -0.000047
                           8108.852700    -0.000246
                           3150.520500    -0.001113
                           1380.647900    -0.004403
                            658.188950    -0.014782
                            332.909040    -0.041545
                            176.023220    -0.089264
                             95.780704    -0.132364
                             53.337287    -0.078125
                             29.864821     0.163137
                             16.526778     0.427766
                              9.155323     0.404323
                              4.984876     0.149842
                              2.636633     0.013528
                              1.354062    -0.001244
                              0.656031    -0.000625
                              0.269853    -0.000007
                              0.103443    -0.000015
                              0.036685     0.000003
   50.1 A     1  3d2+    105911.200000    -0.000007
                          24974.572000    -0.000047
                           8108.852700    -0.000246
                           3150.520500    -0.001113
                           1380.647900    -0.004403
                            658.188950    -0.014782
                            332.909040    -0.041545
                            176.023220    -0.089264
                             95.780704    -0.132364
                             53.337287    -0.078125
                             29.864821     0.163137
                             16.526778     0.427766
                              9.155323     0.404323
                              4.984876     0.149842
                              2.636633     0.013528
                              1.354062    -0.001244
                              0.656031    -0.000625
                              0.269853    -0.000007
                              0.103443    -0.000015
                              0.036685     0.000003
   51.1 A     1  3d1-    105911.200000    -0.000007
                          24974.572000    -0.000047
                           8108.852700    -0.000246
                           3150.520500    -0.001113
                           1380.647900    -0.004403
                            658.188950    -0.014782
                            332.909040    -0.041545
                            176.023220    -0.089264
                             95.780704    -0.132364
                             53.337287    -0.078125
                             29.864821     0.163137
                             16.526778     0.427766
                              9.155323     0.404323
                              4.984876     0.149842
                              2.636633     0.013528
                              1.354062    -0.001244
                              0.656031    -0.000625
                              0.269853    -0.000007
                              0.103443    -0.000015
                              0.036685     0.000003
   52.1 A     1  3d0     105911.200000     0.000004
                          24974.572000     0.000029
                           8108.852700     0.000151
                           3150.520500     0.000680
                           1380.647900     0.002694
                            658.188950     0.009015
                            332.909040     0.025311
                            176.023220     0.054175
                             95.780704     0.081018
                             53.337287     0.048855
                             29.864821    -0.090265
                             16.526778    -0.246113
                              9.155323    -0.206236
                              4.984876     0.172306
                              2.636633     0.505507
                              1.354062     0.395599
                              0.656031     0.111489
                              0.269853     0.006247
                              0.103443    -0.000029
                              0.036685    -0.000036
   53.1 A     1  3d2-    105911.200000     0.000004
                          24974.572000     0.000029
                           8108.852700     0.000151
                           3150.520500     0.000680
                           1380.647900     0.002694
                            658.188950     0.009015
                            332.909040     0.025311
                            176.023220     0.054175
                             95.780704     0.081018
                             53.337287     0.048855
                             29.864821    -0.090265
                             16.526778    -0.246113
                              9.155323    -0.206236
                              4.984876     0.172306
                              2.636633     0.505507
                              1.354062     0.395599
                              0.656031     0.111489
                              0.269853     0.006247
                              0.103443    -0.000029
                              0.036685    -0.000036
   54.1 A     1  3d1+    105911.200000     0.000004
                          24974.572000     0.000029
                           8108.852700     0.000151
                           3150.520500     0.000680
                           1380.647900     0.002694
                            658.188950     0.009015
                            332.909040     0.025311
                            176.023220     0.054175
                             95.780704     0.081018
                             53.337287     0.048855
                             29.864821    -0.090265
                             16.526778    -0.246113
                              9.155323    -0.206236
                              4.984876     0.172306
                              2.636633     0.505507
                              1.354062     0.395599
                              0.656031     0.111489
                              0.269853     0.006247
                              0.103443    -0.000029
                              0.036685    -0.000036
   55.1 A     1  3d2+    105911.200000     0.000004
                          24974.572000     0.000029
                           8108.852700     0.000151
                           3150.520500     0.000680
                           1380.647900     0.002694
                            658.188950     0.009015
                            332.909040     0.025311
                            176.023220     0.054175
                             95.780704     0.081018
                             53.337287     0.048855
                             29.864821    -0.090265
                             16.526778    -0.246113
                              9.155323    -0.206236
                              4.984876     0.172306
                              2.636633     0.505507
                              1.354062     0.395599
                              0.656031     0.111489
                              0.269853     0.006247
                              0.103443    -0.000029
                              0.036685    -0.000036
   56.1 A     1  3d1-    105911.200000     0.000004
                          24974.572000     0.000029
                           8108.852700     0.000151
                           3150.520500     0.000680
                           1380.647900     0.002694
                            658.188950     0.009015
                            332.909040     0.025311
                            176.023220     0.054175
                             95.780704     0.081018
                             53.337287     0.048855
                             29.864821    -0.090265
                             16.526778    -0.246113
                              9.155323    -0.206236
                              4.984876     0.172306
                              2.636633     0.505507
                              1.354062     0.395599
                              0.656031     0.111489
                              0.269853     0.006247
                              0.103443    -0.000029
                              0.036685    -0.000036
   57.1 A     1  3d0     105911.200000    -0.000001
                          24974.572000    -0.000008
                           8108.852700    -0.000042
                           3150.520500    -0.000189
                           1380.647900    -0.000746
                            658.188950    -0.002504
                            332.909040    -0.007016
                            176.023220    -0.015063
                             95.780704    -0.022420
                             53.337287    -0.013378
                             29.864821     0.026555
                             16.526778     0.070496
                              9.155323     0.058301
                              4.984876    -0.065834
                              2.636633    -0.177473
                              1.354062    -0.127085
                              0.656031     0.181760
                              0.269853     0.495490
                              0.103443     0.447072
                              0.036685     0.116353
   58.1 A     1  3d2-    105911.200000    -0.000001
                          24974.572000    -0.000008
                           8108.852700    -0.000042
                           3150.520500    -0.000189
                           1380.647900    -0.000746
                            658.188950    -0.002504
                            332.909040    -0.007016
                            176.023220    -0.015063
                             95.780704    -0.022420
                             53.337287    -0.013378
                             29.864821     0.026555
                             16.526778     0.070496
                              9.155323     0.058301
                              4.984876    -0.065834
                              2.636633    -0.177473
                              1.354062    -0.127085
                              0.656031     0.181760
                              0.269853     0.495490
                              0.103443     0.447072
                              0.036685     0.116353
   59.1 A     1  3d1+    105911.200000    -0.000001
                          24974.572000    -0.000008
                           8108.852700    -0.000042
                           3150.520500    -0.000189
                           1380.647900    -0.000746
                            658.188950    -0.002504
                            332.909040    -0.007016
                            176.023220    -0.015063
                             95.780704    -0.022420
                             53.337287    -0.013378
                             29.864821     0.026555
                             16.526778     0.070496
                              9.155323     0.058301
                              4.984876    -0.065834
                              2.636633    -0.177473
[...]
                                    7  3  s    0.42109
   82.1     0.00000     0.03255     1  4  px   0.27949    1  4  py  -0.30283    1  5  px   1.52540    1  5  py  -1.65428
                                    1  6  px   3.63934    1  6  py  -3.99807    1  6  pz  -0.35269    1 10  px  -2.01626
                                    1 10  py   2.17893    1  4  d2+ -0.41514    3  4  s    1.07683    4  5  s    2.47933
                                    4  3  px   0.25243    4  4  px   1.00755    4  4  pz  -0.35011    8  5  s   -2.54533
                                    8  3  py  -0.26415    8  4  py  -1.06476    9  4  s   -1.07466   10  5  s    0.91158
                                   10  4  px  -0.35083   10  4  py  -0.46174   11  5  s   -0.93825   11  4  px   0.46703
                                   11  4  py   0.29911
   83.1     0.00000     0.03985     1  5  s   -0.52090    1  6  s   -1.89948    1  7  s   -2.56044    1 11  s   -0.36005
                                    1  5  px  -1.16968    1  5  py  -1.13962    1  5  pz   0.59737    1  6  px  -3.36559
                                    1  6  py  -3.27980    1  6  pz   1.70475    1 10  px   2.36854    1 10  py   2.34012
                                    1 10  pz  -1.21050    1  4  d0  -0.49962    1  4  d2- -0.33118    1  4  d1+ -0.28839
                                    1  5  d0   0.27443    1  8  d0  -0.32584    1  8  d1+ -0.31749    2  5  s    1.52105
                                    2  4  px  -0.38843    2  4  pz  -0.78385    3  3  s    0.37838    4  5  s   -1.80637
                                    4  4  px  -0.32833    4  4  py   0.54701    5  4  s    1.58951    6  5  s    1.42573
                                    6  4  pz   0.87236    7  4  s    1.61413    8  5  s   -1.78577    8  4  px   0.50677
                                    8  4  py  -0.37286    9  3  s    0.38068   10  5  s    1.11450   10  4  py  -0.32307
                                   11  5  s    1.08504   11  4  px  -0.29895   12  4  s   -0.46764   12  5  s   -1.26406
                                   12  4  px  -0.26558   12  4  py  -0.27014   13  5  s    0.80442
   84.1     0.00000     0.05086     1  5  s   -0.30171    1  6  s   -1.13930    1  7  s   -1.62158    1 11  s    0.81812
                                    1  5  px  -0.44977    1  5  py  -0.41508    1  6  px  -2.23035    1  6  py  -2.14671
                                    1  6  pz   1.17179    1  7  px   0.52301    1  7  py   0.52922    1  7  pz  -0.28495
                                    1 10  px   2.50243    1 10  py   2.52451    1 10  pz  -1.32061    1  4  d0   0.43609
                                    1  4  d1+  0.34843    1  5  d0  -0.25304    1  8  d0   0.56579    1  8  d2-  0.54197
                                    1  8  d1+  0.25528    2  5  s   -0.60752    2  4  pz   0.55097    3  3  s    0.67572
                                    3  4  s    2.14432    4  5  s   -0.42636    4  4  px   0.73724    4  4  py   0.37007
                                    4  4  pz  -0.33904    5  3  s   -0.27584    5  4  s   -1.54640    6  5  s   -0.62495
                                    6  4  px  -0.29814    6  4  pz  -0.45716    7  3  s   -0.27410    7  4  s   -1.55997
                                    8  5  s   -0.43324    8  4  px   0.39093    8  4  py   0.77251    8  4  pz  -0.25067
                                    9  3  s    0.71164    9  4  s    2.26660   10  5  s    1.55307   10  4  py  -0.39665
                                   11  5  s    1.47167   11  4  px  -0.35447   12  4  s   -0.72058   12  5  s   -2.60262
                                   12  4  px  -0.37595   12  4  py  -0.40327   13  5  s    1.43906
   85.1     0.00000     0.05641     1  5  px  -0.39724    1  5  py   0.39172    1  6  px  -2.55609    1  6  py   2.63081
                                    1  6  pz   0.62601    1  7  px   0.80313    1  7  py  -0.85675    1 10  px   3.30611
                                    1 10  py  -3.47384    1 10  pz  -0.72941    1  4  d2+ -0.30362    1  8  d1+  0.33563
                                    1  8  d2+ -0.98011    3  3  s    0.99866    3  4  s    3.41567    4  5  s   -1.01827
                                    4  3  px   0.27173    4  4  px   0.72375    4  4  py  -0.28721    8  5  s    0.95943
                                    8  3  py  -0.27500    8  4  py  -0.75111    9  3  s   -0.95958    9  4  s   -3.24660
                                   10  5  s   -1.27180   10  4  px   0.51528   10  4  py   0.75176   10  4  pz  -0.33000
                                   11  5  s    1.39866   11  4  px  -0.79587   11  4  py  -0.47485   11  4  pz   0.37284
                                   12  3  px  -0.26071   12  3  py   0.28504   12  4  px   0.29162   12  4  py  -0.38886
   86.1     0.00000     0.07290     1 11  s   -0.51555    1  6  px   1.06128    1  6  py   0.28575    1  6  pz   3.31287
                                    1  7  px  -0.48188    1  7  pz  -1.42627    1  8  pz   0.35629    1 10  px  -2.38665
                                    1 10  py  -0.95605    1 10  pz  -6.67436    1  6  f1+  0.26764    2  4  s   -0.33310
                                    2  5  s   -2.64387    2  3  pz  -0.37973    2  4  px  -0.43779    2  4  pz  -1.31882
                                    5  3  s    1.75779    5  4  s    5.56244    5  3  pz  -0.31751    6  4  s    0.31769
                                    6  5  s    2.60594    6  3  pz  -0.35249    6  4  px  -0.49495    6  4  pz  -1.22982
                                    7  3  s   -1.71241    7  4  s   -5.35287   12  5  s    0.30853
   87.1     0.00000     0.07610     1  5  s   -0.79324    1  6  s   -3.04993    1  7  s   -4.56282    1  8  s    0.52777
                                    1  9  s    0.28404    1 11  s   14.82017    1  5  px   0.79476    1  5  py   0.77630
                                    1  5  pz  -0.41002    1  6  px   4.56424    1  6  py   4.42453    1  6  pz  -2.31446
                                    1  7  px  -1.36022    1  7  py  -1.30394    1  7  pz   0.67902    1  8  px   0.37605
                                    1  8  py   0.36104    1 10  px  -2.87198    1 10  py  -2.84429    1 10  pz   1.16789
                                    1  8  d0  -0.43538    1  8  d2-  0.55650    1  8  d1+ -0.45336    1  8  d1- -0.39833
                                    2  5  s    0.82802    2  4  py  -0.28865    2  4  pz   0.46819    3  3  s   -1.22908
                                    3  4  s   -3.83649    3  3  px  -0.35995    4  5  s    2.50434    4  4  px  -0.31535
                                    5  3  s   -0.48622    5  4  s   -2.31087    6  5  s    0.97929    6  4  px  -0.48944
                                    6  4  py  -0.40354    7  3  s   -0.58686    7  4  s   -2.76324    8  5  s    2.52118
                                    8  4  py  -0.35250    9  3  s   -1.25233    9  4  s   -3.92055    9  3  py  -0.38882
                                   10  5  s    2.51529   10  4  px   1.17232   10  4  py  -0.60834   10  4  pz  -0.33066
                                   11  5  s    2.58892   11  4  px  -0.48990   11  4  py   1.27449   12  4  s   -0.40416
                                   12  5  s   -8.87416   12  3  px   0.29480   12  3  py   0.29276   12  4  px   1.11014
                                   12  4  py   1.09143   12  4  pz  -0.59157   13  5  s    0.32150
   88.1     0.00000     0.08660     1  5  px  -0.35732    1  5  pz  -0.91449    1  6  px  -1.49162    1  6  py  -0.61766
                                    1  6  pz  -3.72020    1  7  px   0.27321    1  7  pz   0.64085    1 10  px   0.99336
                                    1 10  py   0.44912    1 10  pz   2.54110    1  4  d0   0.30216    1  4  d1+ -0.25649
                                    1  4  d1- -0.27989    1  8  d0   0.95166    1  8  d2- -0.56789    1  8  d1+ -0.83573
                                    1  8  d1- -0.87932    2  5  s    2.40512    2  4  px   0.60378    2  4  py   0.52960
                                    5  3  s   -0.86972    5  4  s   -1.01550    5  3  pz   0.27427    6  5  s   -2.37408
                                    6  4  px  -0.49249    6  4  py  -0.49544    6  4  pz   0.42308    7  3  s    0.86848
                                    7  4  s    1.07320   10  4  pz   0.29268   11  4  pz   0.29763   12  1  pz   0.60453
                                   12  3  pz   0.28718   12  4  pz   0.25018   13  1  pz  -0.33763   13  4  pz  -0.38321
   89.1     0.00000     0.09518     1  4  s   -0.47780    1  5  s   -1.51190    1  6  s   -5.43264    1  7  s   -7.33982
                                    1 11  s    6.77598    1  5  px   1.40711    1  5  py   1.28227    1  5  pz  -0.71141
                                    1  6  px   5.13810    1  6  py   4.67598    1  6  pz  -2.63897    1  7  px  -0.75509
                                    1  7  py  -0.69569    1  7  pz   0.40604    1 10  px  -1.84601    1 10  py  -1.60472
                                    1 10  pz   0.90307    1  4  d2-  0.55839    1  8  d2-  1.56857    1  8  d1+ -0.48262
                                    1  8  d1- -0.64383    1  2  f3+ -0.29427    1  2  f3-  0.35312    2  5  s    1.05147
                                    2  4  px  -0.40983    2  4  py  -0.33676    3  3  s   -0.85347    3  4  s   -0.37869
                                    3  3  px  -0.34281    4  5  s    3.82729    4  4  px   0.72069    4  4  pz  -0.31450
                                    5  4  s   -0.58416    6  5  s    1.13821    6  4  py  -0.27595    6  4  pz   0.40667
                                    7  4  s   -0.61908    8  5  s    3.67030    8  4  px   0.26247    8  4  py   0.70480
                                    9  3  s   -0.81340    9  4  s   -0.30470    9  3  py  -0.33994   10  5  s    2.30672
                                   10  4  px   0.57958   10  4  py  -0.56559   11  5  s    2.29123   11  4  px  -0.43832
                                   11  4  py   0.70173   12  5  s   -7.87039   12  3  px   0.55227   12  3  py   0.52502
                                   12  3  pz  -0.29486   12  4  px   1.63466   12  4  py   1.61997   12  4  pz  -0.90227
                                   13  4  s   -0.27597   13  5  s   -0.46772


 HOMO     79.1    -0.483022 =     -13.1437eV
 LUMO     80.1     0.021335 =       0.5806eV
 LUMO-HOMO         0.504357 =      13.7243eV

 Orbitals saved in record  2100.2


 **********************************************************************************************************************************
 DATASETS  * FILE   NREC   LENGTH (MB)   RECORD NAMES
              1      22       59.55       500      610      700      900      950      970     1000      129      960     1700   
                                          VAR    BASINP    GEOM    SYMINP    ZMAT    AOBASIS   BASIS     P2S    ABASIS    OPER   
                                         1101     1401     1411     1412     1650     1100     1400     1410     1200     1210   
                                          SR      EKINR    POTR     PVPR    MOLCAS      S      EKIN      POT      H0       H01  
                                         1080     1600   
                                         AOSYM     SMH  

              2       6       18.09       500      610      700     1000      520     2100   
                                          VAR    BASINP    GEOM     BASIS   MCVARS     RHF  

 PROGRAMS   *        TOTAL    HF-SCF       INT      FILE
 CPU TIMES  *      1550.60    618.78    931.68      0.01
 REAL TIME  *      2790.40 SEC
 DISK USED  *       104.35 MB (local),      214.37 GB (total)
 GA USED    *         0.01 MB       (max)       0.00 MB       (current)
 **********************************************************************************************************************************


 PROGRAM * CCSD (Closed-shell coupled cluster)     Authors: C. Hampel, H.-J. Werner, 1991, M. Deegan, P.J. Knowles, 1992


 Convergence thresholds:  THRVAR = 1.00D-08  THRDEN = 1.00D-06

 CCSD(T)     terms to be evaluated (factor= 1.000)


 Number of core orbitals:          47 (  47 )
 Number of closed-shell orbitals:  32 (  32 )
 Number of external orbitals:     542 ( 542 )

 Molecular orbitals read from record     2100.2  Type=RHF/CANONICAL  

 Number of N-1 electron functions:              32
 Number of N-2 electron functions:             528
 Number of singly external CSFs:             17344
 Number of doubly external CSFs:         150415840
 Total number of CSFs:                   150433185

 Length of J-op  integral file:               0.00 MB
 Length of K-op  integral file:              26.48 MB
 Length of 3-ext integral record:             0.00 MB

 For full I/O caching in triples, increase memory by 3335.53 Mwords to 5835.58 Mwords.

 Multipassing necessary in transformation. To avoid, increase memory by 1786.39 Mwords.

 Integral transformation finished. Total CPU:3025.16 sec, npass=  2  Memory used:2402.42 MW

 Reference energy:                 -27802.66602822

 MP2 singlet pair energy:              -1.41429448
 MP2 triplet pair energy:              -0.96839916
 MP2 correlation energy:               -2.38269364
 MP2 total energy:                 -27805.04872187

 SCS-MP2 correlation energy:           -2.29971285   (PS=  1.200000  PT=  0.333333)
 SCS-MP2 total energy:             -27804.96574108

 ITER.      SQ.NORM     CORR.ENERGY   TOTAL ENERGY   ENERGY CHANGE        DEN1      VAR(S)    VAR(P)  DIIS     TIME  TIME/IT
   1      1.58000609    -2.36368859-27805.02971681     0.01900505     0.11163882  0.37D-01  0.18D-01  1  1  6965.18  2420.31
   2      1.62556205    -2.35136759-27805.01739581     0.01232100    -0.06429871  0.66D-03  0.25D-02  2  2  9187.10  2383.83
   3      1.65355593    -2.35413591-27805.02016413    -0.00276832    -0.00850038  0.15D-02  0.19D-03  3  3 11253.03  2338.97
   4      1.66827297    -2.35244082-27805.01846905     0.00169509    -0.00501486  0.20D-03  0.49D-04  4  4 13186.31  2283.79
   5      1.67910378    -2.35194282-27805.01797104     0.00049800    -0.00223631  0.48D-04  0.69D-05  5  5 15366.17  2290.66
   6      1.68259966    -2.35172638-27805.01775460     0.00021644    -0.00039307  0.77D-05  0.19D-05  6  6 17605.15  2296.01
   7      1.68404549    -2.35160788-27805.01763610     0.00011850    -0.00003238  0.17D-05  0.41D-06  6  1 20492.40  2397.57
   8      1.68454262    -2.35159564-27805.01762387     0.00001223    -0.00007935  0.34D-06  0.99D-07  6  2 22399.17  2385.24
   9      1.68456472    -2.35160598-27805.01763421    -0.00001034     0.00003462  0.70D-07  0.25D-07  6  3 24330.11  2361.77
  10      1.68466633    -2.35159065-27805.01761887     0.00001534    -0.00002369  0.18D-07  0.54D-08  6  4 26608.57  2370.50
  11      1.68464212    -2.35159993-27805.01762815    -0.00000928     0.00000620  0.47D-08  0.16D-08  6  5 28809.06  2361.54
  12      1.68466138    -2.35159652-27805.01762474     0.00000341    -0.00000468  0.15D-08  0.29D-09  6  6 31154.30  2373.05
  13      1.68465982    -2.35159721-27805.01762544    -0.00000070     0.00000088  0.33D-09  0.11D-09  6  1 33100.67  2353.11
  14      1.68466256    -2.35159701-27805.01762524     0.00000020    -0.00000039  0.90D-10  0.29D-10  6  2 35550.15  2371.99

 Norm of t1 vector:      0.26541332      S-energy:    -0.00000086      T1 diagnostic:  0.02345945
                                                                       D1 diagnostic:  0.07268618
                                                                       D2 diagnostic:  0.18839581 (external, symmetry=1)

   CPU time for triples:   1810.42 sec for i =  1 -  4 / 32 (~   0.3 % done)
   CPU time for triples:   3853.82 sec for i =  5 -  6 / 32 (~   0.8 % done)
   CPU time for triples:   2832.79 sec for i =  7 -  7 / 32 (~   1.3 % done)
   CPU time for triples:   4425.77 sec for i =  8 -  8 / 32 (~   1.9 % done)
   CPU time for triples:   3719.82 sec for i =  9 -  9 / 32 (~   2.6 % done)
   CPU time for triples:   7551.08 sec for i = 10 - 19 / 32 (~  22.0 % done)
   CPU time for triples:   9016.67 sec for i = 20 - 21 / 32 (~  29.4 % done)
   CPU time for triples:   7779.19 sec for i = 22 - 23 / 32 (~  38.3 % done)
   CPU time for triples:   7651.44 sec for i = 24 - 25 / 32 (~  48.7 % done)
   CPU time for triples:   5817.62 sec for i = 26 - 26 / 32 (~  54.6 % done)
   CPU time for triples:   9284.35 sec for i = 27 - 28 / 32 (~  67.7 % done)
   CPU time for triples:   5407.10 sec for i = 29 - 29 / 32 (~  75.0 % done)
   CPU time for triples:   7124.87 sec for i = 30 - 30 / 32 (~  82.8 % done)
   CPU time for triples:   7245.22 sec for i = 31 - 31 / 32 (~  91.1 % done)
   CPU time for triples:   7568.18 sec for i = 32 - 32 / 32 (  100.0 % done)

 Total CPU time for triples:  91110.61 sec


 RESULTS
 =======

  Reference energy                   -27802.6660282247    
  CCSD singlet pair energy             -1.504981023510
  CCSD triplet pair energy             -0.846615127745
  CCSD correlation energy              -2.351597013327

  Triples (T) contribution             -0.120212867006
  Total correlation energy             -2.471809880333

  CCSD total energy                  -27805.0176252380    
  CCSD[T] energy                     -27805.1512999642    
  CCSD-T energy                      -27805.1332274198    
 !CCSD(T) total energy               -27805.1378381050    

 Timing summary (sec):

 STEP                 CPU(USER)    SYS     CPU(TOT)    WALL
 Transformation       3034.56    277.94   3312.50   3519.17
 CCSD iterations     32600.70    491.51  33092.21  33300.34
 Triples             91110.61    973.84  92084.45  93446.64

 Program statistics:

 Available memory in ccsd:              2499995825
 Min. memory needed in ccsd:             336481566
 Max. memory used in ccsd:               479265790
 Max. memory used in cckext:             411905472 (14 integral passes)



 **********************************************************************************************************************************
 DATASETS  * FILE   NREC   LENGTH (MB)   RECORD NAMES
              1      23    21868.83       500      610      700      900      950      970     1000      129      960     1700   
                                          VAR    BASINP    GEOM    SYMINP    ZMAT    AOBASIS   BASIS     P2S    ABASIS    OPER   
                                         1101     1401     1411     1412     1650     1100     1400     1410     1200     1210   
                                          SR      EKINR    POTR     PVPR    MOLCAS      S      EKIN      POT      H0       H01  
                                         1080     1600     1380   
                                         AOSYM     SMH     JKOP   

              2       6       18.09       500      610      700     1000      520     2100   
                                          VAR    BASINP    GEOM     BASIS   MCVARS     RHF  

 PROGRAMS   *        TOTAL   CCSD(T)    HF-SCF       INT      FILE
 CPU TIMES  *    126729.05 125178.38    618.78    931.68      0.01
 REAL TIME  *    133059.40 SEC
 DISK USED  *        35.24 GB (local),      398.42 GB (total)
 SF USED    *        36.27 GB
 GA USED    *         0.01 MB       (max)       0.00 MB       (current)
 **********************************************************************************************************************************
 SETTING ENERGY_HF(1)   =    -27802.66602822  AU                              
 SETTING CORR_MP2(1)    =        -2.38269364  AU                              
 SETTING CORR_CCSDT(1)  =        -2.47180988  AU                              

 CCSD(T)/PA=CC-PVTZ-X2C,O=AUG-CC-PVTZ-X2C,H=AUG-CC-PVTZ-X2C,N=AUG-CC-PVTZ-X2C energy= -27805.137838105034

         CCSD(T)          HF-SCF
 -27805.13783811 -27802.66602822
 **********************************************************************************************************************************
 Molpro calculation terminated
