

 Parallel Execution: Process Information
 ==============================================================================
 Rank   Node Name                              NodeID   MyNodeRank  NodeMaster
    0   u-5-3.local                               0          0          0
    1   u-5-3.local                               0          1         -1
    2   u-5-3.local                               0          2         -1
    3   u-5-3.local                               0          3         -1
    4   u-5-3.local                               1          0          1
    5   u-5-3.local                               1          1         -1
    6   u-5-3.local                               1          2         -1
    7   u-5-3.local                               1          3         -1
 ==============================================================================


May use up to 31144MB of RAM as shared memory on node 0
May use up to 31250MB of RAM as shared memory on node 1

 *******************************************************************************
 *                                                                             *
 *  --------------------------------                                           *
 *   Amsterdam Modeling Suite (AMS)              2022.103                      *
 *  --------------------------------                                           *
 *                                               r104886 2022-06-17            *
 *                                                                             *
 *                                                                             *
 *                              =================                              *
 *                              |               |                              *
 *                              |     A M S     |                              *
 *                              |               |                              *
 *                              =================                              *
 *                                                                             *
 *                                                                             *
 *   Online information and documentation:  https://www.scm.com/support/       *
 *   E-mail:  support@scm.com   info@scm.com                                   *
 *                                                                             *
 *   Scientific publications using AMS results must be properly referenced     *
 *   See the User Manuals (or the web site) for recommended citations          *
 *   The terms and conditions of the End User License Agreement apply to       *
 *   the use of AMS, https://www.scm.com/license-terms/                        *
 *                                                                             *
 **********************  x86_64_linux_intel / intelmpi  ************************
 
 Licensed to: Dr. Val?rie Vallet / Laboratoire PhLAM UMR 8523 / Villeneuve d'Ascq Cedex / FRANCE 2023-02-21 11:49:39
 SCM User ID: u10325
  
 AMS 2022.103  RunTime: Mar14-2023 10:23:23  ShM Nodes: 2  Procs: 8

 AMS jobname: pao_oh2_c2o4_h2o.SR.b3lyp.tz2p.opt-freq-A2-solvation
 AMS jobid  : 666781288

 Start   directory: /home/shaaban/ams/PhD/oxalate/pao_oh2_c2o4_h2o/solvation/
 Results directory: /home/shaaban/ams/PhD/oxalate/pao_oh2_c2o4_h2o/solvation/pao_oh2_c2o4_h2o.SR.b3lyp.tz2p.opt-freq-A2-solvation.results/
 Scratch directory: /state/partition1/shaaban/935002.phlam-s-sakura/amstmp_pao_oh2_c2o4_h2o.SR.b3lyp.tz2p.opt-freq-A2-solvation_kid0.666781288/


 Communication costs MPI_COMM_WORLD:      1.706 usec per message,   0.0055 usec per 8-byte item
 Communication costs for intra-node:      0.838 usec per message,   0.0033 usec per 8-byte item

 RNG seed: -2072970347 1925072454 725520844 1646446706 -830879347 6622373 1373506338 1706777390



                      ************************************************************************
                      *  ADF 2022.103  RunTime: Mar14-2023 10:23:23  ShM Nodes: 2  Procs: 8  *
                      ************************************************************************
  
       ***************************
       *  GEOMETRY OPTIMIZATION  *
       ***************************

Optimization Method                    Quasi Newton
Optimization Coordinates               Delocalized Coordinates
Optimize lattice                       F
 
 ------------------------------------------------------
 Convergence criteria (Hartree,Angstrom)
 ------------------------------------------------------
 Maximum gradient               0.000100000000
 Maximum rms gradient           0.000066666667
 Maximum step allowed           0.001000000000
 Maximum rms step allowed       0.000666666667
 Maximum energy change allowe   0.000015000000
 Maximum stress energy allowe   0.000500000000
 
Initial model Hessian                  Automatic Hessian
 
------------------------------------
Quasi-Newton Optimizer Parameters
------------------------------------
Hessian Update Method                  BFGS
Maximum number of steps                  250
First GDIIS cycle                          0
Maximum GDIIS vectors                      0
Trust radius (bohr)                        0.200000
Trust radius varies                        T
Constraints converged at all steps         T
Use projector                              T
 
 Rigid motions settings for: old optimizer
 Atomic rotations (x,y,z):     T T T
 Atomic translations (x,y,z):  T T T
 Tolerance:                   1.000000000000000E-006
 
--------
Geometry
--------
Formula: C2H4O8Pa
Atoms
  Index Symbol   x (angstrom)   y (angstrom)   z (angstrom)
      1     Pa    -0.35914958    -0.03150561     0.70071154       adf.R=2.200
      2      O     1.04508936     1.45768513     0.10751315       adf.R=1.517
      3      H    -1.60655737     1.21701034    -1.72351179       adf.R=1.350
      4      O     0.81573037    -1.01787729     1.73915079       adf.R=1.517
      5      O    -1.09259664     0.46921053    -1.41007949       adf.R=1.517
      6      O     0.16144307    -1.60616087    -1.15194271       adf.R=1.517
      7      H    -0.18969563    -1.56757163    -2.05133095       adf.R=1.350
      8      H     0.81821655    -2.31423934    -1.12643162       adf.R=1.350
      9      H     1.96698509     1.55005548     0.37627759       adf.R=1.350
     10      O    -0.09650905     2.07993638     1.54743031       adf.R=1.517
     11      C    -1.56762745     3.08435640     0.28740831       adf.R=1.700
     12      C    -0.56680029     3.35130955     1.19752117       adf.R=1.700
     13      O    -1.46755309     1.76847661    -0.17997324       adf.R=1.517
     14      O    -2.71553085     3.61275100    -0.31518352       adf.R=1.517
     15      O     0.35062746     4.40608734     1.12155972       adf.R=1.517
 
Total System Charge            -1.00000
Bonding info available!
 
 
----------------
ADF Engine Input
----------------
 
 Basis
 Type TZ2P
 Core None
 End
 XC
 Hybrid B3LYP
 End
 Solvation
 Surf Delley
 Solv name=Water cav0=0.0 cav1=0.0067639
 Charged method=CONJ
 C-Mat POT
 SCF VAR ALL
 CSMRSP
 End
 NumericalQuality Good
 

 Title: *** (NO TITLE) ***

 Using automatic Hessian for delocalized coordinates.
 *** GO1_GOStep1 ***

 SOLVATION
-------------------------------------------

  The Delley construction of COSMO surface surface is calculated

       Division Level for Surface Triangles (NDIV)                  3
       Final Division Level for Triangles (NFDIV)                   1
       Radius of the Solvent (RSOL)                           1.93000 angstr
  Dielectric Constant (EPSL)                                 78.39000

       COSMO equation is solved iteratively-               conjugate-gradient

       Maximun of Iterations for Charges (NCIX)                  1000
       Criterion for Charge convergence (CCNV)                1.0E-08

  COSMO charges included variationally in SCF

       COSMO included at every SCF cycle

  Geometry-dependent empirical factor                         0.00000

  C-Matrix calculated in cspmtx

  In cspmtx, C-Matrix calculated using fitted potential

-------------------------------------------



 -------------------------------------------
  COSMO surface
  Area             =          610.843
  Volume           =         1061.736
  Number of Points =         1644
 -------------------------------------------



 ======================
 RI Hartree-Fock Scheme
 ======================
  
 Fit Set Quality     : GOOD
 Threshold Quality   : GOOD
 Integration Quality : GOOD
 Response Quality    : DEFAULT
 Is Range Separated  :  F
 
 RIHartreeFock Dependency: number of modified vectors:           5
 cosmo_calcen: 0.5 (esolb+esolc) (Hartrees) =   -0.190699

 Solvation energy (screening term,uncorrected) =   -119.665284 kcal/mol

 Solvation energy (dispersion and cavitation terms) =      1.142228 kcal/mol
 Solvation Energy Contributions (Hartrees)
          esola   esolb+esolc
     0.19069875   -0.38139750
 esol last cycle   -0.19069875
  
 Hartree-Fock exchange energy:   -543.875303084854     
 cosmo_calcen: 0.5 (esolb+esolc) (Hartrees) =   -0.190699

 Solvation energy (screening term,uncorrected) =   -119.665361 kcal/mol

 Solvation energy (dispersion and cavitation terms) =      1.142228 kcal/mol
 Solvation Energy Contributions (Hartrees)
          esola   esolb+esolc
     0.19069887   -0.38139774
 esol last cycle   -0.19069887

 Energy gradients wrt nuclear displacements
 ==========================================

     Atom      Cartesian (a.u./angstrom)
                 X         Y         Z
 ----------------------------------------
     1 Pa    0.054625 -0.064214  0.111467
     2 O    -0.121085  0.057317  0.112737
     3 H    -0.007288  0.014429 -0.008176
     4 O    -0.021328  0.019227 -0.020624
     5 O    -0.049740  0.211654  0.163668
     6 O    -0.023714  0.034569 -0.007056
     7 H     0.005198 -0.014660 -0.003918
     8 H     0.000804  0.003117 -0.000862
     9 H     0.002616  0.001852 -0.007429
    10 O     0.082428 -0.250786 -0.180002
    11 C     0.327636  0.143621  0.245909
    12 C    -0.324705  0.005695 -0.050776
    13 O     0.099647 -0.295792 -0.197315
    14 O    -0.190751 -0.005130 -0.122757
    15 O     0.165658  0.139102 -0.034867
 ----------------------------------------
 Mulliken charges used for AMS results%charges...
 
----------------------------------------------------------------------
Geometry Convergence after Step   1       (Hartree/Angstrom,Angstrom)
----------------------------------------------------------------------
current energy                               -4.42215022 Hartree
energy change                      -4.42215022     0.00001500    F
constrained gradient max            0.32755609     0.00010000    F
constrained gradient rms            0.13016109     0.00006667    F
gradient max                        0.32755609
gradient rms                        0.13016109
cart. step max                      0.04394024     0.00100000    F
cart. step rms                      0.01744679     0.00066667    F
 
 
--------
Geometry
--------
Formula: C2H4O8Pa
Atoms
  Index Symbol   x (angstrom)   y (angstrom)   z (angstrom)
      1     Pa    -0.36058676    -0.01529836     0.69279919       adf.R=2.200
      2      O     1.06210276     1.46127779     0.09879075       adf.R=1.517
      3      H    -1.60280358     1.18011791    -1.75648139       adf.R=1.350
      4      O     0.82310877    -0.99585006     1.73744284       adf.R=1.517
      5      O    -1.08933131     0.44097032    -1.43166975       adf.R=1.517
      6      O     0.15921717    -1.60782941    -1.14705517       adf.R=1.517
      7      H    -0.19423759    -1.56930244    -2.04528482       adf.R=1.350
      8      H     0.81333619    -2.31866598    -1.11821847       adf.R=1.350
      9      H     1.98316348     1.54946385     0.37141868       adf.R=1.350
     10      O    -0.09948140     2.09982645     1.55538621       adf.R=1.517
     11      C    -1.58503513     3.08065209     0.27678995       adf.R=1.700
     12      C    -0.56331637     3.33920131     1.20573827       adf.R=1.700
     13      O    -1.47949812     1.78528372    -0.18660202       adf.R=1.517
     14      O    -2.69060909     3.65669124    -0.27377556       adf.R=1.517
     15      O     0.32004294     4.37298562     1.13984055       adf.R=1.517
 
Total System Charge            -1.00000
Bonding info available!
 
 *** GO1_GOStep2 ***

 SOLVATION
-------------------------------------------

  The Delley construction of COSMO surface surface is calculated

       Division Level for Surface Triangles (NDIV)                  3
       Final Division Level for Triangles (NFDIV)                   1
       Radius of the Solvent (RSOL)                           1.93000 angstr
  Dielectric Constant (EPSL)                                 78.39000

       COSMO equation is solved iteratively-               conjugate-gradient

       Maximun of Iterations for Charges (NCIX)                  1000
       Criterion for Charge convergence (CCNV)                1.0E-08

  COSMO charges included variationally in SCF

       COSMO included at every SCF cycle

  Geometry-dependent empirical factor                         0.00000

  C-Matrix calculated in cspmtx

  In cspmtx, C-Matrix calculated using fitted potential

-------------------------------------------



 -------------------------------------------
  COSMO surface
  Area             =          610.597
  Volume           =         1061.197
  Number of Points =         1643
 -------------------------------------------



 ======================
 RI Hartree-Fock Scheme
 ======================
  
 Fit Set Quality     : GOOD
 Threshold Quality   : GOOD
 Integration Quality : GOOD
 Response Quality    : DEFAULT
 Is Range Separated  :  F
 
 RIHartreeFock Dependency: number of modified vectors:           5
 cosmo_calcen: 0.5 (esolb+esolc) (Hartrees) =   -0.187209

 Solvation energy (screening term,uncorrected) =   -117.475299 kcal/mol

 Solvation energy (dispersion and cavitation terms) =      1.141770 kcal/mol
 Solvation Energy Contributions (Hartrees)
          esola   esolb+esolc
     0.18720879   -0.37441757
 esol last cycle   -0.18720879
  
 Hartree-Fock exchange energy:   -543.943763697581     
 cosmo_calcen: 0.5 (esolb+esolc) (Hartrees) =   -0.187209

 Solvation energy (screening term,uncorrected) =   -117.475293 kcal/mol

 Solvation energy (dispersion and cavitation terms) =      1.141770 kcal/mol
 Solvation Energy Contributions (Hartrees)
          esola   esolb+esolc
     0.18720878   -0.37441755
 esol last cycle   -0.18720878

 Energy gradients wrt nuclear displacements
 ==========================================

     Atom      Cartesian (a.u./angstrom)
                 X         Y         Z
 ----------------------------------------
     1 Pa    0.041584 -0.066968  0.108003
     2 O    -0.114569  0.060253  0.109599
     3 H    -0.004489  0.006671 -0.010404
     4 O    -0.016135  0.016067 -0.017046
     5 O    -0.045923  0.192467  0.137199
     6 O    -0.025407  0.036539 -0.008942
     7 H     0.005180 -0.014832 -0.003718
     8 H     0.001384  0.002611 -0.000595
     9 H     0.003375  0.002577 -0.006461
    10 O     0.087242 -0.217020 -0.178953
    11 C     0.289539  0.118582  0.206237
    12 C    -0.290411  0.011876 -0.027955
    13 O     0.094427 -0.266337 -0.166630
    14 O    -0.174853  0.004826 -0.107849
    15 O     0.149057  0.112688 -0.032485
 ----------------------------------------
 Mulliken charges used for AMS results%charges...

 dE(predicted):    -0.48865E-01, dE(actual):    -0.53627E-01, Trust radius:    0.400000, all in a.u.
 
----------------------------------------------------------------------
Geometry Convergence after Step   2       (Hartree/Angstrom,Angstrom)
----------------------------------------------------------------------
current energy                               -4.47577720 Hartree
energy change                      -0.05362698     0.00001500    F
constrained gradient max            0.29044649     0.00010000    F
constrained gradient rms            0.11606838     0.00006667    F
gradient max                        0.29044649
gradient rms                        0.11606838
cart. step max                      0.08150653     0.00100000    F
cart. step rms                      0.03202911     0.00066667    F
 
 
--------
Geometry
--------
Formula: C2H4O8Pa
Atoms
  Index Symbol   x (angstrom)   y (angstrom)   z (angstrom)
      1     Pa    -0.36373589     0.01736588     0.67426137       adf.R=2.200
      2      O     1.09817593     1.46037857     0.07573373       adf.R=1.517
      3      H    -1.59506657     1.12852508    -1.80775744       adf.R=1.350
      4      O     0.83264153    -0.95594209     1.73008702       adf.R=1.517
      5      O    -1.08268988     0.39758669    -1.47160755       adf.R=1.517
      6      O     0.15697378    -1.61558928    -1.13586479       adf.R=1.517
      7      H    -0.20015625    -1.57491624    -2.03204978       adf.R=1.350
      8      H     0.80352449    -2.33327538    -1.09931272       adf.R=1.350
      9      H     2.01729511     1.53689735     0.35454969       adf.R=1.350
     10      O    -0.11051591     2.13896728     1.57137607       adf.R=1.517
     11      C    -1.61539436     3.07401739     0.25765944       adf.R=1.700
     12      C    -0.55806072     3.31878515     1.22173675       adf.R=1.700
     13      O    -1.50034896     1.82532673    -0.19964061       adf.R=1.517
     14      O    -2.62937763     3.71717937    -0.19226903       adf.R=1.517
     15      O     0.24280731     4.32421752     1.17221712       adf.R=1.517
 
Total System Charge            -1.00000
Bonding info available!
 
 *** GO1_GOStep3 ***

 SOLVATION
-------------------------------------------

  The Delley construction of COSMO surface surface is calculated

       Division Level for Surface Triangles (NDIV)                  3
       Final Division Level for Triangles (NFDIV)                   1
       Radius of the Solvent (RSOL)                           1.93000 angstr
  Dielectric Constant (EPSL)                                 78.39000

       COSMO equation is solved iteratively-               conjugate-gradient

       Maximun of Iterations for Charges (NCIX)                  1000
       Criterion for Charge convergence (CCNV)                1.0E-08

  COSMO charges included variationally in SCF

       COSMO included at every SCF cycle

  Geometry-dependent empirical factor                         0.00000

  C-Matrix calculated in cspmtx

  In cspmtx, C-Matrix calculated using fitted potential

-------------------------------------------



 -------------------------------------------
  COSMO surface
  Area             =          608.769
  Volume           =         1058.719
  Number of Points =         1636
 -------------------------------------------



 ======================
 RI Hartree-Fock Scheme
 ======================
  
 Fit Set Quality     : GOOD
 Threshold Quality   : GOOD
 Integration Quality : GOOD
 Response Quality    : DEFAULT
 Is Range Separated  :  F
 
 RIHartreeFock Dependency: number of modified vectors:           5
 cosmo_calcen: 0.5 (esolb+esolc) (Hartrees) =   -0.182229

 Solvation energy (screening term,uncorrected) =   -114.350691 kcal/mol

 Solvation energy (dispersion and cavitation terms) =      1.138350 kcal/mol
 Solvation Energy Contributions (Hartrees)
          esola   esolb+esolc
     0.18222941   -0.36445881
 esol last cycle   -0.18222941
  
 Hartree-Fock exchange energy:   -544.108638970916     
 cosmo_calcen: 0.5 (esolb+esolc) (Hartrees) =   -0.182229

 Solvation energy (screening term,uncorrected) =   -114.350688 kcal/mol

 Solvation energy (dispersion and cavitation terms) =      1.138350 kcal/mol
 Solvation Energy Contributions (Hartrees)
          esola   esolb+esolc
     0.18222940   -0.36445880
 esol last cycle   -0.18222940

 Energy gradients wrt nuclear displacements
 ==========================================

     Atom      Cartesian (a.u./angstrom)
                 X         Y         Z
 ----------------------------------------
     1 Pa    0.020720 -0.071088  0.099544
     2 O    -0.096100  0.059484  0.097993
     3 H    -0.001141 -0.002719 -0.012873
     4 O    -0.006888  0.010888 -0.010996
     5 O    -0.038205  0.158473  0.097623
     6 O    -0.026767  0.037961 -0.012492
     7 H     0.004795 -0.014514 -0.003015
     8 H     0.002121  0.001891  0.000074
     9 H     0.002892  0.003397 -0.005572
    10 O     0.073534 -0.121944 -0.180724
    11 C     0.186866  0.082066  0.111029
    12 C    -0.192626  0.022302  0.018394
    13 O     0.080969 -0.185790 -0.109984
    14 O    -0.097188 -0.012777 -0.058729
    15 O     0.087019  0.032369 -0.030272
 ----------------------------------------
 Mulliken charges used for AMS results%charges...

 dE(predicted):    -0.88184E-01, dE(actual):    -0.84799E-01, Trust radius:    0.800000, all in a.u.
 
----------------------------------------------------------------------
Geometry Convergence after Step   3       (Hartree/Angstrom,Angstrom)
----------------------------------------------------------------------
current energy                               -4.56057626 Hartree
energy change                      -0.08479906     0.00001500    F
constrained gradient max            0.19265368     0.00010000    F
constrained gradient rms            0.08131878     0.00006667    F
gradient max                        0.19265368
gradient rms                        0.08131878
cart. step max                      0.17982124     0.00100000    F
cart. step rms                      0.06381244     0.00066667    F
 
 
--------
Geometry
--------
Formula: C2H4O8Pa
Atoms
  Index Symbol   x (angstrom)   y (angstrom)   z (angstrom)
      1     Pa    -0.36187995     0.07673857     0.61633261       adf.R=2.200
      2      O     1.19570951     1.42334968     0.02918082       adf.R=1.517
      3      H    -1.58398958     1.05004068    -1.88608869       adf.R=1.350
      4      O     0.83886079    -0.90115861     1.68801934       adf.R=1.517
      5      O    -1.07377890     0.31831663    -1.55084467       adf.R=1.517
      6      O     0.16651012    -1.65415739    -1.11284968       adf.R=1.517
      7      H    -0.18808507    -1.59784268    -2.00863860       adf.R=1.350
      8      H     0.78558118    -2.39398381    -1.05484812       adf.R=1.350
      9      H     2.10815607     1.45725705     0.33112646       adf.R=1.350
     10      O    -0.11761221     2.18690713     1.61170663       adf.R=1.517
     11      C    -1.68836880     3.08302868     0.24236354       adf.R=1.700
     12      C    -0.53940111     3.30130665     1.22618280       adf.R=1.700
     13      O    -1.54625982     1.90094785    -0.23372555       adf.R=1.517
     14      O    -2.56235636     3.85321528    -0.02536731       adf.R=1.517
     15      O     0.06298607     4.35555834     1.24656969       adf.R=1.517
 
Total System Charge            -1.00000
Bonding info available!
 
 *** GO1_GOStep4 ***

 SOLVATION
-------------------------------------------

  The Delley construction of COSMO surface surface is calculated

       Division Level for Surface Triangles (NDIV)                  3
       Final Division Level for Triangles (NFDIV)                   1
       Radius of the Solvent (RSOL)                           1.93000 angstr
  Dielectric Constant (EPSL)                                 78.39000

       COSMO equation is solved iteratively-               conjugate-gradient

       Maximun of Iterations for Charges (NCIX)                  1000
       Criterion for Charge convergence (CCNV)                1.0E-08

  COSMO charges included variationally in SCF

       COSMO included at every SCF cycle

  Geometry-dependent empirical factor                         0.00000

  C-Matrix calculated in cspmtx

  In cspmtx, C-Matrix calculated using fitted potential

-------------------------------------------



 -------------------------------------------
  COSMO surface
  Area             =          610.952
  Volume           =         1058.978
  Number of Points =         1646
 -------------------------------------------



 ======================
 RI Hartree-Fock Scheme
 ======================
  
 Fit Set Quality     : GOOD
 Threshold Quality   : GOOD
 Integration Quality : GOOD
 Response Quality    : DEFAULT
 Is Range Separated  :  F
 
 RIHartreeFock Dependency: number of modified vectors:           6
 cosmo_calcen: 0.5 (esolb+esolc) (Hartrees) =   -0.176369

 Solvation energy (screening term,uncorrected) =   -110.673414 kcal/mol

 Solvation energy (dispersion and cavitation terms) =      1.142433 kcal/mol
 Solvation Energy Contributions (Hartrees)
          esola   esolb+esolc
     0.17636929   -0.35273859
 esol last cycle   -0.17636929
  
 Hartree-Fock exchange energy:   -544.282208770976     
 cosmo_calcen: 0.5 (esolb+esolc) (Hartrees) =   -0.176369

 Solvation energy (screening term,uncorrected) =   -110.673410 kcal/mol

 Solvation energy (dispersion and cavitation terms) =      1.142433 kcal/mol
 Solvation Energy Contributions (Hartrees)
          esola   esolb+esolc
     0.17636929   -0.35273857
 esol last cycle   -0.17636929

 Energy gradients wrt nuclear displacements
 ==========================================

     Atom      Cartesian (a.u./angstrom)
                 X         Y         Z
 ----------------------------------------
     1 Pa   -0.006198 -0.059317  0.076779
     2 O    -0.056301  0.044588  0.071365
     3 H     0.002168 -0.010194 -0.012109
     4 O     0.007588  0.004108 -0.003208
     5 O    -0.027315  0.100177  0.044301
     6 O    -0.024065  0.033565 -0.017227
     7 H     0.003285 -0.011253 -0.001438
     8 H     0.002716  0.000571  0.001892
     9 H     0.000976  0.003267 -0.004630
    10 O     0.016108  0.006843 -0.150767
    11 C    -0.046341  0.067287 -0.046260
    12 C     0.003847  0.027694  0.067815
    13 O     0.078058 -0.056965 -0.019331
    14 O     0.067785 -0.076280  0.026011
    15 O    -0.022311 -0.074090 -0.033193
 ----------------------------------------
 Mulliken charges used for AMS results%charges...

 dE(predicted):    -0.89475E-01, dE(actual):    -0.83468E-01, Trust radius:    1.000000, all in a.u.
 
----------------------------------------------------------------------
Geometry Convergence after Step   4       (Hartree/Angstrom,Angstrom)
----------------------------------------------------------------------
current energy                               -4.64404473 Hartree
energy change                      -0.08346847     0.00001500    F
constrained gradient max            0.15072419     0.00010000    F
constrained gradient rms            0.04716316     0.00006667    F
gradient max                        0.15072419
gradient rms                        0.04716316
cart. step max                      0.20179221     0.00100000    F
cart. step rms                      0.06818412     0.00066667    F
 
 
--------
Geometry
--------
Formula: C2H4O8Pa
Atoms
  Index Symbol   x (angstrom)   y (angstrom)   z (angstrom)
      1     Pa    -0.35087492     0.13625807     0.54120249       adf.R=2.200
      2      O     1.28333543     1.37660807    -0.05469817       adf.R=1.517
      3      H    -1.60479287     0.97958532    -1.93956836       adf.R=1.350
      4      O     0.81383451    -0.87295950     1.63223814       adf.R=1.517
      5      O    -1.10196447     0.23493727    -1.61591732       adf.R=1.517
      6      O     0.19853841    -1.70292627    -1.07937940       adf.R=1.517
      7      H    -0.12315523    -1.62016344    -1.98555063       adf.R=1.350
      8      H     0.77560347    -2.47165269    -0.98859113       adf.R=1.350
      9      H     2.18973815     1.35180073     0.26484734       adf.R=1.350
     10      O    -0.07324637     2.20975237     1.65338968       adf.R=1.517
     11      C    -1.74269152     3.11113219     0.25660003       adf.R=1.700
     12      C    -0.51095244     3.31712914     1.22118934       adf.R=1.700
     13      O    -1.60380292     1.95655552    -0.26906989       adf.R=1.517
     14      O    -2.56314890     3.99961375     0.03406526       adf.R=1.517
     15      O    -0.09034838     4.45385353     1.44836190       adf.R=1.517
 
Total System Charge            -1.00000
Bonding info available!
 
 *** GO1_GOStep5 ***

 SOLVATION
-------------------------------------------

  The Delley construction of COSMO surface surface is calculated

       Division Level for Surface Triangles (NDIV)                  3
       Final Division Level for Triangles (NFDIV)                   1
       Radius of the Solvent (RSOL)                           1.93000 angstr
  Dielectric Constant (EPSL)                                 78.39000

       COSMO equation is solved iteratively-               conjugate-gradient

       Maximun of Iterations for Charges (NCIX)                  1000
       Criterion for Charge convergence (CCNV)                1.0E-08

  COSMO charges included variationally in SCF

       COSMO included at every SCF cycle

  Geometry-dependent empirical factor                         0.00000

  C-Matrix calculated in cspmtx

  In cspmtx, C-Matrix calculated using fitted potential

-------------------------------------------



 -------------------------------------------
  COSMO surface
  Area             =          619.984
  Volume           =         1074.029
  Number of Points =         1684
 -------------------------------------------



 ======================
 RI Hartree-Fock Scheme
 ======================
  
 Fit Set Quality     : GOOD
 Threshold Quality   : GOOD
 Integration Quality : GOOD
 Response Quality    : DEFAULT
 Is Range Separated  :  F
 
 RIHartreeFock Dependency: number of modified vectors:           6
 cosmo_calcen: 0.5 (esolb+esolc) (Hartrees) =   -0.171526

 Solvation energy (screening term,uncorrected) =   -107.634327 kcal/mol

 Solvation energy (dispersion and cavitation terms) =      1.159321 kcal/mol
 Solvation Energy Contributions (Hartrees)
          esola   esolb+esolc
     0.17152620   -0.34305240
 esol last cycle   -0.17152620
  
 Hartree-Fock exchange energy:   -544.181607042740     
 cosmo_calcen: 0.5 (esolb+esolc) (Hartrees) =   -0.171526

 Solvation energy (screening term,uncorrected) =   -107.634328 kcal/mol

 Solvation energy (dispersion and cavitation terms) =      1.159321 kcal/mol
 Solvation Energy Contributions (Hartrees)
          esola   esolb+esolc
     0.17152620   -0.34305240
 esol last cycle   -0.17152620

 Energy gradients wrt nuclear displacements
 ==========================================

     Atom      Cartesian (a.u./angstrom)
                 X         Y         Z
 ----------------------------------------
     1 Pa   -0.019428 -0.027512  0.052702
     2 O    -0.031135  0.029420  0.054049
     3 H     0.002681 -0.009337 -0.007673
     4 O     0.013464 -0.000285 -0.001519
     5 O    -0.020702  0.058563  0.014949
     6 O    -0.016389  0.022737 -0.016620
     7 H     0.002056 -0.005439 -0.000324
     8 H     0.001782 -0.000546  0.003756
     9 H     0.000137  0.001888 -0.003457
    10 O     0.012618 -0.012290 -0.068503
    11 C    -0.060448 -0.021566 -0.025107
    12 C     0.042938 -0.019240  0.005271
    13 O     0.077961 -0.036762 -0.003783
    14 O     0.005335  0.018657  0.005822
    15 O    -0.010871  0.001713 -0.009561
 ----------------------------------------
 Mulliken charges used for AMS results%charges...

 dE(predicted):    -0.37953E-01, dE(actual):    -0.44159E-01, Trust radius:    1.000000, all in a.u.
 
----------------------------------------------------------------------
Geometry Convergence after Step   5       (Hartree/Angstrom,Angstrom)
----------------------------------------------------------------------
current energy                               -4.68820401 Hartree
energy change                      -0.04415928     0.00001500    F
constrained gradient max            0.07791952     0.00010000    F
constrained gradient rms            0.02759875     0.00006667    F
gradient max                        0.07791952
gradient rms                        0.02759875
cart. step max                      0.21576613     0.00100000    F
cart. step rms                      0.05092489     0.00066667    F
 
 
--------
Geometry
--------
Formula: C2H4O8Pa
Atoms
  Index Symbol   x (angstrom)   y (angstrom)   z (angstrom)
      1     Pa    -0.33179284     0.18073340     0.48838413       adf.R=2.200
      2      O     1.31924254     1.36571796    -0.14032675       adf.R=1.517
      3      H    -1.63463174     0.91552773    -1.95774436       adf.R=1.350
      4      O     0.81111889    -0.82328394     1.60862762       adf.R=1.517
      5      O    -1.13515911     0.15863495    -1.64763573       adf.R=1.517
      6      O     0.21608167    -1.73639350    -1.05298857       adf.R=1.517
      7      H    -0.09629364    -1.63744413    -1.96111767       adf.R=1.350
      8      H     0.76622882    -2.52173612    -0.95085269       adf.R=1.350
      9      H     2.22280482     1.31830081     0.18495000       adf.R=1.350
     10      O    -0.08390956     2.23285570     1.68507940       adf.R=1.517
     11      C    -1.70883161     3.16996749     0.19851661       adf.R=1.700
     12      C    -0.54419241     3.34585518     1.28333173       adf.R=1.700
     13      O    -1.60874707     2.01311930    -0.30596844       adf.R=1.517
     14      O    -2.55912429     4.03437586     0.02273595       adf.R=1.517
     15      O    -0.13672251     4.44329334     1.66412803       adf.R=1.517
 
Total System Charge            -1.00000
Bonding info available!
 
 *** GO1_GOStep6 ***

 SOLVATION
-------------------------------------------

  The Delley construction of COSMO surface surface is calculated

       Division Level for Surface Triangles (NDIV)                  3
       Final Division Level for Triangles (NFDIV)                   1
       Radius of the Solvent (RSOL)                           1.93000 angstr
  Dielectric Constant (EPSL)                                 78.39000

       COSMO equation is solved iteratively-               conjugate-gradient

       Maximun of Iterations for Charges (NCIX)                  1000
       Criterion for Charge convergence (CCNV)                1.0E-08

  COSMO charges included variationally in SCF

       COSMO included at every SCF cycle

  Geometry-dependent empirical factor                         0.00000

  C-Matrix calculated in cspmtx

  In cspmtx, C-Matrix calculated using fitted potential

-------------------------------------------



 -------------------------------------------
  COSMO surface
  Area             =          619.802
  Volume           =         1073.978
  Number of Points =         1696
 -------------------------------------------



 ======================
 RI Hartree-Fock Scheme
 ======================
  
 Fit Set Quality     : GOOD
 Threshold Quality   : GOOD
 Integration Quality : GOOD
 Response Quality    : DEFAULT
 Is Range Separated  :  F
 
 RIHartreeFock Dependency: number of modified vectors:           5
 cosmo_calcen: 0.5 (esolb+esolc) (Hartrees) =   -0.166231

 Solvation energy (screening term,uncorrected) =   -104.311572 kcal/mol

 Solvation energy (dispersion and cavitation terms) =      1.158983 kcal/mol
 Solvation Energy Contributions (Hartrees)
          esola   esolb+esolc
     0.16623105   -0.33246211
 esol last cycle   -0.16623105
  
 Hartree-Fock exchange energy:   -544.173337153836     
 cosmo_calcen: 0.5 (esolb+esolc) (Hartrees) =   -0.166231

 Solvation energy (screening term,uncorrected) =   -104.311550 kcal/mol

 Solvation energy (dispersion and cavitation terms) =      1.158983 kcal/mol
 Solvation Energy Contributions (Hartrees)
          esola   esolb+esolc
     0.16623102   -0.33246204
 esol last cycle   -0.16623102

 Energy gradients wrt nuclear displacements
 ==========================================

     Atom      Cartesian (a.u./angstrom)
                 X         Y         Z
 ----------------------------------------
     1 Pa   -0.017003 -0.015131  0.036726
     2 O    -0.021728  0.018064  0.042259
     3 H     0.000658 -0.005685 -0.005712
     4 O     0.013809 -0.001481 -0.001542
     5 O    -0.012717  0.033726  0.003578
     6 O    -0.012442  0.015496 -0.015842
     7 H     0.001546 -0.001687  0.000075
     8 H     0.000344 -0.000109  0.004577
     9 H    -0.000611  0.000764 -0.002854
    10 O     0.020686  0.016093 -0.038036
    11 C    -0.041186 -0.016635 -0.067084
    12 C     0.010740 -0.013447  0.008557
    13 O     0.046868 -0.014894  0.017040
    14 O     0.002024  0.000571  0.014643
    15 O     0.009011 -0.015646  0.003614
 ----------------------------------------
 Mulliken charges used for AMS results%charges...

 dE(predicted):    -0.23909E-01, dE(actual):    -0.17950E-01, Trust radius:    1.000000, all in a.u.
 
----------------------------------------------------------------------
Geometry Convergence after Step   6       (Hartree/Angstrom,Angstrom)
----------------------------------------------------------------------
current energy                               -4.70615439 Hartree
energy change                      -0.01795038     0.00001500    F
constrained gradient max            0.06697568     0.00010000    F
constrained gradient rms            0.02051978     0.00006667    F
gradient max                        0.06697568
gradient rms                        0.02051978
cart. step max                      0.15084691     0.00100000    F
cart. step rms                      0.06567530     0.00066667    F
 
 
--------
Geometry
--------
Formula: C2H4O8Pa
Atoms
  Index Symbol   x (angstrom)   y (angstrom)   z (angstrom)
      1     Pa    -0.31063970     0.21640405     0.40280074       adf.R=2.200
      2      O     1.36915504     1.30656733    -0.29117366       adf.R=1.517
      3      H    -1.63738305     0.87340557    -1.96111064       adf.R=1.350
      4      O     0.75580887    -0.75874926     1.61623517       adf.R=1.517
      5      O    -1.16013637     0.08038080    -1.69333652       adf.R=1.517
      6      O     0.27084699    -1.79311546    -1.02960529       adf.R=1.517
      7      H    -0.02284249    -1.66279547    -1.94086797       adf.R=1.350
      8      H     0.78576171    -2.59932091    -0.92429581       adf.R=1.350
      9      H     2.26609901     1.22221981     0.04860225       adf.R=1.350
     10      O    -0.11510288     2.23972647     1.71890042       adf.R=1.517
     11      C    -1.73736696     3.22176214     0.27325273       adf.R=1.700
     12      C    -0.58927447     3.38900747     1.38986764       adf.R=1.700
     13      O    -1.64642152     2.08818677    -0.28589653       adf.R=1.517
     14      O    -2.47977286     4.14198380    -0.00835342       adf.R=1.517
     15      O    -0.25265937     4.49386092     1.80410015       adf.R=1.517
 
Total System Charge            -1.00000
Bonding info available!
 
 *** GO1_GOStep7 ***

 SOLVATION
-------------------------------------------

  The Delley construction of COSMO surface surface is calculated

       Division Level for Surface Triangles (NDIV)                  3
       Final Division Level for Triangles (NFDIV)                   1
       Radius of the Solvent (RSOL)                           1.93000 angstr
  Dielectric Constant (EPSL)                                 78.39000

       COSMO equation is solved iteratively-               conjugate-gradient

       Maximun of Iterations for Charges (NCIX)                  1000
       Criterion for Charge convergence (CCNV)                1.0E-08

  COSMO charges included variationally in SCF

       COSMO included at every SCF cycle

  Geometry-dependent empirical factor                         0.00000

  C-Matrix calculated in cspmtx

  In cspmtx, C-Matrix calculated using fitted potential

-------------------------------------------



 -------------------------------------------
  COSMO surface
  Area             =          623.610
  Volume           =         1079.740
  Number of Points =         1707
 -------------------------------------------



 ======================
 RI Hartree-Fock Scheme
 ======================
  
 Fit Set Quality     : GOOD
 Threshold Quality   : GOOD
 Integration Quality : GOOD
 Response Quality    : DEFAULT
 Is Range Separated  :  F
 
 RIHartreeFock Dependency: number of modified vectors:           5
 cosmo_calcen: 0.5 (esolb+esolc) (Hartrees) =   -0.160567

 Solvation energy (screening term,uncorrected) =   -100.757287 kcal/mol

 Solvation energy (dispersion and cavitation terms) =      1.166102 kcal/mol
 Solvation Energy Contributions (Hartrees)
          esola   esolb+esolc
     0.16056694   -0.32113388
 esol last cycle   -0.16056694
  
 Hartree-Fock exchange energy:   -544.154787634239     
 cosmo_calcen: 0.5 (esolb+esolc) (Hartrees) =   -0.160567

 Solvation energy (screening term,uncorrected) =   -100.757304 kcal/mol

 Solvation energy (dispersion and cavitation terms) =      1.166102 kcal/mol
 Solvation Energy Contributions (Hartrees)
          esola   esolb+esolc
     0.16056697   -0.32113394
 esol last cycle   -0.16056697

 Energy gradients wrt nuclear displacements
 ==========================================

     Atom      Cartesian (a.u./angstrom)
                 X         Y         Z
 ----------------------------------------
     1 Pa   -0.007854 -0.009291  0.013944
     2 O    -0.015354  0.006462  0.027633
     3 H    -0.000108  0.000008 -0.001524
     4 O     0.011046 -0.001469 -0.001433
     5 O    -0.005742  0.004795 -0.006300
     6 O    -0.003978  0.002369 -0.012573
     7 H    -0.000111  0.004590  0.000344
     8 H    -0.001485  0.001194  0.005360
     9 H    -0.000242 -0.001095 -0.001386
    10 O     0.002282 -0.012929 -0.025636
    11 C    -0.066466 -0.019257 -0.037904
    12 C     0.030666  0.024663  0.019551
    13 O     0.031634  0.015783  0.017428
    14 O     0.027487 -0.018397  0.006936
    15 O    -0.001777  0.002576 -0.004441
 ----------------------------------------
 Mulliken charges used for AMS results%charges...
 Rebuilding optimization coordinates

 dE(predicted):    -0.18187E-01, dE(actual):    -0.18111E-01, Trust radius:    1.000000, all in a.u.
 
----------------------------------------------------------------------
Geometry Convergence after Step   7       (Hartree/Angstrom,Angstrom)
----------------------------------------------------------------------
current energy                               -4.72426492 Hartree
energy change                      -0.01811053     0.00001500    F
constrained gradient max            0.06656093     0.00010000    F
constrained gradient rms            0.01735555     0.00006667    F
gradient max                        0.06656093
gradient rms                        0.01735555
cart. step max                      0.21218890     0.00100000    F
cart. step rms                      0.08078983     0.00066667    F
 
 
--------
Geometry
--------
Formula: C2H4O8Pa
Atoms
  Index Symbol   x (angstrom)   y (angstrom)   z (angstrom)
      1     Pa    -0.28902827     0.25631539     0.30108729       adf.R=2.200
      2      O     1.41236194     1.23412560    -0.49109923       adf.R=1.517
      3      H    -1.62906442     0.86821038    -1.98414317       adf.R=1.350
      4      O     0.61402243    -0.63362035     1.69208326       adf.R=1.517
      5      O    -1.19990328     0.03586136    -1.74516049       adf.R=1.517
      6      O     0.34554601    -1.85128725    -0.98604724       adf.R=1.517
      7      H     0.06083619    -1.73867317    -1.90281002       adf.R=1.350
      8      H     0.83777372    -2.66850927    -0.86261270       adf.R=1.350
      9      H     2.30462392     1.12375978    -0.14248996       adf.R=1.350
     10      O    -0.10645521     2.24152246     1.71039603       adf.R=1.517
     11      C    -1.69940770     3.31758593     0.28753398       adf.R=1.700
     12      C    -0.61864174     3.39768531     1.46179568       adf.R=1.700
     13      O    -1.67074351     2.16708560    -0.28112110       adf.R=1.517
     14      O    -2.47713219     4.24475540     0.04541791       adf.R=1.517
     15      O    -0.38871593     4.46470687     2.01628905       adf.R=1.517
 
Total System Charge            -1.00000
Bonding info available!
 
 *** GO1_GOStep8 ***

 SOLVATION
-------------------------------------------

  The Delley construction of COSMO surface surface is calculated

       Division Level for Surface Triangles (NDIV)                  3
       Final Division Level for Triangles (NFDIV)                   1
       Radius of the Solvent (RSOL)                           1.93000 angstr
  Dielectric Constant (EPSL)                                 78.39000

       COSMO equation is solved iteratively-               conjugate-gradient

       Maximun of Iterations for Charges (NCIX)                  1000
       Criterion for Charge convergence (CCNV)                1.0E-08

  COSMO charges included variationally in SCF

       COSMO included at every SCF cycle

  Geometry-dependent empirical factor                         0.00000

  C-Matrix calculated in cspmtx

  In cspmtx, C-Matrix calculated using fitted potential

-------------------------------------------



 -------------------------------------------
  COSMO surface
  Area             =          629.012
  Volume           =         1085.726
  Number of Points =         1725
 -------------------------------------------



 ======================
 RI Hartree-Fock Scheme
 ======================
  
 Fit Set Quality     : GOOD
 Threshold Quality   : GOOD
 Integration Quality : GOOD
 Response Quality    : DEFAULT
 Is Range Separated  :  F
 
 RIHartreeFock Dependency: number of modified vectors:           5
 cosmo_calcen: 0.5 (esolb+esolc) (Hartrees) =   -0.158139

 Solvation energy (screening term,uncorrected) =    -99.233873 kcal/mol

 Solvation energy (dispersion and cavitation terms) =      1.176203 kcal/mol
 Solvation Energy Contributions (Hartrees)
          esola   esolb+esolc
     0.15813923   -0.31627845
 esol last cycle   -0.15813923
  
 Hartree-Fock exchange energy:   -544.121874042481     
 cosmo_calcen: 0.5 (esolb+esolc) (Hartrees) =   -0.158139

 Solvation energy (screening term,uncorrected) =    -99.233769 kcal/mol

 Solvation energy (dispersion and cavitation terms) =      1.176203 kcal/mol
 Solvation Energy Contributions (Hartrees)
          esola   esolb+esolc
     0.15813906   -0.31627812
 esol last cycle   -0.15813906

 Energy gradients wrt nuclear displacements
 ==========================================

     Atom      Cartesian (a.u./angstrom)
                 X         Y         Z
 ----------------------------------------
     1 Pa    0.005918 -0.007649 -0.000553
     2 O    -0.015402  0.002569  0.016909
     3 H     0.001816  0.003101  0.003265
     4 O     0.004773  0.001721  0.001537
     5 O    -0.006665 -0.005318 -0.012197
     6 O     0.003331 -0.008885 -0.008467
     7 H    -0.001698  0.008482  0.000741
     8 H    -0.001661  0.001673  0.004598
     9 H    -0.000636 -0.003218 -0.000021
    10 O     0.000541 -0.017402 -0.013520
    11 C    -0.007044  0.000387 -0.024797
    12 C     0.023478  0.020826  0.025651
    13 O     0.017306 -0.008149  0.016201
    14 O    -0.016525  0.013612 -0.000885
    15 O    -0.007531 -0.001751 -0.008462
 ----------------------------------------
 Mulliken charges used for AMS results%charges...

 dE(predicted):    -0.84706E-02, dE(actual):    -0.97034E-02, Trust radius:    1.000000, all in a.u.
 
----------------------------------------------------------------------
Geometry Convergence after Step   8       (Hartree/Angstrom,Angstrom)
----------------------------------------------------------------------
current energy                               -4.73396832 Hartree
energy change                      -0.00970340     0.00001500    F
constrained gradient max            0.02568901     0.00010000    F
constrained gradient rms            0.01073238     0.00006667    F
gradient max                        0.02568901
gradient rms                        0.01073238
cart. step max                      0.08381662     0.00100000    F
cart. step rms                      0.03444258     0.00066667    F
 
 
--------
Geometry
--------
Formula: C2H4O8Pa
Atoms
  Index Symbol   x (angstrom)   y (angstrom)   z (angstrom)
      1     Pa    -0.30145532     0.27777375     0.26817374       adf.R=2.200
      2      O     1.40475464     1.22188189    -0.56817644       adf.R=1.517
      3      H    -1.63227876     0.88579092    -2.01117424       adf.R=1.350
      4      O     0.54284230    -0.60570372     1.69705137       adf.R=1.517
      5      O    -1.21193903     0.04818380    -1.77255067       adf.R=1.517
      6      O     0.38507471    -1.85653824    -0.95206213       adf.R=1.517
      7      H     0.09750998    -1.78710574    -1.87187226       adf.R=1.350
      8      H     0.88458586    -2.66701752    -0.81011714       adf.R=1.350
      9      H     2.30047467     1.11535501    -0.22630659       adf.R=1.350
     10      O    -0.09708571     2.23832853     1.71344073       adf.R=1.517
     11      C    -1.72658195     3.31645648     0.32433712       adf.R=1.700
     12      C    -0.64328812     3.38026285     1.48839586       adf.R=1.700
     13      O    -1.71268814     2.18144500    -0.27106689       adf.R=1.517
     14      O    -2.41554719     4.28743640     0.02798652       adf.R=1.517
     15      O    -0.37830598     4.42297463     2.08306030       adf.R=1.517
 
Total System Charge            -1.00000
Bonding info available!
 
 *** GO1_GOStep9 ***

 SOLVATION
-------------------------------------------

  The Delley construction of COSMO surface surface is calculated

       Division Level for Surface Triangles (NDIV)                  3
       Final Division Level for Triangles (NFDIV)                   1
       Radius of the Solvent (RSOL)                           1.93000 angstr
  Dielectric Constant (EPSL)                                 78.39000

       COSMO equation is solved iteratively-               conjugate-gradient

       Maximun of Iterations for Charges (NCIX)                  1000
       Criterion for Charge convergence (CCNV)                1.0E-08

  COSMO charges included variationally in SCF

       COSMO included at every SCF cycle

  Geometry-dependent empirical factor                         0.00000

  C-Matrix calculated in cspmtx

  In cspmtx, C-Matrix calculated using fitted potential

-------------------------------------------



 -------------------------------------------
  COSMO surface
  Area             =          631.298
  Volume           =         1089.586
  Number of Points =         1722
 -------------------------------------------



 ======================
 RI Hartree-Fock Scheme
 ======================
  
 Fit Set Quality     : GOOD
 Threshold Quality   : GOOD
 Integration Quality : GOOD
 Response Quality    : DEFAULT
 Is Range Separated  :  F
 
 RIHartreeFock Dependency: number of modified vectors:           5
 cosmo_calcen: 0.5 (esolb+esolc) (Hartrees) =   -0.158555

 Solvation energy (screening term,uncorrected) =    -99.495079 kcal/mol

 Solvation energy (dispersion and cavitation terms) =      1.180479 kcal/mol
 Solvation Energy Contributions (Hartrees)
          esola   esolb+esolc
     0.15855548   -0.31711097
 esol last cycle   -0.15855548
  
 Hartree-Fock exchange energy:   -544.128920102033     
 cosmo_calcen: 0.5 (esolb+esolc) (Hartrees) =   -0.158556

 Solvation energy (screening term,uncorrected) =    -99.495100 kcal/mol

 Solvation energy (dispersion and cavitation terms) =      1.180479 kcal/mol
 Solvation Energy Contributions (Hartrees)
          esola   esolb+esolc
     0.15855552   -0.31711103
 esol last cycle   -0.15855552

 Energy gradients wrt nuclear displacements
 ==========================================

     Atom      Cartesian (a.u./angstrom)
                 X         Y         Z
 ----------------------------------------
     1 Pa    0.004712 -0.005146 -0.001970
     2 O    -0.013545  0.002166  0.012558
     3 H     0.002241  0.003956  0.004201
     4 O     0.002852  0.002379  0.001014
     5 O    -0.007264 -0.005280 -0.013886
     6 O     0.005692 -0.009321 -0.004116
     7 H    -0.002018  0.007820  0.001236
     8 H    -0.001106  0.000938  0.002592
     9 H    -0.000411 -0.003346  0.000207
    10 O     0.005080 -0.000959 -0.001406
    11 C    -0.028158 -0.007246 -0.009434
    12 C     0.006221  0.014094  0.001568
    13 O     0.015720  0.001918  0.007330
    14 O     0.002207  0.002019 -0.005650
    15 O     0.007778 -0.003991  0.005757
 ----------------------------------------
 Mulliken charges used for AMS results%charges...

 dE(predicted):    -0.21169E-02, dE(actual):    -0.25084E-02, Trust radius:    1.000000, all in a.u.
 
----------------------------------------------------------------------
Geometry Convergence after Step   9       (Hartree/Angstrom,Angstrom)
----------------------------------------------------------------------
current energy                               -4.73647675 Hartree
energy change                      -0.00250844     0.00001500    F
constrained gradient max            0.02827325     0.00010000    F
constrained gradient rms            0.00760947     0.00006667    F
gradient max                        0.02827325
gradient rms                        0.00760947
cart. step max                      0.13084906     0.00100000    F
cart. step rms                      0.05146927     0.00066667    F
 
 
--------
Geometry
--------
Formula: C2H4O8Pa
Atoms
  Index Symbol   x (angstrom)   y (angstrom)   z (angstrom)
      1     Pa    -0.29711220     0.31916457     0.20642809       adf.R=2.200
      2      O     1.42672080     1.19777238    -0.69451036       adf.R=1.517
      3      H    -1.62766403     0.90177593    -2.06216938       adf.R=1.350
      4      O     0.44311868    -0.56287831     1.68930260       adf.R=1.517
      5      O    -1.21588171     0.06110019    -1.81742080       adf.R=1.517
      6      O     0.42171285    -1.87240629    -0.89741089       adf.R=1.517
      7      H     0.12464934    -1.87803769    -1.81665924       adf.R=1.350
      8      H     0.91934967    -2.67849825    -0.72236618       adf.R=1.350
      9      H     2.32546496     1.09680538    -0.35715564       adf.R=1.350
     10      O    -0.06448947     2.23185762     1.71232904       adf.R=1.517
     11      C    -1.70754647     3.34516182     0.34911880       adf.R=1.700
     12      C    -0.66351521     3.35516657     1.53242233       adf.R=1.700
     13      O    -1.73802615     2.22207939    -0.26842100       adf.R=1.517
     14      O    -2.37461134     4.33394876     0.08183341       adf.R=1.517
     15      O    -0.47609777     4.38651196     2.18379848       adf.R=1.517
 
Total System Charge            -1.00000
Bonding info available!
 
 *** GO1_GOStep10 ***

 SOLVATION
-------------------------------------------

  The Delley construction of COSMO surface surface is calculated

       Division Level for Surface Triangles (NDIV)                  3
       Final Division Level for Triangles (NFDIV)                   1
       Radius of the Solvent (RSOL)                           1.93000 angstr
  Dielectric Constant (EPSL)                                 78.39000

       COSMO equation is solved iteratively-               conjugate-gradient

       Maximun of Iterations for Charges (NCIX)                  1000
       Criterion for Charge convergence (CCNV)                1.0E-08

  COSMO charges included variationally in SCF

       COSMO included at every SCF cycle

  Geometry-dependent empirical factor                         0.00000

  C-Matrix calculated in cspmtx

  In cspmtx, C-Matrix calculated using fitted potential

-------------------------------------------



 -------------------------------------------
  COSMO surface
  Area             =          632.898
  Volume           =         1092.102
  Number of Points =         1728
 -------------------------------------------



 ======================
 RI Hartree-Fock Scheme
 ======================
  
 Fit Set Quality     : GOOD
 Threshold Quality   : GOOD
 Integration Quality : GOOD
 Response Quality    : DEFAULT
 Is Range Separated  :  F
 
 RIHartreeFock Dependency: number of modified vectors:           5
 cosmo_calcen: 0.5 (esolb+esolc) (Hartrees) =   -0.157874

 Solvation energy (screening term,uncorrected) =    -99.067400 kcal/mol

 Solvation energy (dispersion and cavitation terms) =      1.183470 kcal/mol
 Solvation Energy Contributions (Hartrees)
          esola   esolb+esolc
     0.15787393   -0.31574787
 esol last cycle   -0.15787393
  
 Hartree-Fock exchange energy:   -544.130876919081     
 cosmo_calcen: 0.5 (esolb+esolc) (Hartrees) =   -0.157874

 Solvation energy (screening term,uncorrected) =    -99.067344 kcal/mol

 Solvation energy (dispersion and cavitation terms) =      1.183470 kcal/mol
 Solvation Energy Contributions (Hartrees)
          esola   esolb+esolc
     0.15787385   -0.31574769
 esol last cycle   -0.15787385

 Energy gradients wrt nuclear displacements
 ==========================================

     Atom      Cartesian (a.u./angstrom)
                 X         Y         Z
 ----------------------------------------
     1 Pa    0.001486 -0.002456 -0.001956
     2 O    -0.009346  0.002169  0.005268
     3 H     0.002984  0.004462  0.005440
     4 O     0.000861  0.003571  0.000591
     5 O    -0.006680 -0.006359 -0.015015
     6 O     0.007284 -0.007405  0.002734
     7 H    -0.001800  0.005802  0.001462
     8 H    -0.000714 -0.000116 -0.001205
     9 H     0.000265 -0.003210  0.000635
    10 O     0.008713 -0.006229  0.003939
    11 C    -0.017988  0.006195 -0.013580
    12 C    -0.001095 -0.005669 -0.002500
    13 O     0.006621  0.008606  0.009242
    14 O     0.006289 -0.008542 -0.000222
    15 O     0.003118  0.009181  0.005166
 ----------------------------------------
 Mulliken charges used for AMS results%charges...

 dE(predicted):    -0.18243E-02, dE(actual):    -0.22453E-02, Trust radius:    1.000000, all in a.u.
 
----------------------------------------------------------------------
Geometry Convergence after Step  10       (Hartree/Angstrom,Angstrom)
----------------------------------------------------------------------
current energy                               -4.73872205 Hartree
energy change                      -0.00224530     0.00001500    F
constrained gradient max            0.01809039     0.00010000    F
constrained gradient rms            0.00638437     0.00006667    F
gradient max                        0.01809039
gradient rms                        0.00638437
cart. step max                      0.07874023     0.00100000    F
cart. step rms                      0.02681365     0.00066667    F
 
 
--------
Geometry
--------
Formula: C2H4O8Pa
Atoms
  Index Symbol   x (angstrom)   y (angstrom)   z (angstrom)
      1     Pa    -0.26195562     0.34205127     0.19964048       adf.R=2.200
      2      O     1.46848142     1.20114547    -0.73703304       adf.R=1.517
      3      H    -1.60595657     0.88646085    -2.07990310       adf.R=1.350
      4      O     0.42848878    -0.56759528     1.68833352       adf.R=1.517
      5      O    -1.17023053     0.06404963    -1.81686237       adf.R=1.517
      6      O     0.39781951    -1.87497359    -0.89194057       adf.R=1.517
      7      H     0.07079755    -1.92998086    -1.79976921       adf.R=1.350
      8      H     0.88673629    -2.68536214    -0.70810290       adf.R=1.350
      9      H     2.37076470     1.12619746    -0.40274018       adf.R=1.350
     10      O    -0.04383625     2.25838310     1.69930627       adf.R=1.517
     11      C    -1.70149676     3.34765299     0.35951651       adf.R=1.700
     12      C    -0.68336109     3.35634440     1.54464248       adf.R=1.700
     13      O    -1.73538717     2.22323800    -0.26257931       adf.R=1.517
     14      O    -2.36995429     4.34021925     0.09719905       adf.R=1.517
     15      O    -0.55483800     4.37169349     2.22941165       adf.R=1.517
 
Total System Charge            -1.00000
Bonding info available!
 
 *** GO1_GOStep11 ***

 SOLVATION
-------------------------------------------

  The Delley construction of COSMO surface surface is calculated

       Division Level for Surface Triangles (NDIV)                  3
       Final Division Level for Triangles (NFDIV)                   1
       Radius of the Solvent (RSOL)                           1.93000 angstr
  Dielectric Constant (EPSL)                                 78.39000

       COSMO equation is solved iteratively-               conjugate-gradient

       Maximun of Iterations for Charges (NCIX)                  1000
       Criterion for Charge convergence (CCNV)                1.0E-08

  COSMO charges included variationally in SCF

       COSMO included at every SCF cycle

  Geometry-dependent empirical factor                         0.00000

  C-Matrix calculated in cspmtx

  In cspmtx, C-Matrix calculated using fitted potential

-------------------------------------------



 -------------------------------------------
  COSMO surface
  Area             =          632.557
  Volume           =         1088.979
  Number of Points =         1737
 -------------------------------------------



 ======================
 RI Hartree-Fock Scheme
 ======================
  
 Fit Set Quality     : GOOD
 Threshold Quality   : GOOD
 Integration Quality : GOOD
 Response Quality    : DEFAULT
 Is Range Separated  :  F
 
 RIHartreeFock Dependency: number of modified vectors:           5
 cosmo_calcen: 0.5 (esolb+esolc) (Hartrees) =   -0.156276

 Solvation energy (screening term,uncorrected) =    -98.064810 kcal/mol

 Solvation energy (dispersion and cavitation terms) =      1.182833 kcal/mol
 Solvation Energy Contributions (Hartrees)
          esola   esolb+esolc
     0.15627621   -0.31255241
 esol last cycle   -0.15627621
  
 Hartree-Fock exchange energy:   -544.137842997490     
 cosmo_calcen: 0.5 (esolb+esolc) (Hartrees) =   -0.156276

 Solvation energy (screening term,uncorrected) =    -98.064824 kcal/mol

 Solvation energy (dispersion and cavitation terms) =      1.182833 kcal/mol
 Solvation Energy Contributions (Hartrees)
          esola   esolb+esolc
     0.15627623   -0.31255246
 esol last cycle   -0.15627623

 Energy gradients wrt nuclear displacements
 ==========================================

     Atom      Cartesian (a.u./angstrom)
                 X         Y         Z
 ----------------------------------------
     1 Pa   -0.001855 -0.004330  0.003872
     2 O    -0.004778  0.003514  0.000801
     3 H     0.002840  0.003904  0.004827
     4 O    -0.000560  0.002668 -0.000747
     5 O    -0.003850 -0.006994 -0.012769
     6 O     0.004447 -0.000622  0.005337
     7 H    -0.000222  0.001063  0.000490
     8 H    -0.000892 -0.001354 -0.004546
     9 H     0.000442 -0.002551  0.000342
    10 O     0.001570  0.005665  0.002293
    11 C    -0.005261  0.005695 -0.005461
    12 C    -0.000000 -0.010190 -0.002676
    13 O     0.005353  0.003324  0.007503
    14 O     0.003266 -0.002061  0.001571
    15 O    -0.000499  0.002269 -0.000837
 ----------------------------------------
 Mulliken charges used for AMS results%charges...

 dE(predicted):    -0.91639E-03, dE(actual):    -0.11941E-02, Trust radius:    1.000000, all in a.u.
 
----------------------------------------------------------------------
Geometry Convergence after Step  11       (Hartree/Angstrom,Angstrom)
----------------------------------------------------------------------
current energy                               -4.73991611 Hartree
energy change                      -0.00119406     0.00001500    F
constrained gradient max            0.01269685     0.00010000    F
constrained gradient rms            0.00420151     0.00006667    F
gradient max                        0.01269685
gradient rms                        0.00420151
cart. step max                      0.07009164     0.00100000    F
cart. step rms                      0.03067556     0.00066667    F
 
 
--------
Geometry
--------
Formula: C2H4O8Pa
Atoms
  Index Symbol   x (angstrom)   y (angstrom)   z (angstrom)
      1     Pa    -0.21960179     0.37287643     0.18677645       adf.R=2.200
      2      O     1.53375710     1.19535392    -0.77527214       adf.R=1.517
      3      H    -1.60193751     0.86677178    -2.10756733       adf.R=1.350
      4      O     0.40242732    -0.58393780     1.67592252       adf.R=1.517
      5      O    -1.12093807     0.08021988    -1.81803586       adf.R=1.517
      6      O     0.36892492    -1.87126103    -0.88984560       adf.R=1.517
      7      H     0.01469283    -1.98448026    -1.78254748       adf.R=1.350
      8      H     0.84595997    -2.68229747    -0.67541294       adf.R=1.350
      9      H     2.43634325     1.15154623    -0.43758303       adf.R=1.350
     10      O    -0.01121730     2.29289169     1.67408233       adf.R=1.517
     11      C    -1.70291437     3.34619532     0.37455465       adf.R=1.700
     12      C    -0.69751451     3.36749444     1.55273187       adf.R=1.700
     13      O    -1.73439618     2.22372282    -0.25828237       adf.R=1.517
     14      O    -2.39258408     4.32815621     0.11714211       adf.R=1.517
     15      O    -0.62492964     4.35627186     2.28245608       adf.R=1.517
 
Total System Charge            -1.00000
Bonding info available!
 
 *** GO1_GOStep12 ***

 SOLVATION
-------------------------------------------

  The Delley construction of COSMO surface surface is calculated

       Division Level for Surface Triangles (NDIV)                  3
       Final Division Level for Triangles (NFDIV)                   1
       Radius of the Solvent (RSOL)                           1.93000 angstr
  Dielectric Constant (EPSL)                                 78.39000

       COSMO equation is solved iteratively-               conjugate-gradient

       Maximun of Iterations for Charges (NCIX)                  1000
       Criterion for Charge convergence (CCNV)                1.0E-08

  COSMO charges included variationally in SCF

       COSMO included at every SCF cycle

  Geometry-dependent empirical factor                         0.00000

  C-Matrix calculated in cspmtx

  In cspmtx, C-Matrix calculated using fitted potential

-------------------------------------------



 -------------------------------------------
  COSMO surface
  Area             =          633.027
  Volume           =         1085.716
  Number of Points =         1745
 -------------------------------------------



 ======================
 RI Hartree-Fock Scheme
 ======================
  
 Fit Set Quality     : GOOD
 Threshold Quality   : GOOD
 Integration Quality : GOOD
 Response Quality    : DEFAULT
 Is Range Separated  :  F
 
 RIHartreeFock Dependency: number of modified vectors:           5
 cosmo_calcen: 0.5 (esolb+esolc) (Hartrees) =   -0.153596

 Solvation energy (screening term,uncorrected) =    -96.382901 kcal/mol

 Solvation energy (dispersion and cavitation terms) =      1.183711 kcal/mol
 Solvation Energy Contributions (Hartrees)
          esola   esolb+esolc
     0.15359591   -0.30719183
 esol last cycle   -0.15359591
  
 Hartree-Fock exchange energy:   -544.136544159604     
 cosmo_calcen: 0.5 (esolb+esolc) (Hartrees) =   -0.153596

 Solvation energy (screening term,uncorrected) =    -96.382970 kcal/mol

 Solvation energy (dispersion and cavitation terms) =      1.183711 kcal/mol
 Solvation Energy Contributions (Hartrees)
          esola   esolb+esolc
     0.15359602   -0.30719205
 esol last cycle   -0.15359602

 Energy gradients wrt nuclear displacements
 ==========================================

     Atom      Cartesian (a.u./angstrom)
                 X         Y         Z
 ----------------------------------------
     1 Pa   -0.006511 -0.006244  0.009514
     2 O     0.001052  0.004472 -0.002956
     3 H     0.002194  0.002698  0.003395
     4 O    -0.001228  0.000942 -0.002484
     5 O    -0.000980 -0.006577 -0.008988
     6 O     0.001912  0.005925  0.006596
     7 H     0.000419 -0.002723 -0.000655
     8 H    -0.000680 -0.002823 -0.006190
     9 H     0.000397 -0.001593 -0.000262
    10 O    -0.001807  0.007344  0.002333
    11 C     0.009173  0.004057  0.007091
    12 C    -0.003544 -0.006476 -0.010348
    13 O     0.000936 -0.000121  0.001859
    14 O    -0.000212 -0.000426 -0.000136
    15 O    -0.001120  0.001544  0.001232
 ----------------------------------------
 Mulliken charges used for AMS results%charges...

 dE(predicted):    -0.75044E-03, dE(actual):    -0.80375E-03, Trust radius:    1.000000, all in a.u.
 
----------------------------------------------------------------------
Geometry Convergence after Step  12       (Hartree/Angstrom,Angstrom)
----------------------------------------------------------------------
current energy                               -4.74071985 Hartree
energy change                      -0.00080375     0.00001500    F
constrained gradient max            0.01034120     0.00010000    F
constrained gradient rms            0.00442995     0.00006667    F
gradient max                        0.01034120
gradient rms                        0.00442995
cart. step max                      0.06465115     0.00100000    F
cart. step rms                      0.02871680     0.00066667    F
 
 
--------
Geometry
--------
Formula: C2H4O8Pa
Atoms
  Index Symbol   x (angstrom)   y (angstrom)   z (angstrom)
      1     Pa    -0.18961184     0.40435965     0.15704098       adf.R=2.200
      2      O     1.59840826     1.17205241    -0.81140120       adf.R=1.517
      3      H    -1.61769140     0.86033923    -2.14558898       adf.R=1.350
      4      O     0.34573952    -0.58784096     1.65845530       adf.R=1.517
      5      O    -1.09181396     0.11251749    -1.83396033       adf.R=1.517
      6      O     0.36010059    -1.86668419    -0.88336856       adf.R=1.517
      7      H     0.00076943    -2.03318944    -1.76546643       adf.R=1.350
      8      H     0.82488566    -2.66878469    -0.61447251       adf.R=1.350
      9      H     2.49714475     1.15054006    -0.46284506       adf.R=1.350
     10      O     0.02121197     2.31587457     1.64294650       adf.R=1.517
     11      C    -1.72086289     3.34228835     0.39733458       adf.R=1.700
     12      C    -0.70306428     3.37158675     1.55941905       adf.R=1.700
     13      O    -1.74738497     2.22825738    -0.25499736       adf.R=1.517
     14      O    -2.43066977     4.31855719     0.16226672       adf.R=1.517
     15      O    -0.65108911     4.33965022     2.31375657       adf.R=1.517
 
Total System Charge            -1.00000
Bonding info available!
 
 *** GO1_GOStep13 ***

 SOLVATION
-------------------------------------------

  The Delley construction of COSMO surface surface is calculated

       Division Level for Surface Triangles (NDIV)                  3
       Final Division Level for Triangles (NFDIV)                   1
       Radius of the Solvent (RSOL)                           1.93000 angstr
  Dielectric Constant (EPSL)                                 78.39000

       COSMO equation is solved iteratively-               conjugate-gradient

       Maximun of Iterations for Charges (NCIX)                  1000
       Criterion for Charge convergence (CCNV)                1.0E-08

  COSMO charges included variationally in SCF

       COSMO included at every SCF cycle

  Geometry-dependent empirical factor                         0.00000

  C-Matrix calculated in cspmtx

  In cspmtx, C-Matrix calculated using fitted potential

-------------------------------------------



 -------------------------------------------
  COSMO surface
  Area             =          639.789
  Volume           =         1092.978
  Number of Points =         1749
 -------------------------------------------



 ======================
 RI Hartree-Fock Scheme
 ======================
  
 Fit Set Quality     : GOOD
 Threshold Quality   : GOOD
 Integration Quality : GOOD
 Response Quality    : DEFAULT
 Is Range Separated  :  F
 
 RIHartreeFock Dependency: number of modified vectors:           5
 cosmo_calcen: 0.5 (esolb+esolc) (Hartrees) =   -0.151352

 Solvation energy (screening term,uncorrected) =    -94.974654 kcal/mol

 Solvation energy (dispersion and cavitation terms) =      1.196355 kcal/mol
 Solvation Energy Contributions (Hartrees)
          esola   esolb+esolc
     0.15135173   -0.30270346
 esol last cycle   -0.15135173
  
 Hartree-Fock exchange energy:   -544.133567033244     
 cosmo_calcen: 0.5 (esolb+esolc) (Hartrees) =   -0.151352

 Solvation energy (screening term,uncorrected) =    -94.974629 kcal/mol

 Solvation energy (dispersion and cavitation terms) =      1.196355 kcal/mol
 Solvation Energy Contributions (Hartrees)
          esola   esolb+esolc
     0.15135169   -0.30270338
 esol last cycle   -0.15135169

 Energy gradients wrt nuclear displacements
 ==========================================

     Atom      Cartesian (a.u./angstrom)
                 X         Y         Z
 ----------------------------------------
     1 Pa   -0.009819 -0.005719  0.010115
     2 O     0.005451  0.003994 -0.004840
     3 H     0.001369  0.001568  0.002271
     4 O    -0.000848 -0.000617 -0.002712
     5 O     0.000131 -0.004928 -0.005592
     6 O     0.001240  0.006734  0.005770
     7 H    -0.000002 -0.003106 -0.000797
     8 H    -0.000075 -0.002827 -0.005090
     9 H     0.000010 -0.000780 -0.000818
    10 O    -0.002173  0.006497  0.003245
    11 C     0.016465  0.000798  0.013304
    12 C    -0.006499  0.000647 -0.009464
    13 O    -0.001298 -0.003737 -0.003557
    14 O    -0.003141  0.003904 -0.001168
    15 O    -0.000811 -0.002429 -0.000666
 ----------------------------------------
 Mulliken charges used for AMS results%charges...

 dE(predicted):    -0.49295E-03, dE(actual):    -0.59156E-03, Trust radius:    1.000000, all in a.u.
 
----------------------------------------------------------------------
Geometry Convergence after Step  13       (Hartree/Angstrom,Angstrom)
----------------------------------------------------------------------
current energy                               -4.74131141 Hartree
energy change                      -0.00059156     0.00001500    F
constrained gradient max            0.01634188     0.00010000    F
constrained gradient rms            0.00516264     0.00006667    F
gradient max                        0.01634188
gradient rms                        0.00516264
cart. step max                      0.12768799     0.00100000    F
cart. step rms                      0.05670848     0.00066667    F
 
 
--------
Geometry
--------
Formula: C2H4O8Pa
Atoms
  Index Symbol   x (angstrom)   y (angstrom)   z (angstrom)
      1     Pa    -0.12645421     0.45618912     0.10471745       adf.R=2.200
      2      O     1.72609625     1.11166046    -0.85286450       adf.R=1.517
      3      H    -1.63008048     0.86269938    -2.21063663       adf.R=1.350
      4      O     0.22601769    -0.56911230     1.64229307       adf.R=1.517
      5      O    -1.03291121     0.18933233    -1.86193762       adf.R=1.517
      6      O     0.34008972    -1.85470624    -0.88779815       adf.R=1.517
      7      H    -0.01575401    -2.09655565    -1.75242194       adf.R=1.350
      8      H     0.76580296    -2.63506825    -0.51267848       adf.R=1.350
      9      H     2.61454943     1.12380326    -0.47965628       adf.R=1.350
     10      O     0.08278868     2.36310021     1.57090966       adf.R=1.517
     11      C    -1.77656271     3.31344917     0.44565860       adf.R=1.700
     12      C    -0.69822326     3.38464346     1.55339709       adf.R=1.700
     13      O    -1.77786811     2.21849112    -0.23622795       adf.R=1.517
     14      O    -2.54909550     4.25468011     0.27196454       adf.R=1.517
     15      O    -0.65232329     4.33691786     2.32440041       adf.R=1.517
 
Total System Charge            -1.00000
Bonding info available!
 
 *** GO1_GOStep14 ***

 SOLVATION
-------------------------------------------

  The Delley construction of COSMO surface surface is calculated

       Division Level for Surface Triangles (NDIV)                  3
       Final Division Level for Triangles (NFDIV)                   1
       Radius of the Solvent (RSOL)                           1.93000 angstr
  Dielectric Constant (EPSL)                                 78.39000

       COSMO equation is solved iteratively-               conjugate-gradient

       Maximun of Iterations for Charges (NCIX)                  1000
       Criterion for Charge convergence (CCNV)                1.0E-08

  COSMO charges included variationally in SCF

       COSMO included at every SCF cycle

  Geometry-dependent empirical factor                         0.00000

  C-Matrix calculated in cspmtx

  In cspmtx, C-Matrix calculated using fitted potential

-------------------------------------------



 -------------------------------------------
  COSMO surface
  Area             =          643.869
  Volume           =         1092.385
  Number of Points =         1782
 -------------------------------------------



 ======================
 RI Hartree-Fock Scheme
 ======================
  
 Fit Set Quality     : GOOD
 Threshold Quality   : GOOD
 Integration Quality : GOOD
 Response Quality    : DEFAULT
 Is Range Separated  :  F
 
 RIHartreeFock Dependency: number of modified vectors:           5
 cosmo_calcen: 0.5 (esolb+esolc) (Hartrees) =   -0.148075

 Solvation energy (screening term,uncorrected) =    -92.918250 kcal/mol

 Solvation energy (dispersion and cavitation terms) =      1.203985 kcal/mol
 Solvation Energy Contributions (Hartrees)
          esola   esolb+esolc
     0.14807464   -0.29614928
 esol last cycle   -0.14807464
  
 Hartree-Fock exchange energy:   -544.133245225304     
 cosmo_calcen: 0.5 (esolb+esolc) (Hartrees) =   -0.148075

 Solvation energy (screening term,uncorrected) =    -92.918205 kcal/mol

 Solvation energy (dispersion and cavitation terms) =      1.203985 kcal/mol
 Solvation Energy Contributions (Hartrees)
          esola   esolb+esolc
     0.14807457   -0.29614914
 esol last cycle   -0.14807457

 Energy gradients wrt nuclear displacements
 ==========================================

     Atom      Cartesian (a.u./angstrom)
                 X         Y         Z
 ----------------------------------------
     1 Pa   -0.010708 -0.005218  0.008765
     2 O     0.009490  0.002244 -0.005990
     3 H     0.000013  0.000150  0.000098
     4 O     0.000111 -0.002073 -0.001311
     5 O     0.001297 -0.002129  0.001707
     6 O    -0.000761  0.004049  0.000180
     7 H    -0.000741 -0.001534 -0.000429
     8 H     0.001140 -0.000717 -0.001342
     9 H    -0.000305  0.000201 -0.001457
    10 O    -0.003602  0.002743  0.002694
    11 C     0.017078 -0.001874  0.013044
    12 C    -0.007053  0.008215 -0.005040
    13 O    -0.003275 -0.002256 -0.008368
    14 O    -0.002063  0.002190 -0.001413
    15 O    -0.000620 -0.003992 -0.001138
 ----------------------------------------
 Mulliken charges used for AMS results%charges...

 dE(predicted):    -0.84417E-03, dE(actual):    -0.93580E-03, Trust radius:    1.000000, all in a.u.
 
----------------------------------------------------------------------
Geometry Convergence after Step  14       (Hartree/Angstrom,Angstrom)
----------------------------------------------------------------------
current energy                               -4.74224721 Hartree
energy change                      -0.00093580     0.00001500    F
constrained gradient max            0.01696804     0.00010000    F
constrained gradient rms            0.00503474     0.00006667    F
gradient max                        0.01696804
gradient rms                        0.00503474
cart. step max                      0.20498687     0.00100000    F
cart. step rms                      0.07748705     0.00066667    F
 
[...]
    11     C       0.005822  -0.002032   0.012170
    12     C      -0.000979  -0.006087   0.008574
    13     O       0.006679   0.003533  -0.005573
    14     O       0.004171   0.004968  -0.005655
    15     O      -0.001996  -0.002188  -0.003600
 
 Mode:    29      Frequency (cm-1):      494.8693     Intensity (km/mol):       76.3092
 Index  Atom      ---- Displacements (x/y/z) ----
     1    Pa      -0.004064  -0.000298   0.000735
     2     O       0.052858   0.000773  -0.002102
     3     H      -0.042303   0.032366   0.097085
     4     O      -0.004899   0.012023  -0.011492
     5     O       0.005734  -0.003991  -0.027842
     6     O      -0.000036  -0.003276   0.000585
     7     H       0.004633   0.002414  -0.003839
     8     H      -0.003906  -0.007554  -0.005345
     9     H       0.142995   0.025165  -0.110233
    10     O       0.059570  -0.058981   0.218440
    11     C      -0.118347   0.178049  -0.566182
    12     C      -0.104017   0.176169  -0.567353
    13     O       0.030279  -0.068974   0.226012
    14     O       0.029045  -0.072508   0.218245
    15     O       0.046583  -0.069811   0.219367
 
 Mode:    30      Frequency (cm-1):      518.9474     Intensity (km/mol):       28.6773
 Index  Atom      ---- Displacements (x/y/z) ----
     1    Pa      -0.003385  -0.005563   0.013161
     2     O       0.115902   0.000750  -0.016114
     3     H      -0.003610   0.003581  -0.287770
     4     O      -0.001574   0.005001  -0.034071
     5     O      -0.051404   0.052024  -0.154003
     6     O       0.011906  -0.035196   0.065169
     7     H       0.280665   0.481786  -0.233586
     8     H      -0.426456  -0.300211  -0.349299
     9     H       0.251414   0.062516  -0.167639
    10     O       0.041822   0.054473  -0.000549
    11     C      -0.022010  -0.016247   0.010627
    12     C       0.019886   0.019164   0.015632
    13     O      -0.061150  -0.030887  -0.003535
    14     O      -0.023613  -0.008602  -0.000093
    15     O       0.012169   0.025002  -0.001177
 
 Mode:    31      Frequency (cm-1):      530.4452     Intensity (km/mol):      297.1163
 Index  Atom      ---- Displacements (x/y/z) ----
     1    Pa       0.000852  -0.006356   0.015542
     2     O       0.076747   0.005688  -0.020664
     3     H       0.042443   0.086200  -0.316952
     4     O       0.001970   0.012174  -0.003733
     5     O      -0.056048   0.034608  -0.154377
     6     O      -0.020945   0.014233  -0.075902
     7     H      -0.283169  -0.541858   0.230231
     8     H       0.423864   0.306274   0.373841
     9     H       0.030298  -0.015326   0.032451
    10     O       0.033075   0.038872   0.003609
    11     C      -0.017909  -0.009793   0.007121
    12     C       0.012920   0.015702   0.006246
    13     O      -0.044837  -0.019725  -0.005882
    14     O      -0.019583  -0.004168  -0.001840
    15     O       0.007617   0.016071   0.004126
 
 Mode:    32      Frequency (cm-1):      563.2249     Intensity (km/mol):        0.6894
 Index  Atom      ---- Displacements (x/y/z) ----
     1    Pa      -0.000864   0.000490   0.000068
     2     O       0.011935   0.001692  -0.000168
     3     H      -0.017983  -0.019229   0.035908
     4     O       0.002984   0.001759  -0.003626
     5     O       0.005610  -0.000109   0.002485
     6     O       0.003491   0.004310   0.001656
     7     H       0.000487   0.020675  -0.001759
     8     H      -0.016665   0.001897  -0.005354
     9     H       0.017005  -0.004582  -0.009545
    10     O       0.447892   0.049031  -0.078940
    11     C      -0.226262   0.215511   0.122133
    12     C       0.173177  -0.270799  -0.101333
    13     O       0.135407   0.423398   0.101123
    14     O      -0.410099  -0.060647   0.056884
    15     O      -0.143826  -0.384948  -0.097219
 
 Mode:    33      Frequency (cm-1):      762.7076     Intensity (km/mol):      592.5717
 Index  Atom      ---- Displacements (x/y/z) ----
     1    Pa      -0.016013   0.020259  -0.056656
     2     O       0.128489   0.004497  -0.022717
     3     H      -0.073945   0.006748   0.070823
     4     O       0.171770  -0.352201   0.860990
     5     O      -0.002478   0.015385  -0.059197
     6     O      -0.009725  -0.031229   0.000235
     7     H       0.002701   0.035218  -0.028223
     8     H      -0.033177  -0.057869  -0.035061
     9     H       0.161709   0.011925  -0.055373
    10     O       0.069154   0.006372  -0.008951
    11     C      -0.080972  -0.016285   0.011708
    12     C       0.019922   0.063439   0.015165
    13     O      -0.004847  -0.073086  -0.015574
    14     O      -0.049899   0.052713   0.025314
    15     O      -0.028981   0.049802   0.021110
 
 Mode:    34      Frequency (cm-1):      765.7754     Intensity (km/mol):      200.9655
 Index  Atom      ---- Displacements (x/y/z) ----
     1    Pa      -0.003913  -0.004845   0.000711
     2     O      -0.003989  -0.002013  -0.000987
     3     H       0.003016   0.007204   0.000496
     4     O      -0.005474   0.007126  -0.017704
     5     O      -0.000590  -0.000846   0.001426
     6     O      -0.001757   0.000887   0.000684
     7     H       0.000792   0.001722  -0.000732
     8     H      -0.001103   0.001387   0.001183
     9     H      -0.014813  -0.005892   0.011737
    10     O      -0.079298   0.416457   0.142608
    11     C      -0.306615  -0.272094  -0.033177
    12     C      -0.326011  -0.231890  -0.004559
    13     O       0.402095  -0.165396  -0.126592
    14     O      -0.089923   0.335431   0.124351
    15     O       0.310846  -0.143831  -0.106547
 
 Mode:    35      Frequency (cm-1):      876.5842     Intensity (km/mol):       84.6853
 Index  Atom      ---- Displacements (x/y/z) ----
     1    Pa       0.000103  -0.001378  -0.006565
     2     O       0.033300  -0.000221  -0.008415
     3     H      -0.020702   0.008112  -0.002209
     4     O       0.023233  -0.044197   0.104883
     5     O      -0.005333   0.005873  -0.029665
     6     O      -0.002056  -0.010893  -0.002235
     7     H      -0.007910  -0.005525  -0.002065
     8     H      -0.002646  -0.008288   0.002279
     9     H       0.039802   0.006295  -0.010489
    10     O      -0.217079   0.346914   0.113050
    11     C       0.285076   0.287893  -0.148558
    12     C      -0.272497  -0.312650   0.140696
    13     O      -0.274204   0.252201   0.168209
    14     O       0.230174  -0.257622  -0.085226
    15     O       0.200498  -0.253610  -0.159088
 
 Mode:    36      Frequency (cm-1):      885.3456     Intensity (km/mol):        5.1600
 Index  Atom      ---- Displacements (x/y/z) ----
     1    Pa      -0.000096   0.000321   0.001389
     2     O      -0.009175   0.000789  -0.000261
     3     H      -0.016002  -0.033015   0.016149
     4     O      -0.003277   0.011337  -0.023010
     5     O      -0.001673  -0.002046   0.005827
     6     O       0.000674   0.001941   0.002155
     7     H      -0.016542  -0.029168   0.019761
     8     H       0.024737   0.018669   0.025767
     9     H       0.014536   0.017168  -0.023106
    10     O       0.024916  -0.038422  -0.155988
    11     C      -0.186540   0.141836  -0.622240
    12     C       0.190913  -0.132559   0.626585
    13     O       0.083057  -0.098950   0.092460
    14     O      -0.022088   0.010605   0.157744
    15     O      -0.074750   0.104808  -0.104682
 
 Mode:    37      Frequency (cm-1):     1243.6563     Intensity (km/mol):      193.1317
 Index  Atom      ---- Displacements (x/y/z) ----
     1    Pa      -0.001575  -0.000990  -0.000165
     2     O       0.001052   0.001050   0.000881
     3     H      -0.012137  -0.012329   0.020495
     4     O       0.003144   0.001351  -0.000038
     5     O       0.003435   0.000896   0.000065
     6     O       0.002253   0.001834  -0.000049
     7     H      -0.001020  -0.003747   0.002486
     8     H      -0.000889  -0.000762  -0.002756
     9     H       0.003050   0.001633  -0.003124
    10     O       0.361198  -0.143379  -0.115527
    11     C      -0.141432  -0.487015  -0.123295
    12     C      -0.547746  -0.036511   0.096387
    13     O      -0.068929   0.360140   0.124106
    14     O       0.219818  -0.028126  -0.050970
    15     O       0.018516   0.214257   0.063024
 
 Mode:    38      Frequency (cm-1):     1356.9205     Intensity (km/mol):     1123.1795
 Index  Atom      ---- Displacements (x/y/z) ----
     1    Pa      -0.001243   0.000997  -0.000369
     2     O       0.012534   0.000404  -0.003261
     3     H      -0.013998   0.004323   0.002392
     4     O       0.007417  -0.012630   0.024812
     5     O      -0.001121   0.001791  -0.014675
     6     O      -0.001514  -0.005314  -0.001016
     7     H      -0.001500   0.001634  -0.004283
     8     H       0.002131  -0.001457   0.005470
     9     H       0.012359   0.000426   0.000192
    10     O      -0.315816   0.113026   0.096845
    11     C      -0.181514  -0.567099  -0.144010
    12     C       0.576570   0.051624  -0.094889
    13     O      -0.052555   0.347030   0.117402
    14     O       0.105297   0.012038  -0.015916
    15     O      -0.032617  -0.084331  -0.019872
 
 Mode:    39      Frequency (cm-1):     1589.4822     Intensity (km/mol):      128.0846
 Index  Atom      ---- Displacements (x/y/z) ----
     1    Pa       0.000026   0.000106   0.000057
     2     O      -0.000329   0.000011   0.000099
     3     H      -0.000988  -0.002636   0.001137
     4     O       0.000070   0.000950  -0.000818
     5     O       0.000520   0.000598   0.000635
     6     O      -0.034495  -0.063291  -0.014036
     7     H       0.182868   0.619817  -0.287274
     8     H       0.352448   0.345783   0.500658
     9     H      -0.000354   0.000215  -0.000000
    10     O       0.000353  -0.000396  -0.000228
    11     C      -0.000468   0.000594   0.000260
    12     C      -0.000148  -0.002552  -0.000793
    13     O       0.000148  -0.000129  -0.000036
    14     O       0.000348  -0.000182  -0.000116
    15     O      -0.000169   0.001693   0.000561
 
 Mode:    40      Frequency (cm-1):     1649.9003     Intensity (km/mol):      229.3806
 Index  Atom      ---- Displacements (x/y/z) ----
     1    Pa       0.001459   0.000727   0.000040
     2     O      -0.000855  -0.000462  -0.000081
     3     H       0.006974   0.003698  -0.010332
     4     O      -0.002116   0.000086  -0.001463
     5     O      -0.001605  -0.000568   0.001081
     6     O       0.000340   0.002146   0.000599
     7     H      -0.005310  -0.018997   0.009442
     8     H      -0.011979  -0.010503  -0.016450
     9     H      -0.002427  -0.000398   0.002681
    10     O      -0.030388   0.025945   0.013892
    11     C      -0.561497   0.276463   0.195077
    12     C       0.146601  -0.504511  -0.186953
    13     O       0.023698  -0.046080  -0.018486
    14     O       0.348607  -0.122951  -0.105338
    15     O      -0.046687   0.304128   0.104047
 
 Mode:    41      Frequency (cm-1):     1666.3777     Intensity (km/mol):     2167.4353
 Index  Atom      ---- Displacements (x/y/z) ----
     1    Pa      -0.002236   0.002549   0.000759
     2     O       0.008233  -0.000308  -0.002560
     3     H      -0.011402   0.009185   0.006308
     4     O       0.004801  -0.008282   0.014431
     5     O      -0.000146   0.000304  -0.010033
     6     O       0.000430  -0.001668  -0.000645
     7     H      -0.005076  -0.016404   0.003973
     8     H      -0.008952  -0.012766  -0.012117
     9     H       0.007408  -0.001228   0.002557
    10     O      -0.035056   0.025163   0.014647
    11     C       0.500679  -0.155350  -0.144022
    12     C       0.072461  -0.605028  -0.202659
    13     O      -0.015350   0.038256   0.014594
    14     O      -0.320273   0.095904   0.091198
    15     O      -0.039190   0.385611   0.127460
 
 Mode:    42      Frequency (cm-1):     3760.4824     Intensity (km/mol):      151.1391
 Index  Atom      ---- Displacements (x/y/z) ----
     1    Pa       0.000016   0.000031   0.000009
     2     O       0.000152  -0.000079   0.000237
     3     H       0.016481  -0.006041   0.008086
     4     O      -0.000054   0.000014  -0.000177
     5     O      -0.001016   0.000290  -0.000371
     6     O       0.024533   0.041002   0.012006
     7     H      -0.321547  -0.156606  -0.642569
     8     H      -0.070530  -0.498183   0.450768
     9     H      -0.004384   0.001334  -0.003259
    10     O       0.000026  -0.000089  -0.000030
    11     C      -0.000097   0.000099   0.000061
    12     C      -0.000021   0.000045   0.000014
    13     O       0.000100  -0.000087  -0.000041
    14     O       0.000054  -0.000025  -0.000016
    15     O       0.000002  -0.000031  -0.000014
 
 Mode:    43      Frequency (cm-1):     3789.6782     Intensity (km/mol):      222.3487
 Index  Atom      ---- Displacements (x/y/z) ----
     1    Pa      -0.000036   0.000005  -0.000039
     2     O      -0.000273   0.000178  -0.000491
     3     H       0.851879  -0.312736   0.414816
     4     O       0.000036  -0.000059   0.000225
     5     O      -0.053318   0.019591  -0.025981
     6     O      -0.000509  -0.000846  -0.000309
     7     H       0.006560   0.003206   0.013196
     8     H       0.001389   0.009146  -0.008345
     9     H       0.008921  -0.002806   0.007307
    10     O      -0.000091   0.000178   0.000116
    11     C       0.000215  -0.000286  -0.000040
    12     C       0.000137  -0.000176  -0.000152
    13     O      -0.000182   0.000171   0.000177
    14     O      -0.000128   0.000064   0.000030
    15     O      -0.000018   0.000106   0.000041
 
 Mode:    44      Frequency (cm-1):     3814.9311     Intensity (km/mol):      137.8735
 Index  Atom      ---- Displacements (x/y/z) ----
     1    Pa       0.000032  -0.000007   0.000014
     2     O       0.048371  -0.014128   0.036948
     3     H       0.009677  -0.003752   0.004764
     4     O      -0.000135  -0.000136   0.000340
     5     O      -0.000667   0.000281  -0.000536
     6     O       0.000013  -0.000640   0.000799
     7     H      -0.002089  -0.001392  -0.003863
     8     H       0.001451   0.010217  -0.008958
     9     H      -0.770582   0.226480  -0.592170
    10     O      -0.000060   0.000154   0.000055
    11     C       0.000067  -0.000025  -0.000112
    12     C       0.000128  -0.000144   0.000024
    13     O      -0.000085   0.000029   0.000038
    14     O      -0.000041   0.000009   0.000015
    15     O      -0.000016   0.000067   0.000019
 
 Mode:    45      Frequency (cm-1):     3850.1806     Intensity (km/mol):      252.6998
 Index  Atom      ---- Displacements (x/y/z) ----
     1    Pa       0.000000  -0.000003   0.000007
     2     O      -0.000624   0.000180  -0.000461
     3     H       0.000977   0.000116   0.000234
     4     O      -0.000008   0.000024   0.000006
     5     O      -0.000023   0.000014  -0.000015
     6     O       0.013085  -0.024450   0.065315
     7     H      -0.307413  -0.173017  -0.573823
     8     H       0.099242   0.560745  -0.465604
     9     H       0.010121  -0.003203   0.008308
    10     O       0.000004   0.000004   0.000022
    11     C       0.000022  -0.000001   0.000071
    12     C      -0.000027   0.000009  -0.000066
    13     O      -0.000014   0.000015  -0.000012
    14     O      -0.000008   0.000016  -0.000018
    15     O       0.000003   0.000004   0.000015

PES point character: Geometry corresponds to a local minimum on the PES.




 ============================
 Statistical Thermal Analysis  ***  ideal gas assumed  ***
 ============================
  
 Pressure:                  1.000000 atm.
 Temperature:             298.150000 K



 Moments of Inertia [amu*bohr^2] and principal axis
 ==================================================

        1468.2505       3601.6907       4085.3257
 ------------------------------------------------
          -0.5815          0.7962          0.1673
           0.7374          0.6027         -0.3050
           0.3437          0.0540          0.9375


 The rotational contribution to the molecular entropy includes
 a term, dependent on the symmetry number sigma. The results 
 reported below were computed using sigma = 1, determined from
 the point group symmetry of the input geometry (NOSYM). 
 If this is not the correct symmetry, try symmetrizing the molecule before
 running the calculation (note: linear molecules should be aligned along one
 of the Cartesian axes).
 Contributions from frequencies below 20 1/cm are not included in vibrational sums.
 Their contributions, if any, are reported separately.


     Temp                                                        Transl      Rotat     Vibrat     Total
     ----                                                        ------      -----     ------     -----

     298.15   Entropy (cal/mol-K):                               43.752     31.447     55.914    131.113
              Nuclear Internal Energy (kcal/mol):                 0.889      0.889     55.560     57.337
              Constant Volume Heat Capacity (cal/mol-K):          2.981      2.981     46.527     52.489
          (c) Constant Volume Heat Capacity (cal/mol-K):          2.981      2.981     41.366     47.328

       Summary of energy terms
                                                   hartree              eV         kcal/mol           kJ/mol
                                      --------------------     -----------       ----------      -----------
      Energy from Engine:               -4.759462835607900       -129.5116         -2986.61        -12495.97
      Nuclear Internal Energy:           0.091372251579215          2.4864            57.34           239.90
  (c) Nuclear Internal Energy:           0.088725411082163          2.4143            55.68           232.95
      Internal Energy U:                -4.668090584028685       -127.0252         -2929.27        -12256.07
      pV/n = RT:                         0.000944186013486          0.0257             0.59             2.48
      Enthalpy H:                       -4.667146398015199       -126.9995         -2928.68        -12253.59
      -T*S:                             -0.062295970423753         -1.6952           -39.09          -163.56
  (c) -T*S:                             -0.060082314362849         -1.6349           -37.70          -157.75
      Gibbs free energy:                -4.729442368438953       -128.6947         -2967.77        -12417.15
 
 
 
  (c) The properties marked with this symbol have been corrected using 'low vibrational frequency free rotor
      interpolation corrections'. For those terms all positive frequencies are used (also ones below 20 1/cm),
      but the contribution to the partition function of small vibrational frequencies is modified as described
      in the following paper:
      S. Grimme, 'Supramolecular Binding Thermodynamics by Dispersion-Corrected Density Functional Theory'
      (Chem. Eur. J. 2012, 18, 9955-9964)
      Configuration: Dampener Frequency          :   100.000 1/cm
                     Dampener Alpha              :     4.000
                     Averaging Moment of Inertia : 1.000E-44 kg m2

--------------
Atomic charges
--------------
  Index   Atom    Charge
      1     Pa    2.5312
      2      O   -0.7714
      3      H    0.1355
      4      O   -0.8664
      5      O   -0.7000
      6      O   -0.4097
      7      H    0.2398
      8      H    0.2433
      9      H    0.1460
     10      O   -0.7740
     11      C    0.6890
     12      C    0.6908
     13      O   -0.7675
     14      O   -0.6950
     15      O   -0.6916


Dipole moment vector    (Debye):     3.05771130  -20.63085338   -8.46594617
              magnitude (Debye):    22.50897497


Final PES point is a local minimum. Geometry optimization successful!


AMS application finished. Exiting.
NORMAL TERMINATION
     Total cpu time:   86318.29
  Total system time:    1546.10
 Total elapsed time:   87889.64
