 Entering Gaussian System, Link 0=/home/pcmt/gaussian/g16.C.01/g16/g16
 AtFile(1): /home/shaaban/basis.gaussian/Pa-def-TZVP
 AtFile(1): /home/shaaban/basis.gaussian/Pa-ECP60MWB
 Initial command:
 /home/pcmt/gaussian/g16.C.01/g16/l1.exe "/state/partition2/shaaban/986556.phlam-s-sakura/Gau-41992.inp" -scrdir="/state/partition2/shaaban/986556.phlam-s-sakura/"
 Entering Link 1 = /home/pcmt/gaussian/g16.C.01/g16/l1.exe PID=     41993.
  
 Copyright (c) 1988-2019, Gaussian, Inc.  All Rights Reserved.
  
 This is part of the Gaussian(R) 16 program.  It is based on
 the Gaussian(R) 09 system (copyright 2009, Gaussian, Inc.),
 the Gaussian(R) 03 system (copyright 2003, Gaussian, Inc.),
 the Gaussian(R) 98 system (copyright 1998, Gaussian, Inc.),
 the Gaussian(R) 94 system (copyright 1995, Gaussian, Inc.),
 the Gaussian 92(TM) system (copyright 1992, Gaussian, Inc.),
 the Gaussian 90(TM) system (copyright 1990, Gaussian, Inc.),
 the Gaussian 88(TM) system (copyright 1988, Gaussian, Inc.),
 the Gaussian 86(TM) system (copyright 1986, Carnegie Mellon
 University), and the Gaussian 82(TM) system (copyright 1983,
 Carnegie Mellon University). Gaussian is a federally registered
 trademark of Gaussian, Inc.
  
 This software contains proprietary and confidential information,
 including trade secrets, belonging to Gaussian, Inc.
  
 This software is provided under written license and may be
 used, copied, transmitted, or stored only in accord with that
 written license.
  
 The following legend is applicable only to US Government
 contracts under FAR:
  
                    RESTRICTED RIGHTS LEGEND
  
 Use, reproduction and disclosure by the US Government is
 subject to restrictions as set forth in subparagraphs (a)
 and (c) of the Commercial Computer Software - Restricted
 Rights clause in FAR 52.227-19.
  
 Gaussian, Inc.
 340 Quinnipiac St., Bldg. 40, Wallingford CT 06492
  
  
 ---------------------------------------------------------------
 Warning -- This program may not be used in any manner that
 competes with the business of Gaussian, Inc. or will provide
 assistance to any competitor of Gaussian, Inc.  The licensee
 of this program is prohibited from giving any competitor of
 Gaussian, Inc. access to this program.  By using this program,
 the user acknowledges that Gaussian, Inc. is engaged in the
 business of creating and licensing software in the field of
 computational chemistry and represents and warrants to the
 licensee that it is not a competitor of Gaussian, Inc. and that
 it will not use this program in any manner prohibited above.
 ---------------------------------------------------------------
  

 Cite this work as:
 Gaussian 16, Revision C.01,
 M. J. Frisch, G. W. Trucks, H. B. Schlegel, G. E. Scuseria, 
 M. A. Robb, J. R. Cheeseman, G. Scalmani, V. Barone, 
 G. A. Petersson, H. Nakatsuji, X. Li, M. Caricato, A. V. Marenich, 
 J. Bloino, B. G. Janesko, R. Gomperts, B. Mennucci, H. P. Hratchian, 
 J. V. Ortiz, A. F. Izmaylov, J. L. Sonnenberg, D. Williams-Young, 
 F. Ding, F. Lipparini, F. Egidi, J. Goings, B. Peng, A. Petrone, 
 T. Henderson, D. Ranasinghe, V. G. Zakrzewski, J. Gao, N. Rega, 
 G. Zheng, W. Liang, M. Hada, M. Ehara, K. Toyota, R. Fukuda, 
 J. Hasegawa, M. Ishida, T. Nakajima, Y. Honda, O. Kitao, H. Nakai, 
 T. Vreven, K. Throssell, J. A. Montgomery, Jr., J. E. Peralta, 
 F. Ogliaro, M. J. Bearpark, J. J. Heyd, E. N. Brothers, K. N. Kudin, 
 V. N. Staroverov, T. A. Keith, R. Kobayashi, J. Normand, 
 K. Raghavachari, A. P. Rendell, J. C. Burant, S. S. Iyengar, 
 J. Tomasi, M. Cossi, J. M. Millam, M. Klene, C. Adamo, R. Cammi, 
 J. W. Ochterski, R. L. Martin, K. Morokuma, O. Farkas, 
 J. B. Foresman, and D. J. Fox, Gaussian, Inc., Wallingford CT, 2019.
 
 ******************************************
 Gaussian 16:  ES64L-G16RevC.01  3-Jul-2019
                23-Nov-2023 
 ******************************************
 %mem=16Gb
 %NProc=8
 Will use up to    8 processors via shared memory.
 %chk=pao_oh2_so4_h2o-bp86-cosmors-deftzvp-klamt.chk
 ----------------------------------------------------------------------
 #p BP86/GEN Pseudo=Read GFInput GFPrint IOP(6/7=3) Symm=(Loose) Int=(U
 ltraFine) Guess=(Harris) SCRF=(COSMORS) Scf=(NoVarAcc,MaxCycle=100,con
 ver=8)
 ----------------------------------------------------------------------
 1/38=1,172=1/1;
 2/12=2,17=4,18=3,40=1/2;
 3/5=7,11=2,16=1,17=8,24=110,25=1,30=1,70=12101,74=404,75=-5/1,2,3;
 4/11=8/1;
 5/5=2,6=8,7=100,38=1/2;
 6/7=3,8=2,9=2,10=2,28=1/1;
 99/5=1,9=1/99;
 Leave Link    1 at Thu Nov 23 15:38:05 2023, MaxMem=  2147483648 cpu:               2.4 elap:               2.1
 (Enter /home/pcmt/gaussian/g16.C.01/g16/l101.exe)
 ---------------------------------------------------------------------
 pao_oh2_so4_h2o-bp86-cosmors-deftzvp-klamt.com SGP in PCM calculation
 ---------------------------------------------------------------------
 Symbolic Z-matrix:
 Charge = -1 Multiplicity = 1
 Pa                    0.52808  -0.22194  -0.19297 
 O                     0.88174   0.98901  -1.57747 
 O                     3.99191  -1.35386   1.72566 
 O                    -0.79418   1.12063   0.89132 
 H                    -0.96814   2.03891   0.65344 
 O                    -1.07818  -1.3008   -1.78828 
 H                    -1.62484  -2.0801   -1.62486 
 O                    -0.07646  -1.76949   1.12855 
 H                     0.28155  -2.65094   1.29865 
 O                     2.40312   0.44672   1.20829 
 O                     2.73098  -1.26588  -0.38069 
 S                     3.50234  -0.47002   0.67072 
 O                     4.56157   0.31643   0.04269 
 H                    -1.24967  -1.01348  -2.69433 
 
 ITRead=  0  0  0  0  0  0  0  0  0  0  0  0  0  0
 MicOpt= -1 -1 -1 -1 -1 -1 -1 -1 -1 -1 -1 -1 -1 -1
 NAtoms=     14 NQM=       14 NQMF=       0 NMMI=      0 NMMIF=      0
                NMic=       0 NMicF=      0.
                    Isotopes and Nuclear Properties:
 (Nuclear quadrupole moments (NQMom) in fm**2, nuclear magnetic moments (NMagM)
  in nuclear magnetons)

  Atom         1           2           3           4           5           6           7           8           9          10
 IAtWgt=         231          16          16          16           1          16           1          16           1          16
 AtmWgt= 231.0359000  15.9949146  15.9949146  15.9949146   1.0078250  15.9949146   1.0078250  15.9949146   1.0078250  15.9949146
 NucSpn=           3           0           0           0           1           0           1           0           1           0
 AtZEff=  -0.0000000  -0.0000000  -0.0000000  -0.0000000  -0.0000000  -0.0000000  -0.0000000  -0.0000000  -0.0000000  -0.0000000
 NQMom= -172.0000000   0.0000000   0.0000000   0.0000000   0.0000000   0.0000000   0.0000000   0.0000000   0.0000000   0.0000000
 NMagM=    2.0100000   0.0000000   0.0000000   0.0000000   2.7928460   0.0000000   2.7928460   0.0000000   2.7928460   0.0000000
 AtZNuc=  91.0000000   8.0000000   8.0000000   8.0000000   1.0000000   8.0000000   1.0000000   8.0000000   1.0000000   8.0000000

  Atom        11          12          13          14
 IAtWgt=          16          32          16           1
 AtmWgt=  15.9949146  31.9720718  15.9949146   1.0078250
 NucSpn=           0           0           0           1
 AtZEff=  -0.0000000  -0.0000000  -0.0000000  -0.0000000
 NQMom=    0.0000000   0.0000000   0.0000000   0.0000000
 NMagM=    0.0000000   0.0000000   0.0000000   2.7928460
 AtZNuc=   8.0000000  16.0000000   8.0000000   1.0000000
 Leave Link  101 at Thu Nov 23 15:38:08 2023, MaxMem=  2147483648 cpu:               3.6 elap:               3.3
 (Enter /home/pcmt/gaussian/g16.C.01/g16/l202.exe)
                          Input orientation:                          
 ---------------------------------------------------------------------
 Center     Atomic      Atomic             Coordinates (Angstroms)
 Number     Number       Type             X           Y           Z
 ---------------------------------------------------------------------
      1         91           0        0.528082   -0.221944   -0.192974
      2          8           0        0.881736    0.989009   -1.577465
      3          8           0        3.991907   -1.353856    1.725664
      4          8           0       -0.794178    1.120627    0.891316
      5          1           0       -0.968137    2.038914    0.653438
      6          8           0       -1.078183   -1.300796   -1.788277
      7          1           0       -1.624845   -2.080104   -1.624862
      8          8           0       -0.076456   -1.769488    1.128553
      9          1           0        0.281548   -2.650936    1.298654
     10          8           0        2.403123    0.446724    1.208295
     11          8           0        2.730977   -1.265878   -0.380694
     12         16           0        3.502344   -0.470019    0.670724
     13          8           0        4.561565    0.316427    0.042688
     14          1           0       -1.249668   -1.013485   -2.694329
 ---------------------------------------------------------------------
                    Distance matrix (angstroms):
                    1          2          3          4          5
     1  Pa   0.000000
     2  O    1.873045   0.000000
     3  O    4.118311   5.106158   0.000000
     4  O    2.174063   2.986785   5.452138   0.000000
     5  H    2.840170   3.082411   6.104310   0.964417   0.000000
     6  O    2.507788   3.021413   6.168988   3.622729   4.138569
     7  H    3.184047   3.962909   6.580377   4.155218   4.752707
     8  O    2.122920   3.981203   4.132901   2.987335   3.940147
     9  H    2.861072   4.677765   3.953672   3.943070   4.896194
    10  O    2.434430   3.220116   2.456419   3.282888   3.769394
    11  O    2.444951   3.152216   2.456508   4.442986   5.067003
    12  S    3.107049   3.748427   1.460732   4.586820   5.126426
    13  O    4.076073   4.076568   2.438599   5.481869   5.823881
    14  H    3.169181   3.130535   6.864861   4.197470   4.539157
                    6          7          8          9         10
     6  O    0.000000
     7  H    0.965849   0.000000
     8  O    3.119460   3.174159   0.000000
     9  H    3.633303   3.536542   0.966463   0.000000
    10  O    4.914546   5.534994   3.326600   3.755629   0.000000
    11  O    4.061060   4.602619   3.226938   3.276934   2.359106
    12  S    5.264799   5.843813   3.834845   3.940079   1.528950
    13  O    6.146105   6.840742   5.200133   5.357354   2.456520
    14  H    0.965860   1.556341   4.069693   4.579278   5.541261
                   11         12         13         14
    11  O    0.000000
    12  S    1.527703   0.000000
    13  O    2.456419   1.461121   0.000000
    14  H    4.611089   5.848124   6.559753   0.000000
 Stoichiometry    H4O8PaS(1-)
 Framework group  C1[X(H4O8PaS)]
 Deg. of freedom    36
 Full point group                 C1      NOp   1
 Largest Abelian subgroup         C1      NOp   1
 Largest concise Abelian subgroup C1      NOp   1
                         Standard orientation:                         
 ---------------------------------------------------------------------
 Center     Atomic      Atomic             Coordinates (Angstroms)
 Number     Number       Type             X           Y           Z
 ---------------------------------------------------------------------
      1         91           0        0.656749   -0.051659    0.032299
      2          8           0        0.782739   -1.840736   -0.507727
      3          8           0       -3.264741    1.199755    0.160233
      4          8           0        1.643310   -0.367410    1.943725
      5          1           0        1.916260   -1.224461    2.291664
      6          8           0        2.624879    0.353086   -1.468250
      7          1           0        3.066461    1.196047   -1.633435
      8          8           0        0.775684    2.036366    0.396710
      9          1           0        0.349132    2.792177   -0.028561
     10          8           0       -1.525179   -0.263715    1.090919
     11          8           0       -1.426818    0.298850   -1.198017
     12         16           0       -2.446881    0.016938   -0.096258
     13          8           0       -3.237072   -1.168444   -0.420828
     14          1           0        3.071685   -0.315795   -2.002898
 ---------------------------------------------------------------------
 Rotational constants (GHZ):           1.4743040           0.4805093           0.4690594
 Leave Link  202 at Thu Nov 23 15:38:12 2023, MaxMem=  2147483648 cpu:               3.1 elap:               3.2
 (Enter /home/pcmt/gaussian/g16.C.01/g16/l301.exe)
 General basis read from cards:  (5D, 7F)
 Centers:       1
 S 3 1.00
     Exponent=  1.2047376000D+04 Coefficients=  3.4500000000D-04
     Exponent=  1.8116841000D+03 Coefficients=  2.7420000000D-03
     Exponent=  3.4770104000D+02 Coefficients=  1.0053000000D-02
 S 1 1.00
     Exponent=  9.8678010000D+01 Coefficients=  1.0000000000D+00
 S 3 1.00
     Exponent=  5.7507376000D+01 Coefficients=  5.1528000000D-02
     Exponent=  3.3502601000D+01 Coefficients= -2.3692400000D-01
     Exponent=  1.9554451000D+01 Coefficients=  7.1904800000D-01
 S 1 1.00
     Exponent=  9.7164210000D+00 Coefficients=  1.0000000000D+00
 S 1 1.00
     Exponent=  2.6920960000D+00 Coefficients=  1.0000000000D+00
 S 1 1.00
     Exponent=  1.4538470000D+00 Coefficients=  1.0000000000D+00
 S 1 1.00
     Exponent=  5.7435200000D-01 Coefficients=  1.0000000000D+00
 S 1 1.00
     Exponent=  2.6346800000D-01 Coefficients=  1.0000000000D+00
 S 1 1.00
     Exponent=  5.6557000000D-02 Coefficients=  1.0000000000D+00
 S 1 1.00
     Exponent=  2.3169000000D-02 Coefficients=  1.0000000000D+00
 P 5 1.00
     Exponent=  2.9033676000D+03 Coefficients=  3.5000000000D-05
     Exponent=  6.4486356000D+02 Coefficients=  2.0500000000D-04
     Exponent=  2.2025896000D+02 Coefficients=  1.2510000000D-03
     Exponent=  8.0276401000D+01 Coefficients=  2.4570000000D-03
     Exponent=  2.4080211000D+01 Coefficients=  1.1190000000D-02
 P 1 1.00
     Exponent=  1.4077580000D+01 Coefficients=  1.0000000000D+00
 P 1 1.00
     Exponent=  8.2658460000D+00 Coefficients=  1.0000000000D+00
 P 1 1.00
     Exponent=  3.5948000000D+00 Coefficients=  1.0000000000D+00
 P 1 1.00
     Exponent=  1.7531110000D+00 Coefficients=  1.0000000000D+00
 P 1 1.00
     Exponent=  6.5776700000D-01 Coefficients=  1.0000000000D+00
 P 1 1.00
     Exponent=  2.8463900000D-01 Coefficients=  1.0000000000D+00
 P 1 1.00
     Exponent=  1.0054300000D-01 Coefficients=  1.0000000000D+00
 P 1 1.00
     Exponent=  3.0190000000D-02 Coefficients=  1.0000000000D+00
 D 6 1.00
     Exponent=  4.4814991000D+02 Coefficients=  2.6000000000D-05
     Exponent=  1.5446145000D+02 Coefficients=  2.2800000000D-04
     Exponent=  6.0925377000D+01 Coefficients=  9.0400000000D-04
     Exponent=  1.7032091000D+01 Coefficients=  2.5647000000D-02
     Exponent=  1.0018877000D+01 Coefficients= -1.0575100000D-01
     Exponent=  3.4091930000D+00 Coefficients=  4.4743200000D-01
 D 1 1.00
     Exponent=  1.6702130000D+00 Coefficients=  1.0000000000D+00
 D 1 1.00
     Exponent=  7.4109500000D-01 Coefficients=  1.0000000000D+00
 D 1 1.00
     Exponent=  2.6139300000D-01 Coefficients=  1.0000000000D+00
 D 1 1.00
     Exponent=  8.2811000000D-02 Coefficients=  1.0000000000D+00
 F 5 1.00
     Exponent=  8.7991327000D+01 Coefficients=  2.2600000000D-04
     Exponent=  2.8340195000D+01 Coefficients=  2.3230000000D-03
     Exponent=  1.2440994000D+01 Coefficients=  4.5850000000D-03
     Exponent=  3.9572960000D+00 Coefficients=  1.5696100000D-01
     Exponent=  1.8759440000D+00 Coefficients=  3.4497700000D-01
 F 1 1.00
     Exponent=  8.2758900000D-01 Coefficients=  1.0000000000D+00
 F 1 1.00
     Exponent=  3.3274800000D-01 Coefficients=  1.0000000000D+00
 F 1 1.00
     Exponent=  1.1468500000D-01 Coefficients=  1.0000000000D+00
 G 1 1.00
     Exponent=  3.5000000000D-01 Coefficients=  1.0000000000D+00
 ****
 Centers:       2      3      4      6      8     10     11     13
 Def2TZVP
 ****
 Centers:       5      7      9     14
 Def2TZVP
 ****
 Centers:      12
 Def2TZVP
 ****
 ======================================================================================================
                                       Pseudopotential Parameters
 ======================================================================================================
  Center     Atomic      Valence      Angular      Power
  Number     Number     Electrons     Momentum     of R      Exponent        Coefficient   SO-Coeffient
 ======================================================================================================
    1         91           31
                                      H and up 
                                                     2        1.0000000        0.00000000    0.00000000
                                      S - H
                                                     2       15.2691737      475.47573283    0.00000000
                                      P - H
                                                     2        9.9577370      207.66485962    0.00000000
                                      D - H
                                                     2        8.9431413      156.67411988    0.00000000
                                      F - H
                                                     2        7.0104666       67.98223685    0.00000000
                                      G - H
                                                     2       12.2010560      -57.63059989    0.00000000
    2          8
                                   No pseudopotential on this center.
    3          8
                                   No pseudopotential on this center.
    4          8
                                   No pseudopotential on this center.
    5          1
                                   No pseudopotential on this center.
    6          8
                                   No pseudopotential on this center.
    7          1
                                   No pseudopotential on this center.
    8          8
                                   No pseudopotential on this center.
    9          1
                                   No pseudopotential on this center.
   10          8
                                   No pseudopotential on this center.
   11          8
                                   No pseudopotential on this center.
   12         16
                                   No pseudopotential on this center.
   13          8
                                   No pseudopotential on this center.
   14          1
                                   No pseudopotential on this center.
 ======================================================================================================
 Ernie: Thresh=  0.10000D-02 Tol=  0.10000D-05 Strict=F.
 AO basis set in the form of general basis input (Overlap normalization):
      1 0
 S   3 1.00       0.000000000000
      0.1204737600D+05  0.2857094961D-01
      0.1811684100D+04  0.2270769386D+00
      0.3477010400D+03  0.8325326273D+00
 S   3 1.00       0.000000000000
      0.5750737600D+02  0.9569327984D-01
      0.3350260100D+02 -0.4399944619D+00
      0.1955445100D+02  0.1335352847D+01
 S   1 1.00       0.000000000000
      0.9867801000D+02  0.1000000000D+01
 S   1 1.00       0.000000000000
      0.9716421000D+01  0.1000000000D+01
 S   1 1.00       0.000000000000
      0.2692096000D+01  0.1000000000D+01
 S   1 1.00       0.000000000000
      0.1453847000D+01  0.1000000000D+01
 S   1 1.00       0.000000000000
      0.5743520000D+00  0.1000000000D+01
 S   1 1.00       0.000000000000
      0.2634680000D+00  0.1000000000D+01
 S   1 1.00       0.000000000000
      0.5655700000D-01  0.1000000000D+01
 S   1 1.00       0.000000000000
      0.2316900000D-01  0.1000000000D+01
 P   5 1.00       0.000000000000
      0.2903367600D+04  0.2594222647D-02
      0.6448635600D+03  0.1519473264D-01
      0.2202589600D+03  0.9272492945D-01
      0.8027640100D+02  0.1821144298D+00
      0.2408021100D+02  0.8294100404D+00
 P   1 1.00       0.000000000000
      0.1407758000D+02  0.1000000000D+01
 P   1 1.00       0.000000000000
      0.8265846000D+01  0.1000000000D+01
 P   1 1.00       0.000000000000
      0.3594800000D+01  0.1000000000D+01
 P   1 1.00       0.000000000000
      0.1753111000D+01  0.1000000000D+01
 P   1 1.00       0.000000000000
      0.6577670000D+00  0.1000000000D+01
 P   1 1.00       0.000000000000
      0.2846390000D+00  0.1000000000D+01
 P   1 1.00       0.000000000000
      0.1005430000D+00  0.1000000000D+01
 P   1 1.00       0.000000000000
      0.3019000000D-01  0.1000000000D+01
 D   6 1.00       0.000000000000
      0.4481499100D+03  0.6556927566D-04
      0.1544614500D+03  0.5749921096D-03
      0.6092537700D+02  0.2279793277D-02
      0.1703209100D+02  0.6467904664D-01
      0.1001887700D+02 -0.2666929411D+00
      0.3409193000D+01  0.1128376621D+01
 D   1 1.00       0.000000000000
      0.1670213000D+01  0.1000000000D+01
 D   1 1.00       0.000000000000
      0.7410950000D+00  0.1000000000D+01
 D   1 1.00       0.000000000000
      0.2613930000D+00  0.1000000000D+01
 D   1 1.00       0.000000000000
      0.8281100000D-01  0.1000000000D+01
 F   5 1.00       0.000000000000
      0.8799132700D+02  0.4766318191D-03
      0.2834019500D+02  0.4899184583D-02
      0.1244099400D+02  0.9669720755D-02
      0.3957296000D+01  0.3310292343D+00
      0.1875944000D+01  0.7275531640D+00
 F   1 1.00       0.000000000000
      0.8275890000D+00  0.1000000000D+01
 F   1 1.00       0.000000000000
      0.3327480000D+00  0.1000000000D+01
 F   1 1.00       0.000000000000
      0.1146850000D+00  0.1000000000D+01
 G   1 1.00       0.000000000000
      0.3500000000D+00  0.1000000000D+01
 ****
      2 0
 S   6 1.00       0.000000000000
      0.2703238263D+05  0.5722733521D-03
      0.4052387139D+04  0.4435323349D-02
      0.9223272271D+03  0.2302010771D-01
      0.2612407099D+03  0.9282249067D-01
      0.8535464135D+02  0.2937850001D+00
      0.3103503524D+02  0.6740160450D+00
 S   2 1.00       0.000000000000
      0.1226086073D+02  0.6383993703D+00
      0.4998707601D+01  0.3953458713D+00
 S   1 1.00       0.000000000000
      0.1170310816D+01  0.1000000000D+01
 S   1 1.00       0.000000000000
      0.4647474099D+00  0.1000000000D+01
 S   1 1.00       0.000000000000
      0.1850453636D+00  0.1000000000D+01
 P   4 1.00       0.000000000000
      0.6327495480D+02  0.1201833222D-01
      0.1462704938D+02  0.8300542179D-01
      0.4450122346D+01  0.3199174393D+00
      0.1527579965D+01  0.7071554292D+00
 P   1 1.00       0.000000000000
      0.5293511794D+00  0.1000000000D+01
 P   1 1.00       0.000000000000
      0.1747842127D+00  0.1000000000D+01
 D   1 1.00       0.000000000000
      0.2314000000D+01  0.1000000000D+01
 D   1 1.00       0.000000000000
      0.6450000000D+00  0.1000000000D+01
 F   1 1.00       0.000000000000
      0.1428000000D+01  0.1000000000D+01
 ****
      3 0
 S   6 1.00       0.000000000000
      0.2703238263D+05  0.5722733521D-03
      0.4052387139D+04  0.4435323349D-02
      0.9223272271D+03  0.2302010771D-01
      0.2612407099D+03  0.9282249067D-01
      0.8535464135D+02  0.2937850001D+00
      0.3103503524D+02  0.6740160450D+00
 S   2 1.00       0.000000000000
      0.1226086073D+02  0.6383993703D+00
      0.4998707601D+01  0.3953458713D+00
 S   1 1.00       0.000000000000
      0.1170310816D+01  0.1000000000D+01
 S   1 1.00       0.000000000000
      0.4647474099D+00  0.1000000000D+01
 S   1 1.00       0.000000000000
      0.1850453636D+00  0.1000000000D+01
 P   4 1.00       0.000000000000
      0.6327495480D+02  0.1201833222D-01
      0.1462704938D+02  0.8300542179D-01
      0.4450122346D+01  0.3199174393D+00
      0.1527579965D+01  0.7071554292D+00
 P   1 1.00       0.000000000000
      0.5293511794D+00  0.1000000000D+01
 P   1 1.00       0.000000000000
      0.1747842127D+00  0.1000000000D+01
 D   1 1.00       0.000000000000
      0.2314000000D+01  0.1000000000D+01
 D   1 1.00       0.000000000000
      0.6450000000D+00  0.1000000000D+01
 F   1 1.00       0.000000000000
      0.1428000000D+01  0.1000000000D+01
 ****
      4 0
 S   6 1.00       0.000000000000
      0.2703238263D+05  0.5722733521D-03
      0.4052387139D+04  0.4435323349D-02
      0.9223272271D+03  0.2302010771D-01
      0.2612407099D+03  0.9282249067D-01
      0.8535464135D+02  0.2937850001D+00
      0.3103503524D+02  0.6740160450D+00
 S   2 1.00       0.000000000000
      0.1226086073D+02  0.6383993703D+00
      0.4998707601D+01  0.3953458713D+00
 S   1 1.00       0.000000000000
      0.1170310816D+01  0.1000000000D+01
 S   1 1.00       0.000000000000
      0.4647474099D+00  0.1000000000D+01
 S   1 1.00       0.000000000000
      0.1850453636D+00  0.1000000000D+01
 P   4 1.00       0.000000000000
      0.6327495480D+02  0.1201833222D-01
      0.1462704938D+02  0.8300542179D-01
      0.4450122346D+01  0.3199174393D+00
      0.1527579965D+01  0.7071554292D+00
 P   1 1.00       0.000000000000
      0.5293511794D+00  0.1000000000D+01
 P   1 1.00       0.000000000000
      0.1747842127D+00  0.1000000000D+01
 D   1 1.00       0.000000000000
      0.2314000000D+01  0.1000000000D+01
 D   1 1.00       0.000000000000
      0.6450000000D+00  0.1000000000D+01
 F   1 1.00       0.000000000000
      0.1428000000D+01  0.1000000000D+01
 ****
      5 0
 S   3 1.00       0.000000000000
      0.3406134100D+02  0.2543930721D-01
      0.5123574600D+01  0.1900859489D+00
      0.1164662600D+01  0.8524411301D+00
 S   1 1.00       0.000000000000
      0.3272304100D+00  0.1000000000D+01
 S   1 1.00       0.000000000000
      0.1030724100D+00  0.1000000000D+01
 P   1 1.00       0.000000000000
      0.8000000000D+00  0.1000000000D+01
 ****
      6 0
 S   6 1.00       0.000000000000
      0.2703238263D+05  0.5722733521D-03
      0.4052387139D+04  0.4435323349D-02
      0.9223272271D+03  0.2302010771D-01
      0.2612407099D+03  0.9282249067D-01
      0.8535464135D+02  0.2937850001D+00
      0.3103503524D+02  0.6740160450D+00
 S   2 1.00       0.000000000000
      0.1226086073D+02  0.6383993703D+00
      0.4998707601D+01  0.3953458713D+00
 S   1 1.00       0.000000000000
      0.1170310816D+01  0.1000000000D+01
 S   1 1.00       0.000000000000
      0.4647474099D+00  0.1000000000D+01
 S   1 1.00       0.000000000000
      0.1850453636D+00  0.1000000000D+01
 P   4 1.00       0.000000000000
      0.6327495480D+02  0.1201833222D-01
      0.1462704938D+02  0.8300542179D-01
      0.4450122346D+01  0.3199174393D+00
      0.1527579965D+01  0.7071554292D+00
 P   1 1.00       0.000000000000
      0.5293511794D+00  0.1000000000D+01
 P   1 1.00       0.000000000000
      0.1747842127D+00  0.1000000000D+01
 D   1 1.00       0.000000000000
      0.2314000000D+01  0.1000000000D+01
 D   1 1.00       0.000000000000
      0.6450000000D+00  0.1000000000D+01
 F   1 1.00       0.000000000000
      0.1428000000D+01  0.1000000000D+01
 ****
      7 0
 S   3 1.00       0.000000000000
      0.3406134100D+02  0.2543930721D-01
      0.5123574600D+01  0.1900859489D+00
      0.1164662600D+01  0.8524411301D+00
 S   1 1.00       0.000000000000
      0.3272304100D+00  0.1000000000D+01
 S   1 1.00       0.000000000000
      0.1030724100D+00  0.1000000000D+01
 P   1 1.00       0.000000000000
      0.8000000000D+00  0.1000000000D+01
 ****
      8 0
 S   6 1.00       0.000000000000
      0.2703238263D+05  0.5722733521D-03
      0.4052387139D+04  0.4435323349D-02
      0.9223272271D+03  0.2302010771D-01
      0.2612407099D+03  0.9282249067D-01
      0.8535464135D+02  0.2937850001D+00
      0.3103503524D+02  0.6740160450D+00
 S   2 1.00       0.000000000000
      0.1226086073D+02  0.6383993703D+00
      0.4998707601D+01  0.3953458713D+00
 S   1 1.00       0.000000000000
      0.1170310816D+01  0.1000000000D+01
 S   1 1.00       0.000000000000
      0.4647474099D+00  0.1000000000D+01
 S   1 1.00       0.000000000000
      0.1850453636D+00  0.1000000000D+01
 P   4 1.00       0.000000000000
      0.6327495480D+02  0.1201833222D-01
      0.1462704938D+02  0.8300542179D-01
      0.4450122346D+01  0.3199174393D+00
      0.1527579965D+01  0.7071554292D+00
 P   1 1.00       0.000000000000
      0.5293511794D+00  0.1000000000D+01
 P   1 1.00       0.000000000000
      0.1747842127D+00  0.1000000000D+01
 D   1 1.00       0.000000000000
      0.2314000000D+01  0.1000000000D+01
 D   1 1.00       0.000000000000
      0.6450000000D+00  0.1000000000D+01
 F   1 1.00       0.000000000000
      0.1428000000D+01  0.1000000000D+01
 ****
      9 0
 S   3 1.00       0.000000000000
      0.3406134100D+02  0.2543930721D-01
      0.5123574600D+01  0.1900859489D+00
      0.1164662600D+01  0.8524411301D+00
 S   1 1.00       0.000000000000
      0.3272304100D+00  0.1000000000D+01
 S   1 1.00       0.000000000000
      0.1030724100D+00  0.1000000000D+01
 P   1 1.00       0.000000000000
      0.8000000000D+00  0.1000000000D+01
 ****
     10 0
 S   6 1.00       0.000000000000
      0.2703238263D+05  0.5722733521D-03
      0.4052387139D+04  0.4435323349D-02
      0.9223272271D+03  0.2302010771D-01
      0.2612407099D+03  0.9282249067D-01
      0.8535464135D+02  0.2937850001D+00
      0.3103503524D+02  0.6740160450D+00
 S   2 1.00       0.000000000000
      0.1226086073D+02  0.6383993703D+00
      0.4998707601D+01  0.3953458713D+00
 S   1 1.00       0.000000000000
      0.1170310816D+01  0.1000000000D+01
 S   1 1.00       0.000000000000
      0.4647474099D+00  0.1000000000D+01
 S   1 1.00       0.000000000000
      0.1850453636D+00  0.1000000000D+01
 P   4 1.00       0.000000000000
      0.6327495480D+02  0.1201833222D-01
      0.1462704938D+02  0.8300542179D-01
      0.4450122346D+01  0.3199174393D+00
      0.1527579965D+01  0.7071554292D+00
 P   1 1.00       0.000000000000
      0.5293511794D+00  0.1000000000D+01
 P   1 1.00       0.000000000000
      0.1747842127D+00  0.1000000000D+01
 D   1 1.00       0.000000000000
      0.2314000000D+01  0.1000000000D+01
 D   1 1.00       0.000000000000
      0.6450000000D+00  0.1000000000D+01
 F   1 1.00       0.000000000000
      0.1428000000D+01  0.1000000000D+01
 ****
     11 0
 S   6 1.00       0.000000000000
      0.2703238263D+05  0.5722733521D-03
      0.4052387139D+04  0.4435323349D-02
      0.9223272271D+03  0.2302010771D-01
      0.2612407099D+03  0.9282249067D-01
      0.8535464135D+02  0.2937850001D+00
      0.3103503524D+02  0.6740160450D+00
 S   2 1.00       0.000000000000
      0.1226086073D+02  0.6383993703D+00
      0.4998707601D+01  0.3953458713D+00
 S   1 1.00       0.000000000000
      0.1170310816D+01  0.1000000000D+01
 S   1 1.00       0.000000000000
      0.4647474099D+00  0.1000000000D+01
 S   1 1.00       0.000000000000
      0.1850453636D+00  0.1000000000D+01
 P   4 1.00       0.000000000000
      0.6327495480D+02  0.1201833222D-01
      0.1462704938D+02  0.8300542179D-01
      0.4450122346D+01  0.3199174393D+00
      0.1527579965D+01  0.7071554292D+00
 P   1 1.00       0.000000000000
      0.5293511794D+00  0.1000000000D+01
 P   1 1.00       0.000000000000
      0.1747842127D+00  0.1000000000D+01
 D   1 1.00       0.000000000000
      0.2314000000D+01  0.1000000000D+01
 D   1 1.00       0.000000000000
      0.6450000000D+00  0.1000000000D+01
 F   1 1.00       0.000000000000
      0.1428000000D+01  0.1000000000D+01
 ****
     12 0
 S   7 1.00       0.000000000000
      0.6070092810D+05  0.5238007490D-03
      0.9102610685D+04  0.4050632678D-02
      0.2071416601D+04  0.2082700417D-01
      0.5860247682D+03  0.8149685034D-01
      0.1905539502D+03  0.2374911384D+00
      0.6763038426D+02  0.4472617151D+00
      0.2512730691D+02  0.3489191844D+00
 S   3 1.00       0.000000000000
      0.1125746301D+03  0.1004556989D+00
      0.3479555422D+02  0.4339117295D+00
      0.6511555622D+01 -0.1208433059D+01
 S   2 1.00       0.000000000000
      0.3239903226D+01  0.6749812942D+00
      0.1547716088D+01  0.3470879576D+00
 S   1 1.00       0.000000000000
      0.4054103011D+00  0.1000000000D+01
 S   1 1.00       0.000000000000
      0.1455065106D+00  0.1000000000D+01
 P   5 1.00       0.000000000000
      0.5643671603D+03  0.3488692363D-02
      0.1334262438D+03  0.2768512678D-01
      0.4246827119D+02  0.1265940018D+00
      0.1561652758D+02  0.3616592567D+00
      0.6109398847D+01  0.6122203444D+00
 P   1 1.00       0.000000000000
      0.2440416020D+01  0.1000000000D+01
 P   1 1.00       0.000000000000
      0.8388220130D+00  0.1000000000D+01
 P   1 1.00       0.000000000000
      0.3128874690D+00  0.1000000000D+01
 P   1 1.00       0.000000000000
      0.1077010900D+00  0.1000000000D+01
 D   2 1.00       0.000000000000
      0.3756000000D+01  0.1828519746D+00
      0.8120000000D+00  0.9142598730D+00
 D   1 1.00       0.000000000000
      0.2730000000D+00  0.1000000000D+01
 F   1 1.00       0.000000000000
      0.5570000000D+00  0.1000000000D+01
 ****
     13 0
 S   6 1.00       0.000000000000
      0.2703238263D+05  0.5722733521D-03
      0.4052387139D+04  0.4435323349D-02
      0.9223272271D+03  0.2302010771D-01
      0.2612407099D+03  0.9282249067D-01
      0.8535464135D+02  0.2937850001D+00
      0.3103503524D+02  0.6740160450D+00
 S   2 1.00       0.000000000000
      0.1226086073D+02  0.6383993703D+00
      0.4998707601D+01  0.3953458713D+00
 S   1 1.00       0.000000000000
      0.1170310816D+01  0.1000000000D+01
 S   1 1.00       0.000000000000
      0.4647474099D+00  0.1000000000D+01
 S   1 1.00       0.000000000000
      0.1850453636D+00  0.1000000000D+01
 P   4 1.00       0.000000000000
      0.6327495480D+02  0.1201833222D-01
      0.1462704938D+02  0.8300542179D-01
      0.4450122346D+01  0.3199174393D+00
      0.1527579965D+01  0.7071554292D+00
 P   1 1.00       0.000000000000
      0.5293511794D+00  0.1000000000D+01
 P   1 1.00       0.000000000000
      0.1747842127D+00  0.1000000000D+01
 D   1 1.00       0.000000000000
      0.2314000000D+01  0.1000000000D+01
 D   1 1.00       0.000000000000
      0.6450000000D+00  0.1000000000D+01
 F   1 1.00       0.000000000000
      0.1428000000D+01  0.1000000000D+01
 ****
     14 0
 S   3 1.00       0.000000000000
      0.3406134100D+02  0.2543930721D-01
      0.5123574600D+01  0.1900859489D+00
      0.1164662600D+01  0.8524411301D+00
 S   1 1.00       0.000000000000
      0.3272304100D+00  0.1000000000D+01
 S   1 1.00       0.000000000000
      0.1030724100D+00  0.1000000000D+01
 P   1 1.00       0.000000000000
      0.8000000000D+00  0.1000000000D+01
 ****

 AO basis set (Overlap normalization):
 Atom Pa1      Shell     1 S   3     bf    1 -     1          1.241075341426         -0.097621901799          0.061036944550
      0.1204737600D+05  0.2857094961D-01
      0.1811684100D+04  0.2270769386D+00
      0.3477010400D+03  0.8325326273D+00
 Atom Pa1      Shell     2 S   3     bf    2 -     2          1.241075341426         -0.097621901799          0.061036944550
      0.5750737600D+02  0.9569327984D-01
      0.3350260100D+02 -0.4399944619D+00
      0.1955445100D+02  0.1335352847D+01
 Atom Pa1      Shell     3 S   1     bf    3 -     3          1.241075341426         -0.097621901799          0.061036944550
      0.9867801000D+02  0.1000000000D+01
 Atom Pa1      Shell     4 S   1     bf    4 -     4          1.241075341426         -0.097621901799          0.061036944550
      0.9716421000D+01  0.1000000000D+01
 Atom Pa1      Shell     5 S   1     bf    5 -     5          1.241075341426         -0.097621901799          0.061036944550
      0.2692096000D+01  0.1000000000D+01
 Atom Pa1      Shell     6 S   1     bf    6 -     6          1.241075341426         -0.097621901799          0.061036944550
      0.1453847000D+01  0.1000000000D+01
 Atom Pa1      Shell     7 S   1     bf    7 -     7          1.241075341426         -0.097621901799          0.061036944550
      0.5743520000D+00  0.1000000000D+01
 Atom Pa1      Shell     8 S   1     bf    8 -     8          1.241075341426         -0.097621901799          0.061036944550
      0.2634680000D+00  0.1000000000D+01
 Atom Pa1      Shell     9 S   1     bf    9 -     9          1.241075341426         -0.097621901799          0.061036944550
      0.5655700000D-01  0.1000000000D+01
 Atom Pa1      Shell    10 S   1     bf   10 -    10          1.241075341426         -0.097621901799          0.061036944550
      0.2316900000D-01  0.1000000000D+01
 Atom Pa1      Shell    11 P   5     bf   11 -    13          1.241075341426         -0.097621901799          0.061036944550
      0.2903367600D+04  0.2594222647D-02
      0.6448635600D+03  0.1519473264D-01
      0.2202589600D+03  0.9272492945D-01
      0.8027640100D+02  0.1821144298D+00
      0.2408021100D+02  0.8294100404D+00
 Atom Pa1      Shell    12 P   1     bf   14 -    16          1.241075341426         -0.097621901799          0.061036944550
      0.1407758000D+02  0.1000000000D+01
 Atom Pa1      Shell    13 P   1     bf   17 -    19          1.241075341426         -0.097621901799          0.061036944550
      0.8265846000D+01  0.1000000000D+01
 Atom Pa1      Shell    14 P   1     bf   20 -    22          1.241075341426         -0.097621901799          0.061036944550
      0.3594800000D+01  0.1000000000D+01
 Atom Pa1      Shell    15 P   1     bf   23 -    25          1.241075341426         -0.097621901799          0.061036944550
      0.1753111000D+01  0.1000000000D+01
 Atom Pa1      Shell    16 P   1     bf   26 -    28          1.241075341426         -0.097621901799          0.061036944550
      0.6577670000D+00  0.1000000000D+01
 Atom Pa1      Shell    17 P   1     bf   29 -    31          1.241075341426         -0.097621901799          0.061036944550
      0.2846390000D+00  0.1000000000D+01
 Atom Pa1      Shell    18 P   1     bf   32 -    34          1.241075341426         -0.097621901799          0.061036944550
      0.1005430000D+00  0.1000000000D+01
 Atom Pa1      Shell    19 P   1     bf   35 -    37          1.241075341426         -0.097621901799          0.061036944550
      0.3019000000D-01  0.1000000000D+01
 Atom Pa1      Shell    20 D   6     bf   38 -    42          1.241075341426         -0.097621901799          0.061036944550
      0.4481499100D+03  0.6556927566D-04
      0.1544614500D+03  0.5749921096D-03
      0.6092537700D+02  0.2279793277D-02
      0.1703209100D+02  0.6467904664D-01
      0.1001887700D+02 -0.2666929411D+00
      0.3409193000D+01  0.1128376621D+01
 Atom Pa1      Shell    21 D   1     bf   43 -    47          1.241075341426         -0.097621901799          0.061036944550
      0.1670213000D+01  0.1000000000D+01
 Atom Pa1      Shell    22 D   1     bf   48 -    52          1.241075341426         -0.097621901799          0.061036944550
      0.7410950000D+00  0.1000000000D+01
 Atom Pa1      Shell    23 D   1     bf   53 -    57          1.241075341426         -0.097621901799          0.061036944550
      0.2613930000D+00  0.1000000000D+01
 Atom Pa1      Shell    24 D   1     bf   58 -    62          1.241075341426         -0.097621901799          0.061036944550
      0.8281100000D-01  0.1000000000D+01
 Atom Pa1      Shell    25 F   5     bf   63 -    69          1.241075341426         -0.097621901799          0.061036944550
      0.8799132700D+02  0.4766318191D-03
      0.2834019500D+02  0.4899184583D-02
      0.1244099400D+02  0.9669720755D-02
      0.3957296000D+01  0.3310292343D+00
      0.1875944000D+01  0.7275531640D+00
 Atom Pa1      Shell    26 F   1     bf   70 -    76          1.241075341426         -0.097621901799          0.061036944550
      0.8275890000D+00  0.1000000000D+01
 Atom Pa1      Shell    27 F   1     bf   77 -    83          1.241075341426         -0.097621901799          0.061036944550
      0.3327480000D+00  0.1000000000D+01
 Atom Pa1      Shell    28 F   1     bf   84 -    90          1.241075341426         -0.097621901799          0.061036944550
      0.1146850000D+00  0.1000000000D+01
 Atom Pa1      Shell    29 G   1     bf   91 -    99          1.241075341426         -0.097621901799          0.061036944550
      0.3500000000D+00  0.1000000000D+01
 Atom O2       Shell    30 S   6     bf  100 -   100          1.479162751517         -3.478486006808         -0.959465540966
      0.2703238263D+05  0.5722733521D-03
      0.4052387139D+04  0.4435323349D-02
      0.9223272271D+03  0.2302010771D-01
      0.2612407099D+03  0.9282249067D-01
      0.8535464135D+02  0.2937850001D+00
      0.3103503524D+02  0.6740160450D+00
 Atom O2       Shell    31 S   2     bf  101 -   101          1.479162751517         -3.478486006808         -0.959465540966
      0.1226086073D+02  0.6383993703D+00
      0.4998707601D+01  0.3953458713D+00
 Atom O2       Shell    32 S   1     bf  102 -   102          1.479162751517         -3.478486006808         -0.959465540966
      0.1170310816D+01  0.1000000000D+01
 Atom O2       Shell    33 S   1     bf  103 -   103          1.479162751517         -3.478486006808         -0.959465540966
      0.4647474099D+00  0.1000000000D+01
 Atom O2       Shell    34 S   1     bf  104 -   104          1.479162751517         -3.478486006808         -0.959465540966
      0.1850453636D+00  0.1000000000D+01
 Atom O2       Shell    35 P   4     bf  105 -   107          1.479162751517         -3.478486006808         -0.959465540966
      0.6327495480D+02  0.1201833222D-01
      0.1462704938D+02  0.8300542179D-01
      0.4450122346D+01  0.3199174393D+00
      0.1527579965D+01  0.7071554292D+00
 Atom O2       Shell    36 P   1     bf  108 -   110          1.479162751517         -3.478486006808         -0.959465540966
      0.5293511794D+00  0.1000000000D+01
 Atom O2       Shell    37 P   1     bf  111 -   113          1.479162751517         -3.478486006808         -0.959465540966
      0.1747842127D+00  0.1000000000D+01
 Atom O2       Shell    38 D   1     bf  114 -   118          1.479162751517         -3.478486006808         -0.959465540966
      0.2314000000D+01  0.1000000000D+01
 Atom O2       Shell    39 D   1     bf  119 -   123          1.479162751517         -3.478486006808         -0.959465540966
      0.6450000000D+00  0.1000000000D+01
 Atom O2       Shell    40 F   1     bf  124 -   130          1.479162751517         -3.478486006808         -0.959465540966
      0.1428000000D+01  0.1000000000D+01
 Atom O3       Shell    41 S   6     bf  131 -   131         -6.169465427755          2.267209146715          0.302795727743
      0.2703238263D+05  0.5722733521D-03
      0.4052387139D+04  0.4435323349D-02
      0.9223272271D+03  0.2302010771D-01
      0.2612407099D+03  0.9282249067D-01
      0.8535464135D+02  0.2937850001D+00
      0.3103503524D+02  0.6740160450D+00
 Atom O3       Shell    42 S   2     bf  132 -   132         -6.169465427755          2.267209146715          0.302795727743
      0.1226086073D+02  0.6383993703D+00
      0.4998707601D+01  0.3953458713D+00
 Atom O3       Shell    43 S   1     bf  133 -   133         -6.169465427755          2.267209146715          0.302795727743
      0.1170310816D+01  0.1000000000D+01
 Atom O3       Shell    44 S   1     bf  134 -   134         -6.169465427755          2.267209146715          0.302795727743
      0.4647474099D+00  0.1000000000D+01
 Atom O3       Shell    45 S   1     bf  135 -   135         -6.169465427755          2.267209146715          0.302795727743
      0.1850453636D+00  0.1000000000D+01
 Atom O3       Shell    46 P   4     bf  136 -   138         -6.169465427755          2.267209146715          0.302795727743
      0.6327495480D+02  0.1201833222D-01
      0.1462704938D+02  0.8300542179D-01
      0.4450122346D+01  0.3199174393D+00
      0.1527579965D+01  0.7071554292D+00
 Atom O3       Shell    47 P   1     bf  139 -   141         -6.169465427755          2.267209146715          0.302795727743
      0.5293511794D+00  0.1000000000D+01
 Atom O3       Shell    48 P   1     bf  142 -   144         -6.169465427755          2.267209146715          0.302795727743
      0.1747842127D+00  0.1000000000D+01
 Atom O3       Shell    49 D   1     bf  145 -   149         -6.169465427755          2.267209146715          0.302795727743
      0.2314000000D+01  0.1000000000D+01
 Atom O3       Shell    50 D   1     bf  150 -   154         -6.169465427755          2.267209146715          0.302795727743
      0.6450000000D+00  0.1000000000D+01
 Atom O3       Shell    51 F   1     bf  155 -   161         -6.169465427755          2.267209146715          0.302795727743
      0.1428000000D+01  0.1000000000D+01
 Atom O4       Shell    52 S   6     bf  162 -   162          3.105405278985         -0.694304950758          3.673108043194
      0.2703238263D+05  0.5722733521D-03
      0.4052387139D+04  0.4435323349D-02
      0.9223272271D+03  0.2302010771D-01
      0.2612407099D+03  0.9282249067D-01
      0.8535464135D+02  0.2937850001D+00
      0.3103503524D+02  0.6740160450D+00
 Atom O4       Shell    53 S   2     bf  163 -   163          3.105405278985         -0.694304950758          3.673108043194
      0.1226086073D+02  0.6383993703D+00
      0.4998707601D+01  0.3953458713D+00
 Atom O4       Shell    54 S   1     bf  164 -   164          3.105405278985         -0.694304950758          3.673108043194
      0.1170310816D+01  0.1000000000D+01
 Atom O4       Shell    55 S   1     bf  165 -   165          3.105405278985         -0.694304950758          3.673108043194
      0.4647474099D+00  0.1000000000D+01
 Atom O4       Shell    56 S   1     bf  166 -   166          3.105405278985         -0.694304950758          3.673108043194
      0.1850453636D+00  0.1000000000D+01
 Atom O4       Shell    57 P   4     bf  167 -   169          3.105405278985         -0.694304950758          3.673108043194
      0.6327495480D+02  0.1201833222D-01
      0.1462704938D+02  0.8300542179D-01
      0.4450122346D+01  0.3199174393D+00
      0.1527579965D+01  0.7071554292D+00
 Atom O4       Shell    58 P   1     bf  170 -   172          3.105405278985         -0.694304950758          3.673108043194
      0.5293511794D+00  0.1000000000D+01
 Atom O4       Shell    59 P   1     bf  173 -   175          3.105405278985         -0.694304950758          3.673108043194
      0.1747842127D+00  0.1000000000D+01
 Atom O4       Shell    60 D   1     bf  176 -   180          3.105405278985         -0.694304950758          3.673108043194
      0.2314000000D+01  0.1000000000D+01
 Atom O4       Shell    61 D   1     bf  181 -   185          3.105405278985         -0.694304950758          3.673108043194
      0.6450000000D+00  0.1000000000D+01
 Atom O4       Shell    62 F   1     bf  186 -   192          3.105405278985         -0.694304950758          3.673108043194
      0.1428000000D+01  0.1000000000D+01
 Atom H5       Shell    63 S   3     bf  193 -   193          3.621207482749         -2.313896095732          4.330617999711
      0.3406134100D+02  0.2543930721D-01
      0.5123574600D+01  0.1900859489D+00
      0.1164662600D+01  0.8524411301D+00
 Atom H5       Shell    64 S   1     bf  194 -   194          3.621207482749         -2.313896095732          4.330617999711
      0.3272304100D+00  0.1000000000D+01
 Atom H5       Shell    65 S   1     bf  195 -   195          3.621207482749         -2.313896095732          4.330617999711
      0.1030724100D+00  0.1000000000D+01
 Atom H5       Shell    66 P   1     bf  196 -   198          3.621207482749         -2.313896095732          4.330617999711
      0.8000000000D+00  0.1000000000D+01
 Atom O6       Shell    67 S   6     bf  199 -   199          4.960301590707          0.667235406153         -2.774590960079
      0.2703238263D+05  0.5722733521D-03
      0.4052387139D+04  0.4435323349D-02
      0.9223272271D+03  0.2302010771D-01
      0.2612407099D+03  0.9282249067D-01
      0.8535464135D+02  0.2937850001D+00
      0.3103503524D+02  0.6740160450D+00
 Atom O6       Shell    68 S   2     bf  200 -   200          4.960301590707          0.667235406153         -2.774590960079
      0.1226086073D+02  0.6383993703D+00
      0.4998707601D+01  0.3953458713D+00
 Atom O6       Shell    69 S   1     bf  201 -   201          4.960301590707          0.667235406153         -2.774590960079
      0.1170310816D+01  0.1000000000D+01
 Atom O6       Shell    70 S   1     bf  202 -   202          4.960301590707          0.667235406153         -2.774590960079
      0.4647474099D+00  0.1000000000D+01
 Atom O6       Shell    71 S   1     bf  203 -   203          4.960301590707          0.667235406153         -2.774590960079
      0.1850453636D+00  0.1000000000D+01
 Atom O6       Shell    72 P   4     bf  204 -   206          4.960301590707          0.667235406153         -2.774590960079
      0.6327495480D+02  0.1201833222D-01
      0.1462704938D+02  0.8300542179D-01
      0.4450122346D+01  0.3199174393D+00
      0.1527579965D+01  0.7071554292D+00
 Atom O6       Shell    73 P   1     bf  207 -   209          4.960301590707          0.667235406153         -2.774590960079
      0.5293511794D+00  0.1000000000D+01
 Atom O6       Shell    74 P   1     bf  210 -   212          4.960301590707          0.667235406153         -2.774590960079
      0.1747842127D+00  0.1000000000D+01
 Atom O6       Shell    75 D   1     bf  213 -   217          4.960301590707          0.667235406153         -2.774590960079
      0.2314000000D+01  0.1000000000D+01
 Atom O6       Shell    76 D   1     bf  218 -   222          4.960301590707          0.667235406153         -2.774590960079
      0.6450000000D+00  0.1000000000D+01
 Atom O6       Shell    77 F   1     bf  223 -   229          4.960301590707          0.667235406153         -2.774590960079
      0.1428000000D+01  0.1000000000D+01
 Atom H7       Shell    78 S   3     bf  230 -   230          5.794771001593          2.260201230586         -3.086745175016
      0.3406134100D+02  0.2543930721D-01
      0.5123574600D+01  0.1900859489D+00
      0.1164662600D+01  0.8524411301D+00
 Atom H7       Shell    79 S   1     bf  231 -   231          5.794771001593          2.260201230586         -3.086745175016
      0.3272304100D+00  0.1000000000D+01
 Atom H7       Shell    80 S   1     bf  232 -   232          5.794771001593          2.260201230586         -3.086745175016
      0.1030724100D+00  0.1000000000D+01
 Atom H7       Shell    81 P   1     bf  233 -   235          5.794771001593          2.260201230586         -3.086745175016
      0.8000000000D+00  0.1000000000D+01
 Atom O8       Shell    82 S   6     bf  236 -   236          1.465830295794          3.848174535189          0.749673312124
      0.2703238263D+05  0.5722733521D-03
      0.4052387139D+04  0.4435323349D-02
      0.9223272271D+03  0.2302010771D-01
      0.2612407099D+03  0.9282249067D-01
      0.8535464135D+02  0.2937850001D+00
      0.3103503524D+02  0.6740160450D+00
 Atom O8       Shell    83 S   2     bf  237 -   237          1.465830295794          3.848174535189          0.749673312124
      0.1226086073D+02  0.6383993703D+00
      0.4998707601D+01  0.3953458713D+00
 Atom O8       Shell    84 S   1     bf  238 -   238          1.465830295794          3.848174535189          0.749673312124
      0.1170310816D+01  0.1000000000D+01
 Atom O8       Shell    85 S   1     bf  239 -   239          1.465830295794          3.848174535189          0.749673312124
      0.4647474099D+00  0.1000000000D+01
 Atom O8       Shell    86 S   1     bf  240 -   240          1.465830295794          3.848174535189          0.749673312124
      0.1850453636D+00  0.1000000000D+01
 Atom O8       Shell    87 P   4     bf  241 -   243          1.465830295794          3.848174535189          0.749673312124
      0.6327495480D+02  0.1201833222D-01
      0.1462704938D+02  0.8300542179D-01
      0.4450122346D+01  0.3199174393D+00
      0.1527579965D+01  0.7071554292D+00
 Atom O8       Shell    88 P   1     bf  244 -   246          1.465830295794          3.848174535189          0.749673312124
      0.5293511794D+00  0.1000000000D+01
 Atom O8       Shell    89 P   1     bf  247 -   249          1.465830295794          3.848174535189          0.749673312124
      0.1747842127D+00  0.1000000000D+01
 Atom O8       Shell    90 D   1     bf  250 -   254          1.465830295794          3.848174535189          0.749673312124
      0.2314000000D+01  0.1000000000D+01
 Atom O8       Shell    91 D   1     bf  255 -   259          1.465830295794          3.848174535189          0.749673312124
      0.6450000000D+00  0.1000000000D+01
 Atom O8       Shell    92 F   1     bf  260 -   266          1.465830295794          3.848174535189          0.749673312124
      0.1428000000D+01  0.1000000000D+01
 Atom H9       Shell    93 S   3     bf  267 -   267          0.659763385263          5.276448902607         -0.053972838540
      0.3406134100D+02  0.2543930721D-01
      0.5123574600D+01  0.1900859489D+00
      0.1164662600D+01  0.8524411301D+00
 Atom H9       Shell    94 S   1     bf  268 -   268          0.659763385263          5.276448902607         -0.053972838540
      0.3272304100D+00  0.1000000000D+01
 Atom H9       Shell    95 S   1     bf  269 -   269          0.659763385263          5.276448902607         -0.053972838540
      0.1030724100D+00  0.1000000000D+01
 Atom H9       Shell    96 P   1     bf  270 -   272          0.659763385263          5.276448902607         -0.053972838540
      0.8000000000D+00  0.1000000000D+01
 Atom O10      Shell    97 S   6     bf  273 -   273         -2.882170689286         -0.498348476319          2.061537300074
      0.2703238263D+05  0.5722733521D-03
      0.4052387139D+04  0.4435323349D-02
      0.9223272271D+03  0.2302010771D-01
      0.2612407099D+03  0.9282249067D-01
      0.8535464135D+02  0.2937850001D+00
      0.3103503524D+02  0.6740160450D+00
 Atom O10      Shell    98 S   2     bf  274 -   274         -2.882170689286         -0.498348476319          2.061537300074
      0.1226086073D+02  0.6383993703D+00
      0.4998707601D+01  0.3953458713D+00
 Atom O10      Shell    99 S   1     bf  275 -   275         -2.882170689286         -0.498348476319          2.061537300074
      0.1170310816D+01  0.1000000000D+01
 Atom O10      Shell   100 S   1     bf  276 -   276         -2.882170689286         -0.498348476319          2.061537300074
      0.4647474099D+00  0.1000000000D+01
 Atom O10      Shell   101 S   1     bf  277 -   277         -2.882170689286         -0.498348476319          2.061537300074
      0.1850453636D+00  0.1000000000D+01
 Atom O10      Shell   102 P   4     bf  278 -   280         -2.882170689286         -0.498348476319          2.061537300074
      0.6327495480D+02  0.1201833222D-01
      0.1462704938D+02  0.8300542179D-01
      0.4450122346D+01  0.3199174393D+00
      0.1527579965D+01  0.7071554292D+00
 Atom O10      Shell   103 P   1     bf  281 -   283         -2.882170689286         -0.498348476319          2.061537300074
      0.5293511794D+00  0.1000000000D+01
 Atom O10      Shell   104 P   1     bf  284 -   286         -2.882170689286         -0.498348476319          2.061537300074
      0.1747842127D+00  0.1000000000D+01
 Atom O10      Shell   105 D   1     bf  287 -   291         -2.882170689286         -0.498348476319          2.061537300074
      0.2314000000D+01  0.1000000000D+01
 Atom O10      Shell   106 D   1     bf  292 -   296         -2.882170689286         -0.498348476319          2.061537300074
      0.6450000000D+00  0.1000000000D+01
 Atom O10      Shell   107 F   1     bf  297 -   303         -2.882170689286         -0.498348476319          2.061537300074
      0.1428000000D+01  0.1000000000D+01
 Atom O11      Shell   108 S   6     bf  304 -   304         -2.696294468425          0.564744747608         -2.263923617878
      0.2703238263D+05  0.5722733521D-03
      0.4052387139D+04  0.4435323349D-02
      0.9223272271D+03  0.2302010771D-01
      0.2612407099D+03  0.9282249067D-01
      0.8535464135D+02  0.2937850001D+00
      0.3103503524D+02  0.6740160450D+00
 Atom O11      Shell   109 S   2     bf  305 -   305         -2.696294468425          0.564744747608         -2.263923617878
      0.1226086073D+02  0.6383993703D+00
      0.4998707601D+01  0.3953458713D+00
 Atom O11      Shell   110 S   1     bf  306 -   306         -2.696294468425          0.564744747608         -2.263923617878
      0.1170310816D+01  0.1000000000D+01
 Atom O11      Shell   111 S   1     bf  307 -   307         -2.696294468425          0.564744747608         -2.263923617878
      0.4647474099D+00  0.1000000000D+01
 Atom O11      Shell   112 S   1     bf  308 -   308         -2.696294468425          0.564744747608         -2.263923617878
      0.1850453636D+00  0.1000000000D+01
 Atom O11      Shell   113 P   4     bf  309 -   311         -2.696294468425          0.564744747608         -2.263923617878
      0.6327495480D+02  0.1201833222D-01
      0.1462704938D+02  0.8300542179D-01
      0.4450122346D+01  0.3199174393D+00
      0.1527579965D+01  0.7071554292D+00
 Atom O11      Shell   114 P   1     bf  312 -   314         -2.696294468425          0.564744747608         -2.263923617878
      0.5293511794D+00  0.1000000000D+01
 Atom O11      Shell   115 P   1     bf  315 -   317         -2.696294468425          0.564744747608         -2.263923617878
      0.1747842127D+00  0.1000000000D+01
 Atom O11      Shell   116 D   1     bf  318 -   322         -2.696294468425          0.564744747608         -2.263923617878
      0.2314000000D+01  0.1000000000D+01
 Atom O11      Shell   117 D   1     bf  323 -   327         -2.696294468425          0.564744747608         -2.263923617878
      0.6450000000D+00  0.1000000000D+01
 Atom O11      Shell   118 F   1     bf  328 -   334         -2.696294468425          0.564744747608         -2.263923617878
      0.1428000000D+01  0.1000000000D+01
 Atom S12      Shell   119 S   7     bf  335 -   335         -4.623935169914          0.032007341966         -0.181900523999
      0.6070092810D+05  0.5238007490D-03
      0.9102610685D+04  0.4050632678D-02
      0.2071416601D+04  0.2082700417D-01
      0.5860247682D+03  0.8149685034D-01
      0.1905539502D+03  0.2374911384D+00
      0.6763038426D+02  0.4472617151D+00
      0.2512730691D+02  0.3489191844D+00
 Atom S12      Shell   120 S   3     bf  336 -   336         -4.623935169914          0.032007341966         -0.181900523999
      0.1125746301D+03  0.1004556989D+00
      0.3479555422D+02  0.4339117295D+00
      0.6511555622D+01 -0.1208433059D+01
 Atom S12      Shell   121 S   2     bf  337 -   337         -4.623935169914          0.032007341966         -0.181900523999
      0.3239903226D+01  0.6749812942D+00
      0.1547716088D+01  0.3470879576D+00
 Atom S12      Shell   122 S   1     bf  338 -   338         -4.623935169914          0.032007341966         -0.181900523999
      0.4054103011D+00  0.1000000000D+01
 Atom S12      Shell   123 S   1     bf  339 -   339         -4.623935169914          0.032007341966         -0.181900523999
      0.1455065106D+00  0.1000000000D+01
 Atom S12      Shell   124 P   5     bf  340 -   342         -4.623935169914          0.032007341966         -0.181900523999
      0.5643671603D+03  0.3488692363D-02
      0.1334262438D+03  0.2768512678D-01
      0.4246827119D+02  0.1265940018D+00
      0.1561652758D+02  0.3616592567D+00
      0.6109398847D+01  0.6122203444D+00
 Atom S12      Shell   125 P   1     bf  343 -   345         -4.623935169914          0.032007341966         -0.181900523999
      0.2440416020D+01  0.1000000000D+01
 Atom S12      Shell   126 P   1     bf  346 -   348         -4.623935169914          0.032007341966         -0.181900523999
      0.8388220130D+00  0.1000000000D+01
 Atom S12      Shell   127 P   1     bf  349 -   351         -4.623935169914          0.032007341966         -0.181900523999
      0.3128874690D+00  0.1000000000D+01
 Atom S12      Shell   128 P   1     bf  352 -   354         -4.623935169914          0.032007341966         -0.181900523999
      0.1077010900D+00  0.1000000000D+01
 Atom S12      Shell   129 D   2     bf  355 -   359         -4.623935169914          0.032007341966         -0.181900523999
      0.3756000000D+01  0.1828519746D+00
      0.8120000000D+00  0.9142598730D+00
 Atom S12      Shell   130 D   1     bf  360 -   364         -4.623935169914          0.032007341966         -0.181900523999
      0.2730000000D+00  0.1000000000D+01
 Atom S12      Shell   131 F   1     bf  365 -   371         -4.623935169914          0.032007341966         -0.181900523999
      0.5570000000D+00  0.1000000000D+01
 Atom O13      Shell   132 S   6     bf  372 -   372         -6.117179111963         -2.208038473262         -0.795249920702
      0.2703238263D+05  0.5722733521D-03
      0.4052387139D+04  0.4435323349D-02
      0.9223272271D+03  0.2302010771D-01
      0.2612407099D+03  0.9282249067D-01
      0.8535464135D+02  0.2937850001D+00
      0.3103503524D+02  0.6740160450D+00
 Atom O13      Shell   133 S   2     bf  373 -   373         -6.117179111963         -2.208038473262         -0.795249920702
      0.1226086073D+02  0.6383993703D+00
      0.4998707601D+01  0.3953458713D+00
 Atom O13      Shell   134 S   1     bf  374 -   374         -6.117179111963         -2.208038473262         -0.795249920702
      0.1170310816D+01  0.1000000000D+01
 Atom O13      Shell   135 S   1     bf  375 -   375         -6.117179111963         -2.208038473262         -0.795249920702
      0.4647474099D+00  0.1000000000D+01
 Atom O13      Shell   136 S   1     bf  376 -   376         -6.117179111963         -2.208038473262         -0.795249920702
      0.1850453636D+00  0.1000000000D+01
 Atom O13      Shell   137 P   4     bf  377 -   379         -6.117179111963         -2.208038473262         -0.795249920702
      0.6327495480D+02  0.1201833222D-01
      0.1462704938D+02  0.8300542179D-01
      0.4450122346D+01  0.3199174393D+00
      0.1527579965D+01  0.7071554292D+00
 Atom O13      Shell   138 P   1     bf  380 -   382         -6.117179111963         -2.208038473262         -0.795249920702
      0.5293511794D+00  0.1000000000D+01
 Atom O13      Shell   139 P   1     bf  383 -   385         -6.117179111963         -2.208038473262         -0.795249920702
      0.1747842127D+00  0.1000000000D+01
 Atom O13      Shell   140 D   1     bf  386 -   390         -6.117179111963         -2.208038473262         -0.795249920702
      0.2314000000D+01  0.1000000000D+01
 Atom O13      Shell   141 D   1     bf  391 -   395         -6.117179111963         -2.208038473262         -0.795249920702
      0.6450000000D+00  0.1000000000D+01
 Atom O13      Shell   142 F   1     bf  396 -   402         -6.117179111963         -2.208038473262         -0.795249920702
      0.1428000000D+01  0.1000000000D+01
 Atom H14      Shell   143 S   3     bf  403 -   403          5.804643022684         -0.596765873389         -3.784928304354
      0.3406134100D+02  0.2543930721D-01
      0.5123574600D+01  0.1900859489D+00
      0.1164662600D+01  0.8524411301D+00
 Atom H14      Shell   144 S   1     bf  404 -   404          5.804643022684         -0.596765873389         -3.784928304354
      0.3272304100D+00  0.1000000000D+01
 Atom H14      Shell   145 S   1     bf  405 -   405          5.804643022684         -0.596765873389         -3.784928304354
      0.1030724100D+00  0.1000000000D+01
 Atom H14      Shell   146 P   1     bf  406 -   408          5.804643022684         -0.596765873389         -3.784928304354
      0.8000000000D+00  0.1000000000D+01
 Effective core potential in the form of general ECP input:
      1 0
 Pa1-ECP   5 60
 H component
  1
  2        1.0000000        0.00000000    0.00000000
 S-H projection
  1
  2       15.2691737      475.47573283    0.00000000
 P-H projection
  1
  2        9.9577370      207.66485962    0.00000000
 D-H projection
  1
  2        8.9431413      156.67411988    0.00000000
 F-H projection
  1
  2        7.0104666       67.98223685    0.00000000
 G-H projection
  1
  2       12.2010560      -57.63059989    0.00000000
 
 There are   476 symmetry adapted cartesian basis functions of A   symmetry.
 There are   408 symmetry adapted basis functions of A   symmetry.
   408 basis functions,   717 primitive gaussians,   476 cartesian basis functions
    58 alpha electrons       58 beta electrons
       nuclear repulsion energy      1093.5705331062 Hartrees.
 IExCor=  404 DFT=T Ex=B Corr=P86 ExCW=0 ScaHFX=  0.000000
 ScaDFX=  1.000000  1.000000  1.000000  1.000000 ScalE2=  1.000000  1.000000
 IRadAn=      5 IRanWt=     -1 IRanGd=            0 ICorTp=0 IEmpDi=  4
 NAtoms=   14 NActive=   14 NUniq=   14 SFac= 1.00D+00 NAtFMM=   60 NAOKFM=F Big=F
 Integral buffers will be    131072 words long.
 Raffenetti 2 integral format.
 Two-electron integral symmetry is turned on.
 Warning! Using old PCM defaults because the COSMOthermo output has been requested.
 These settings can be overridden by following keywords.
 ------------------------------------------------------------------------------
 Polarizable Continuum Model (PCM)
 =================================
 Model                : C-PCM.
 Atomic radii         : Klamt.
 XCosmo               : -1.000 (infinite dielectric limit)
 Polarization charges : Electronic and nuclear charges.
 Charge compensation  : Type 3 (Electronic density weighted correction).
 Solution method      : On-the-fly selection.
 Cavity type          : VdW (van der Waals Surface) (Alpha=1.000).
 Cavity algorithm     : GePol (No added spheres)
                        Default sphere list used, NSphG=   14.
                        Tesserae with average area of 0.200 Ang**2.
                        Smoothing algorithm: None.
                        Polarization charges: point-like.
                        Self-potential: constant (ISelfS= 1).
                        Self-field    : global E.n sum rule (ISelfD= 3).
 Solvent              : Water, Eps=  78.355300 Eps(inf)=   1.777849
 ------------------------------------------------------------------------------
 Spheres list:
 ISph  on   Nord     Re0    Alpha      Xe            Ye            Ze
    1  Pa      1    2.0000  1.170      0.656749     -0.051659      0.032299
    2   O      2    1.7200  1.000      0.782739     -1.840736     -0.507727
    3   O      3    1.7200  1.000     -3.264741      1.199755      0.160233
    4   O      4    1.7200  1.000      1.643310     -0.367410      1.943725
    5   H      5    1.3000  1.000      1.916260     -1.224461      2.291664
    6   O      6    1.7200  1.000      2.624879      0.353086     -1.468250
    7   H      7    1.3000  1.000      3.066461      1.196047     -1.633435
    8   O      8    1.7200  1.000      0.775684      2.036366      0.396710
    9   H      9    1.3000  1.000      0.349132      2.792177     -0.028561
   10   O     10    1.7200  1.000     -1.525179     -0.263715      1.090919
   11   O     11    1.7200  1.000     -1.426818      0.298850     -1.198017
   12   S     12    2.1600  1.000     -2.446881      0.016938     -0.096258
   13   O     13    1.7200  1.000     -3.237072     -1.168444     -0.420828
   14   H     14    1.3000  1.000      3.071685     -0.315795     -2.002898
 ------------------------------------------------------------------------------
 GePol: Number of generator spheres                  =      14
 GePol: Total number of spheres                      =      14
 GePol: Number of exposed spheres                    =      14 (100.00%)
 GePol: Number of tesserae                           =    1323
 GePol: Average area of tesserae                     =       0.15 Ang**2
 GePol: Minimum area of tessera                      =   0.10D-02 Ang**2
 GePol: Maximum area of tessera                      =    0.35817 Ang**2
 GePol: Number of small tesserae                     =       7
 GePol: Fraction of small tesserae (<1% of avg)      =       0.53%
 GePol: Total count of vertices                      =    4405
 GePol: Maximum number of vertices in a tessera      =       6
 GePol: Cavity surface area                          =    199.832 Ang**2
 GePol: Cavity volume                                =    172.565 Ang**3
 DisRep: Neglecting contributions from atom    1 of solute.
 Leave Link  301 at Thu Nov 23 15:38:18 2023, MaxMem=  2147483648 cpu:               5.9 elap:               5.8
 (Enter /home/pcmt/gaussian/g16.C.01/g16/l302.exe)
 NPDir=0 NMtPBC=     1 NCelOv=     1 NCel=       1 NClECP=     1 NCelD=      1
         NCelK=      1 NCelE2=     1 NClLst=     1 CellRange=     0.0.
 One-electron integrals computed using PRISM.
 One-electron integral symmetry used in STVInt
   1 Symmetry operations used in ECPInt.
 ECPInt:  NShTT=   10731 NPrTT=   33418 LenC2=    9790 LenP2D=   22103.
 LDataN:  DoStor=T MaxTD1= 9 Len=  602
 NBasis=   408 RedAO= T EigKep=  5.92D-04  NBF=   408
 NBsUse=   408 1.00D-06 EigRej= -1.00D+00 NBFU=   408
 Precomputing XC quadrature grid using
 IXCGrd= 4 IRadAn=           5 IRanWt=          -1 IRanGd=           0 AccXCQ= 0.00D+00.
 Defaulting to unpruned grid for atomic number  91.
 Generated NRdTot=       0 NPtTot=           0 NUsed=           0 NTot=          32
 NSgBfM=   467   467   467   467   467 MxSgAt=    14 MxSgA2=    14.
 Leave Link  302 at Thu Nov 23 15:38:24 2023, MaxMem=  2147483648 cpu:              14.7 elap:               6.7
 (Enter /home/pcmt/gaussian/g16.C.01/g16/l303.exe)
 DipDrv:  MaxL=1.
 Leave Link  303 at Thu Nov 23 15:38:28 2023, MaxMem=  2147483648 cpu:               4.5 elap:               3.4
 (Enter /home/pcmt/gaussian/g16.C.01/g16/l401.exe)
 ExpMin= 2.32D-02 ExpMax= 6.07D+04 ExpMxC= 1.20D+04 IAcc=3 IRadAn=         5 AccDes= 0.00D+00
 Harris functional with IExCor=  404 and IRadAn=       5 diagonalized for initial guess.
 HarFok:  IExCor=  404 AccDes= 0.00D+00 IRadAn=         5 IDoV= 1 UseB2=F ITyADJ=14
 ICtDFT=  3500011 ScaDFX=  1.000000  1.000000  1.000000  1.000000
 Defaulting to unpruned grid for atomic number  91.
 FoFCou: FMM=F IPFlag=           0 FMFlag=      100000 FMFlg1=           0
         NFxFlg=           0 DoJE=T BraDBF=F KetDBF=T FulRan=T
         wScrn=  0.000000 ICntrl=       500 IOpCl=  0 I1Cent=   200000004 NGrid=           0
         NMat0=    1 NMatS0=      1 NMatT0=    0 NMatD0=    1 NMtDS0=    0 NMtDT0=    0
 Petite list used in FoFCou.
 Harris En= -1446.39304287077    
 JPrj=0 DoOrth=F DoCkMO=F.
 Leave Link  401 at Thu Nov 23 15:38:37 2023, MaxMem=  2147483648 cpu:              33.9 elap:               9.5
 (Enter /home/pcmt/gaussian/g16.C.01/g16/l502.exe)
 Integral symmetry usage will be decided dynamically.
 Closed shell SCF:
 Using DIIS extrapolation, IDIIS=  1040.
 NGot=  2147483648 LenX=  2147022356 LenY=  2146795304
 Requested convergence on RMS density matrix=1.00D-08 within 100 cycles.
 Requested convergence on MAX density matrix=1.00D-06.
 Requested convergence on             energy=1.00D-06.
 No special actions if energy rises.
 Fock matrices will be formed incrementally for  20 cycles.

 Cycle   1  Pass 1  IDiag  1:
 FoFJK:  IHMeth= 1 ICntrl=     500 DoSepK=F KAlg= 0 I1Cent=           0 FoldK=F
 IRaf= 860000000 NMat=       1 IRICut=       1 DoRegI=T DoRafI=F ISym2E= 0 IDoP0=0 IntGTp=1.
 FoFCou: FMM=F IPFlag=           0 FMFlag=      100000 FMFlg1=           0
         NFxFlg=           0 DoJE=T BraDBF=F KetDBF=F FulRan=T
         wScrn=  0.000000 ICntrl=       500 IOpCl=  0 I1Cent=           0 NGrid=           0
         NMat0=    1 NMatS0=      1 NMatT0=    0 NMatD0=    1 NMtDS0=    0 NMtDT0=    0
 Symmetry not used in FoFCou.
 Defaulting to unpruned grid for atomic number  91.
 Defaulting to unpruned grid for atomic number  91.
 Defaulting to unpruned grid for atomic number  91.
 Defaulting to unpruned grid for atomic number  91.
 Defaulting to unpruned grid for atomic number  91.
 Defaulting to unpruned grid for atomic number  91.
 Defaulting to unpruned grid for atomic number  91.
 Defaulting to unpruned grid for atomic number  91.
 Inv3:  Mode=1 IEnd=     5250987.
 Iteration    1 A*A^-1 deviation from unit magnitude is 5.77D-15 for   1319.
 Iteration    1 A*A^-1 deviation from orthogonality  is 2.87D-15 for   1316    265.
 Iteration    1 A^-1*A deviation from unit magnitude is 5.77D-15 for   1319.
 Iteration    1 A^-1*A deviation from orthogonality  is 1.50D-15 for   1322   1306.
 E= -1443.58308595787    
 DIIS: error= 3.46D-02 at cycle   1 NSaved=   1.
 NSaved= 1 IEnMin= 1 EnMin= -1443.58308595787     IErMin= 1 ErrMin= 3.46D-02
 ErrMax= 3.46D-02  0.00D+00 EMaxC= 1.00D-01 BMatC= 1.93D+00 BMatP= 1.93D+00
 IDIUse=3 WtCom= 6.54D-01 WtEn= 3.46D-01
 Coeff-Com:  0.100D+01
 Coeff-En:   0.100D+01
 Coeff:      0.100D+01
 Gap=     0.058 Goal=   None    Shift=    0.000
 GapD=    0.058 DampG=0.500 DampE=0.250 DampFc=0.1250 IDamp=-1.
 Damping current iteration by 1.25D-01
 RMSDP=9.75D-03 MaxDP=1.19D+00              OVMax= 9.97D-01

 Cycle   2  Pass 1  IDiag  1:
 RMSU=  1.20D-03    CP:  1.01D+00
 E= -1443.69672347075     Delta-E=       -0.113637512873 Rises=F Damp=T
 DIIS: error= 1.67D-02 at cycle   2 NSaved=   2.
 NSaved= 2 IEnMin= 2 EnMin= -1443.69672347075     IErMin= 2 ErrMin= 1.67D-02
 ErrMax= 1.67D-02  0.00D+00 EMaxC= 1.00D-01 BMatC= 3.55D-01 BMatP= 1.93D+00
 IDIUse=3 WtCom= 8.33D-01 WtEn= 1.67D-01
 Coeff-Com: -0.126D+00 0.113D+01
 Coeff-En:   0.451D+00 0.549D+00
 Coeff:     -0.299D-01 0.103D+01
 Gap=     0.014 Goal=   None    Shift=    0.000
 RMSDP=5.20D-03 MaxDP=4.28D-01 DE=-1.14D-01 OVMax= 9.19D-01

 Cycle   3  Pass 1  IDiag  1:
 RMSU=  5.18D-03    CP:  9.98D-01  6.65D-01
 E= -1443.33163048173     Delta-E=        0.365092989014 Rises=F Damp=F
 DIIS: error= 4.35D-02 at cycle   3 NSaved=   3.
 NSaved= 3 IEnMin= 2 EnMin= -1443.69672347075     IErMin= 2 ErrMin= 1.67D-02
 ErrMax= 4.35D-02  0.00D+00 EMaxC= 1.00D-01 BMatC= 1.85D+00 BMatP= 3.55D-01
 IDIUse=2 WtCom= 0.00D+00 WtEn= 1.00D+00
 EnCoef did     2 forward-backward iterations
 Coeff-En:   0.215D+00 0.435D+00 0.350D+00
 Coeff:      0.215D+00 0.435D+00 0.350D+00
 Gap=     0.173 Goal=   None    Shift=    0.000
 RMSDP=7.41D-03 MaxDP=6.22D-01 DE= 3.65D-01 OVMax= 8.14D-01

 Cycle   4  Pass 1  IDiag  1:
 RMSU=  3.11D-03    CP:  1.05D+00  3.00D+00 -1.60D-02
 E= -1420.24823781624     Delta-E=       23.083392665491 Rises=F Damp=F
 DIIS: error= 3.47D-01 at cycle   4 NSaved=   4.
 NSaved= 4 IEnMin= 2 EnMin= -1443.69672347075     IErMin= 2 ErrMin= 1.67D-02
 ErrMax= 3.47D-01  0.00D+00 EMaxC= 1.00D-01 BMatC= 4.72D+01 BMatP= 3.55D-01
 IDIUse=2 WtCom= 0.00D+00 WtEn= 1.00D+00
 EnCoef did   100 forward-backward iterations
 Coeff-En:   0.519D+00 0.165D-01 0.359D+00 0.105D+00
 Coeff:      0.519D+00 0.165D-01 0.359D+00 0.105D+00
 Gap=     0.035 Goal=   None    Shift=    0.000
 RMSDP=3.63D-03 MaxDP=2.59D-01 DE= 2.31D+01 OVMax= 9.15D-01

 Cycle   5  Pass 1  IDiag  1:
 RMSU=  2.00D-03    CP:  1.06D+00  2.39D+00  8.52D-02  2.09D-01
 E= -1444.19161191253     Delta-E=      -23.943374096293 Rises=F Damp=F
 DIIS: error= 4.84D-02 at cycle   5 NSaved=   5.
 NSaved= 5 IEnMin= 5 EnMin= -1444.19161191253     IErMin= 2 ErrMin= 1.67D-02
 ErrMax= 4.84D-02  0.00D+00 EMaxC= 1.00D-01 BMatC= 1.16D+00 BMatP= 3.55D-01
 IDIUse=2 WtCom= 0.00D+00 WtEn= 1.00D+00
 EnCoef did     2 forward-backward iterations
 Coeff-En:   0.358D+00 0.000D+00 0.589D-01 0.000D+00 0.583D+00
 Coeff:      0.358D+00 0.000D+00 0.589D-01 0.000D+00 0.583D+00
 Gap=     0.203 Goal=   None    Shift=    0.000
 RMSDP=2.06D-03 MaxDP=1.90D-01 DE=-2.39D+01 OVMax= 3.05D-01

 Cycle   6  Pass 1  IDiag  1:
 RMSU=  1.20D-03    CP:  1.04D+00  1.36D+00  1.73D-01  4.02D-02  5.78D-01
 E= -1444.56858703520     Delta-E=       -0.376975122665 Rises=F Damp=F
 DIIS: error= 1.96D-02 at cycle   6 NSaved=   6.
 NSaved= 6 IEnMin= 6 EnMin= -1444.56858703520     IErMin= 2 ErrMin= 1.67D-02
 ErrMax= 1.96D-02  0.00D+00 EMaxC= 1.00D-01 BMatC= 3.98D-01 BMatP= 3.55D-01
 IDIUse=2 WtCom= 0.00D+00 WtEn= 1.00D+00
 Coeff-En:   0.000D+00 0.000D+00 0.000D+00 0.000D+00 0.371D+00 0.629D+00
 Coeff:      0.000D+00 0.000D+00 0.000D+00 0.000D+00 0.371D+00 0.629D+00
 Gap=     0.231 Goal=   None    Shift=    0.000
 RMSDP=1.41D-03 MaxDP=1.23D-01 DE=-3.77D-01 OVMax= 1.65D-01

 Cycle   7  Pass 1  IDiag  1:
 RMSU=  7.39D-04    CP:  1.05D+00  1.57D+00  7.24D-02  1.25D-01  7.39D-01
                    CP:  1.99D-01
 E= -1444.70728377851     Delta-E=       -0.138696743307 Rises=F Damp=F
 DIIS: error= 2.02D-02 at cycle   7 NSaved=   7.
 NSaved= 7 IEnMin= 7 EnMin= -1444.70728377851     IErMin= 2 ErrMin= 1.67D-02
 ErrMax= 2.02D-02  0.00D+00 EMaxC= 1.00D-01 BMatC= 2.70D-01 BMatP= 3.55D-01
 IDIUse=3 WtCom= 7.98D-01 WtEn= 2.02D-01
 EnCoef did     5 forward-backward iterations
 Coeff-Com: -0.147D+00 0.193D+00 0.969D-02-0.814D-02 0.138D+00 0.429D+00
 Coeff-Com:  0.385D+00
 Coeff-En:   0.000D+00 0.000D+00 0.000D+00 0.000D+00 0.223D+00 0.395D+00
 Coeff-En:   0.382D+00
 Coeff:     -0.117D+00 0.154D+00 0.773D-02-0.649D-02 0.155D+00 0.422D+00
 Coeff:      0.384D+00
 Gap=     0.155 Goal=   None    Shift=    0.000
 RMSDP=6.76D-04 MaxDP=7.88D-02 DE=-1.39D-01 OVMax= 5.98D-02

 Cycle   8  Pass 1  IDiag  1:
 RMSU=  2.03D-04    CP:  1.05D+00  1.70D+00  1.11D-01  1.04D-01  7.58D-01
                    CP:  5.10D-01  3.83D-01
 E= -1444.87293606624     Delta-E=       -0.165652287733 Rises=F Damp=F
 DIIS: error= 4.59D-03 at cycle   8 NSaved=   8.
 NSaved= 8 IEnMin= 8 EnMin= -1444.87293606624     IErMin= 8 ErrMin= 4.59D-03
 ErrMax= 4.59D-03  0.00D+00 EMaxC= 1.00D-01 BMatC= 1.59D-02 BMatP= 2.70D-01
 IDIUse=3 WtCom= 9.54D-01 WtEn= 4.59D-02
 Coeff-Com: -0.107D+00 0.116D+00-0.224D-02-0.294D-02 0.825D-01 0.242D+00
 Coeff-Com:  0.256D+00 0.416D+00
 Coeff-En:   0.000D+00 0.000D+00 0.000D+00 0.000D+00 0.198D-01 0.000D+00
 Coeff-En:   0.000D+00 0.980D+00
 Coeff:     -0.102D+00 0.110D+00-0.214D-02-0.280D-02 0.796D-01 0.231D+00
 Coeff:      0.244D+00 0.441D+00
 Gap=     0.140 Goal=   None    Shift=    0.000
 RMSDP=1.71D-04 MaxDP=1.20D-02 DE=-1.66D-01 OVMax= 1.96D-02

 Cycle   9  Pass 1  IDiag  1:
 RMSU=  1.26D-04    CP:  1.05D+00  1.74D+00  1.08D-01  1.10D-01  7.78D-01
                    CP:  4.93D-01  4.69D-01  7.16D-01
 E= -1444.88030453553     Delta-E=       -0.007368469292 Rises=F Damp=F
 DIIS: error= 2.70D-03 at cycle   9 NSaved=   9.
 NSaved= 9 IEnMin= 9 EnMin= -1444.88030453553     IErMin= 9 ErrMin= 2.70D-03
 ErrMax= 2.70D-03  0.00D+00 EMaxC= 1.00D-01 BMatC= 5.95D-03 BMatP= 1.59D-02
 IDIUse=3 WtCom= 9.73D-01 WtEn= 2.70D-02
 Coeff-Com: -0.299D-01 0.223D-01-0.164D-01 0.903D-04 0.426D-01 0.269D-01
 Coeff-Com:  0.357D-01 0.309D+00 0.610D+00
 Coeff-En:   0.000D+00 0.000D+00 0.000D+00 0.000D+00 0.000D+00 0.000D+00
 Coeff-En:   0.000D+00 0.000D+00 0.100D+01
 Coeff:     -0.291D-01 0.217D-01-0.160D-01 0.878D-04 0.414D-01 0.262D-01
 Coeff:      0.347D-01 0.301D+00 0.620D+00
 Gap=     0.129 Goal=   None    Shift=    0.000
 RMSDP=1.76D-04 MaxDP=1.77D-02 DE=-7.37D-03 OVMax= 1.65D-02

 Cycle  10  Pass 1  IDiag  1:
 RMSU=  1.01D-04    CP:  1.05D+00  1.83D+00  1.04D-01  1.20D-01  8.14D-01
                    CP:  4.83D-01  4.75D-01  9.81D-01  1.13D+00
 E= -1444.88551401332     Delta-E=       -0.005209477792 Rises=F Damp=F
 DIIS: error= 8.68D-04 at cycle  10 NSaved=  10.
 NSaved=10 IEnMin=10 EnMin= -1444.88551401332     IErMin=10 ErrMin= 8.68D-04
 ErrMax= 8.68D-04  0.00D+00 EMaxC= 1.00D-01 BMatC= 4.67D-04 BMatP= 5.95D-03
 IDIUse=3 WtCom= 9.91D-01 WtEn= 8.68D-03
 Coeff-Com:  0.241D-01-0.217D-01-0.295D-02 0.885D-03-0.218D-02-0.732D-01
 Coeff-Com: -0.730D-01 0.160D-01 0.311D+00 0.821D+00
 Coeff-En:   0.000D+00 0.000D+00 0.000D+00 0.000D+00 0.000D+00 0.000D+00
 Coeff-En:   0.000D+00 0.000D+00 0.000D+00 0.100D+01
 Coeff:      0.239D-01-0.215D-01-0.292D-02 0.877D-03-0.216D-02-0.726D-01
 Coeff:     -0.724D-01 0.159D-01 0.309D+00 0.822D+00
 Gap=     0.122 Goal=   None    Shift=    0.000
 RMSDP=1.70D-04 MaxDP=1.39D-02 DE=-5.21D-03 OVMax= 2.37D-02

 Cycle  11  Pass 1  IDiag  1:
 RMSU=  6.54D-05    CP:  1.05D+00  1.88D+00  1.02D-01  1.24D-01  8.33D-01
                    CP:  4.76D-01  5.01D-01  1.27D+00  1.86D+00  1.78D+00
 E= -1444.88549622470     Delta-E=        0.000017788618 Rises=F Damp=F
 DIIS: error= 2.03D-03 at cycle  11 NSaved=  11.
[...]
  99         V                 0.360882          1.803800
 100         V                 0.388506          1.655082
 101         V                 0.404740          1.444604
 102         V                 0.408725          1.617310
 103         V                 0.413011          1.840821
 104         V                 0.422225          1.613497
 105         V                 0.432056          2.043597
 106         V                 0.442796          2.161815
 107         V                 0.447452          2.051122
 108         V                 0.450668          1.539148
 109         V                 0.457199          1.589149
 110         V                 0.470055          1.646623
 111         V                 0.485172          1.776886
 112         V                 0.499190          1.559543
 113         V                 0.512957          2.105538
 114         V                 0.517411          1.652570
 115         V                 0.525508          1.446326
 116         V                 0.532728          1.823304
 117         V                 0.548380          1.765616
 118         V                 0.556082          1.585881
 119         V                 0.572228          1.857883
 120         V                 0.581676          1.816670
 121         V                 0.592428          3.422698
 122         V                 0.596239          2.094536
 123         V                 0.609786          1.767923
 124         V                 0.620740          1.818537
 125         V                 0.628456          1.518387
 126         V                 0.650741          1.650177
 127         V                 0.666948          1.693824
 128         V                 0.680920          2.201938
 129         V                 0.692694          1.821999
 130         V                 0.700351          2.361521
 131         V                 0.711346          1.528054
 132         V                 0.736396          1.812095
 133         V                 0.742025          1.698480
 134         V                 0.753091          2.350686
 135         V                 0.767517          1.909799
 136         V                 0.816849          2.498293
 137         V                 0.839793          2.642946
 138         V                 0.862224          2.300375
 139         V                 0.864500          2.160073
 140         V                 0.896394          2.212645
 141         V                 0.908428          2.341798
 142         V                 0.929852          2.276500
 143         V                 0.940165          2.606610
 144         V                 1.006703          2.504293
 145         V                 1.035198          3.056223
 146         V                 1.064491          2.640011
 147         V                 1.079671          2.571752
 148         V                 1.086039          2.576217
 149         V                 1.098380          2.809774
 150         V                 1.124091          2.602659
 151         V                 1.126946          2.749549
 152         V                 1.140551          2.771697
 153         V                 1.149229          2.595871
 154         V                 1.164805          3.027959
 155         V                 1.170625          3.153174
 156         V                 1.186490          3.107197
 157         V                 1.193656          2.591472
 158         V                 1.201501          2.761460
 159         V                 1.210542          2.734636
 160         V                 1.249561          3.292844
 161         V                 1.269987          3.091416
 162         V                 1.280114          3.214493
 163         V                 1.296046          2.843883
 164         V                 1.303469          2.659500
 165         V                 1.311042          2.683308
 166         V                 1.328822          3.016184
 167         V                 1.334635          2.459946
 168         V                 1.369684          2.624262
 169         V                 1.376449          3.081825
 170         V                 1.411569          3.416290
 171         V                 1.425021          3.294488
 172         V                 1.453628          3.083805
 173         V                 1.467968          2.811863
 174         V                 1.473378          2.934627
 175         V                 1.490772          2.662676
 176         V                 1.501258          2.999581
 177         V                 1.516442          3.032058
 178         V                 1.542282          2.981016
 179         V                 1.552280          3.380125
 180         V                 1.567111          3.497504
 181         V                 1.580270          3.554179
 182         V                 1.586276          3.514128
 183         V                 1.595235          3.428528
 184         V                 1.600815          3.534320
 185         V                 1.609512          2.976856
 186         V                 1.632455          3.507510
 187         V                 1.646884          3.353979
 188         V                 1.672869          3.097786
 189         V                 1.676963          3.081018
 190         V                 1.697115          3.027677
 191         V                 1.707781          3.291638
 192         V                 1.721893          3.137125
 193         V                 1.754202          3.231771
 194         V                 1.768336          3.441998
 195         V                 1.774313          3.123856
 196         V                 1.790305          3.492662
 197         V                 1.834349          3.566308
 198         V                 1.853939          3.255126
 199         V                 1.862101          3.381735
 200         V                 1.891026          3.548974
 201         V                 1.911277          3.474171
 202         V                 1.929720          3.776558
 203         V                 1.947046          3.795823
 204         V                 1.989610          3.859564
 205         V                 2.005167          3.543814
 206         V                 2.007621          3.541148
 207         V                 2.027057          2.941855
 208         V                 2.032104          3.727786
 209         V                 2.048486          3.974119
 210         V                 2.059680          3.963055
 211         V                 2.077260          3.772582
 212         V                 2.092452          3.895233
 213         V                 2.101651          3.548030
 214         V                 2.108545          3.946917
 215         V                 2.115552          3.824813
 216         V                 2.141777          3.832449
 217         V                 2.162387          3.871745
 218         V                 2.200177          4.136379
 219         V                 2.235296          4.272166
 220         V                 2.244991          4.452766
 221         V                 2.259872          4.356294
 222         V                 2.268626          4.359496
 223         V                 2.291552          4.281880
 224         V                 2.316776          5.059111
 225         V                 2.340134          4.942134
 226         V                 2.349711          4.757189
 227         V                 2.356502          4.967602
 228         V                 2.364232          4.992651
 229         V                 2.395973          5.338739
 230         V                 2.402340          5.216951
 231         V                 2.421479          5.406289
 232         V                 2.425965          4.465204
 233         V                 2.466920          4.224351
 234         V                 2.476843          4.975333
 235         V                 2.501921          4.736666
 236         V                 2.534449          6.550962
 237         V                 2.538890          4.662278
 238         V                 2.604929          4.977357
 239         V                 2.614514          6.043938
 240         V                 2.623797          6.676923
 241         V                 2.636531          6.332308
 242         V                 2.658983          5.887693
 243         V                 2.691406          5.674442
 244         V                 2.760481          6.028564
 245         V                 2.775949          5.737848
 246         V                 2.785229          6.572501
 247         V                 2.811185          6.817334
 248         V                 2.838279          6.773339
 249         V                 2.866235          7.127864
 250         V                 2.895671          6.733996
 251         V                 2.901498          6.483141
 252         V                 2.935713          7.109598
 253         V                 2.956174          6.539789
 254         V                 2.976385          6.997037
 255         V                 2.998097          6.876659
 256         V                 3.009546          7.010055
 257         V                 3.043627          7.061975
 258         V                 3.076961          7.613479
 259         V                 3.135283          7.891216
 260         V                 3.169051          7.620175
 261         V                 3.202122          7.622872
 262         V                 3.344786          8.211945
 263         V                 3.407889          8.903111
 264         V                 3.546276          6.269753
 265         V                 3.587216          8.440036
 266         V                 3.701258          6.830246
 267         V                 3.713734          7.844248
 268         V                 3.739332          7.886195
 269         V                 3.761407          9.331552
 270         V                 3.765918          7.980922
 271         V                 3.859832          9.449692
 272         V                 3.872877          8.391971
 273         V                 3.881082          8.429924
 274         V                 3.932815          8.999295
 275         V                 3.947804          9.177546
 276         V                 3.964880          8.614596
 277         V                 4.089854          9.624035
 278         V                 4.131010          9.622568
 279         V                 4.296837          9.158745
 280         V                 4.962077          6.511565
 281         V                 4.971990          6.443309
 282         V                 4.973253          6.442571
 283         V                 4.988515          6.483695
 284         V                 5.013827          6.475699
 285         V                 5.018058          6.488566
 286         V                 5.021022          6.467549
 287         V                 5.027626          6.468978
 288         V                 5.030949          6.462883
 289         V                 5.032305          6.457602
 290         V                 5.033233          6.515566
 291         V                 5.035795          6.483253
 292         V                 5.042862          6.588245
 293         V                 5.047032          6.490279
 294         V                 5.047907          6.472511
 295         V                 5.055493          6.592324
 296         V                 5.058838          6.688008
 297         V                 5.066268          6.594332
 298         V                 5.070215          6.576953
 299         V                 5.074409          6.755508
 300         V                 5.091338          6.803678
 301         V                 5.096682          6.807960
 302         V                 5.109602          6.749918
 303         V                 5.115219          6.943836
 304         V                 5.135895          6.708691
 305         V                 5.145164          6.823114
 306         V                 5.151106          6.895184
 307         V                 5.160599          6.800860
 308         V                 5.179009          6.932645
 309         V                 5.191625          6.984610
 310         V                 5.207913          6.974479
 311         V                 5.224716          7.151668
 312         V                 5.228291          6.952150
 313         V                 5.232747          7.018338
 314         V                 5.241449          6.927258
 315         V                 5.246834          7.059518
 316         V                 5.259982          7.114163
 317         V                 5.272687          7.471776
 318         V                 5.286064          7.391671
 319         V                 5.298806          7.263594
 320         V                 5.322250          6.964018
 321         V                 5.345428          7.119047
 322         V                 5.356673          7.317856
 323         V                 5.367193          7.108153
 324         V                 5.375290          7.636302
 325         V                 5.489633          7.337618
 326         V                 5.518166          7.393759
 327         V                 5.559795          7.751105
 328         V                 5.570205          8.555987
 329         V                 5.587523          7.564893
 330         V                 5.596149          8.110105
 331         V                 5.675105          7.749569
 332         V                 5.846752          8.525841
 333         V                 6.033920         11.065156
 334         V                 6.059090          9.096993
 335         V                 6.081837          9.083643
 336         V                 6.129190          9.114069
 337         V                 6.153336          9.313762
 338         V                 6.168501          9.318428
 339         V                 6.189045          9.275560
 340         V                 6.193194          9.348065
 341         V                 6.199505          9.372129
 342         V                 6.206001          9.486861
 343         V                 6.210430          9.470522
 344         V                 6.228270          9.436837
 345         V                 6.246023          9.423297
 346         V                 6.266411          9.430249
 347         V                 6.276427          9.446027
 348         V                 6.287588          9.430714
 349         V                 6.366973          9.489095
 350         V                 6.393070          9.636712
 351         V                 6.408377          9.585421
 352         V                 6.426224          9.733890
 353         V                 6.448594          9.625353
 354         V                 6.457047          9.855482
 355         V                 6.475363          9.371301
 356         V                 6.519442          9.385553
 357         V                 6.531850          9.984711
 358         V                 6.551925          9.865440
 359         V                 6.581258          9.656082
 360         V                 6.596808          9.712046
 361         V                 6.609575          9.719211
 362         V                 6.621931          9.707135
 363         V                 6.637260          9.749335
 364         V                 6.694975         10.265004
 365         V                 6.711550         10.263057
 366         V                 6.755015          9.807861
 367         V                 6.776147         10.190202
 368         V                 6.793469          9.947874
 369         V                 6.796067         10.424886
 370         V                 6.800096         10.209426
 371         V                 6.805153         10.161279
 372         V                 6.845106         10.761411
 373         V                 6.870312          9.867923
 374         V                 6.873122         10.022353
 375         V                 6.922856          9.704727
 376         V                 6.993086         10.380856
 377         V                 7.264851         13.592767
 378         V                 7.382569         13.477479
 379         V                 7.486772         13.684380
 380         V                 8.217591         15.821441
 381         V                 8.225695         15.811621
 382         V                 8.345432         15.831122
 383         V                 8.642716         16.061591
 384         V                 8.988886         16.251570
 385         V                 9.191073         27.351870
 386         V                 9.364325         27.262818
 387         V                 9.404503         27.321628
 388         V                22.580414         38.970866
 389         V                29.354906         36.060075
 390         V                29.408227         36.099312
 391         V                29.492234         36.178001
 392         V                43.006398        108.352778
 393         V                43.088390        108.444810
 394         V                43.207103        108.565818
 395         V                43.238896        108.610911
 396         V                43.329900        108.702027
 397         V                43.380563        108.730152
 398         V                43.470420        108.824983
 399         V                43.553159        108.882848
 400         V                54.080594         39.952298
 401         V                70.248223         83.983702
 402         V                70.275085         84.034584
 403         V                70.331795         84.121635
 404         V               142.652314        242.473311
 405         V               142.706235        242.540613
 406         V               142.804839        242.663433
 407         V               202.594110        130.065869
 408         V               626.102029       1034.499798
 Total kinetic energy from orbitals= 1.163521537710D+03
 No NMR shielding tensors so no spin-rotation constants.
 Leave Link  601 at Thu Nov 23 15:44:50 2023, MaxMem=  2147483648 cpu:               8.3 elap:               2.0
 (Enter /home/pcmt/gaussian/g16.C.01/g16/l9999.exe)

 Test job not archived.
 1\1\GINC-U-0-6\SP\RBP86\Gen\H4O8Pa1S1(1-)\ROOT\23-Nov-2023\0\\#p BP86/
 GEN Pseudo=Read GFInput GFPrint IOP(6/7=3) Symm=(Loose) Int=(UltraFine
 ) Guess=(Harris) SCRF=(COSMORS) Scf=(NoVarAcc,MaxCycle=100,conver=8)\\
 pao_oh2_so4_h2o-bp86-cosmors-deftzvp-klamt.com SGP in PCM calculation\
 \-1,1\Pa,0,0.5280816223,-0.2219442021,-0.1929736336\O,0,0.8817358418,0
 .9890091898,-1.5774651435\O,0,3.9919072414,-1.3538557519,1.7256644982\
 O,0,-0.7941776886,1.1206267517,0.8913155224\H,0,-0.9681370019,2.038914
 3697,0.6534377749\O,0,-1.0781830212,-1.3007964526,-1.7882774861\H,0,-1
 .6248449987,-2.080104103,-1.6248615784\O,0,-0.0764556973,-1.7694883691
 ,1.1285531772\H,0,0.2815481493,-2.6509363552,1.298653891\O,0,2.4031231
 112,0.4467243145,1.2082947179\O,0,2.7309769074,-1.2658775305,-0.380694
 2206\S,0,3.5023439914,-0.4700191363,0.6707237626\O,0,4.561565326,0.316
 4267332,0.0426879745\H,0,-1.2496683066,-1.013484634,-2.6943292703\\Ver
 sion=ES64L-G16RevC.01\State=1-A\HF=-1444.8870665\RMSD=2.897e-09\Dipole
 =-6.6271695,-2.1915565,-3.0371461\Quadrupole=-15.3104334,11.2772738,4.
 0331597,6.46207,5.5376827,7.8082799\PG=C01 [X(H4O8Pa1S1)]\\@


 Human beings, who are almost unique in having the
 ability to learn from the experience of others, are
 also remarkable for their apparent disinclination to do so.
                               -- Douglas Adams,
                                Last Chance to See
 Job cpu time:       0 days  0 hours 47 minutes 11.7 seconds.
 Elapsed time:       0 days  0 hours  6 minutes 49.8 seconds.
 File lengths (MBytes):  RWF=    105 Int=      0 D2E=      0 Chk=     11 Scr=      1
 Normal termination of Gaussian 16 at Thu Nov 23 15:44:54 2023.
