 Entering Gaussian System, Link 0=/home/pcmt/gaussian/g16.C.01/g16/g16
 AtFile(1): /home/shaaban/basis.gaussian/Pa-def-TZVP
 AtFile(1): /home/shaaban/basis.gaussian/Pa-ECP60MWB
 Initial command:
 /home/pcmt/gaussian/g16.C.01/g16/l1.exe "/state/partition2/shaaban/986555.phlam-s-sakura/Gau-48203.inp" -scrdir="/state/partition2/shaaban/986555.phlam-s-sakura/"
 Entering Link 1 = /home/pcmt/gaussian/g16.C.01/g16/l1.exe PID=     48204.
  
 Copyright (c) 1988-2019, Gaussian, Inc.  All Rights Reserved.
  
 This is part of the Gaussian(R) 16 program.  It is based on
 the Gaussian(R) 09 system (copyright 2009, Gaussian, Inc.),
 the Gaussian(R) 03 system (copyright 2003, Gaussian, Inc.),
 the Gaussian(R) 98 system (copyright 1998, Gaussian, Inc.),
 the Gaussian(R) 94 system (copyright 1995, Gaussian, Inc.),
 the Gaussian 92(TM) system (copyright 1992, Gaussian, Inc.),
 the Gaussian 90(TM) system (copyright 1990, Gaussian, Inc.),
 the Gaussian 88(TM) system (copyright 1988, Gaussian, Inc.),
 the Gaussian 86(TM) system (copyright 1986, Carnegie Mellon
 University), and the Gaussian 82(TM) system (copyright 1983,
 Carnegie Mellon University). Gaussian is a federally registered
 trademark of Gaussian, Inc.
  
 This software contains proprietary and confidential information,
 including trade secrets, belonging to Gaussian, Inc.
  
 This software is provided under written license and may be
 used, copied, transmitted, or stored only in accord with that
 written license.
  
 The following legend is applicable only to US Government
 contracts under FAR:
  
                    RESTRICTED RIGHTS LEGEND
  
 Use, reproduction and disclosure by the US Government is
 subject to restrictions as set forth in subparagraphs (a)
 and (c) of the Commercial Computer Software - Restricted
 Rights clause in FAR 52.227-19.
  
 Gaussian, Inc.
 340 Quinnipiac St., Bldg. 40, Wallingford CT 06492
  
  
 ---------------------------------------------------------------
 Warning -- This program may not be used in any manner that
 competes with the business of Gaussian, Inc. or will provide
 assistance to any competitor of Gaussian, Inc.  The licensee
 of this program is prohibited from giving any competitor of
 Gaussian, Inc. access to this program.  By using this program,
 the user acknowledges that Gaussian, Inc. is engaged in the
 business of creating and licensing software in the field of
 computational chemistry and represents and warrants to the
 licensee that it is not a competitor of Gaussian, Inc. and that
 it will not use this program in any manner prohibited above.
 ---------------------------------------------------------------
  

 Cite this work as:
 Gaussian 16, Revision C.01,
 M. J. Frisch, G. W. Trucks, H. B. Schlegel, G. E. Scuseria, 
 M. A. Robb, J. R. Cheeseman, G. Scalmani, V. Barone, 
 G. A. Petersson, H. Nakatsuji, X. Li, M. Caricato, A. V. Marenich, 
 J. Bloino, B. G. Janesko, R. Gomperts, B. Mennucci, H. P. Hratchian, 
 J. V. Ortiz, A. F. Izmaylov, J. L. Sonnenberg, D. Williams-Young, 
 F. Ding, F. Lipparini, F. Egidi, J. Goings, B. Peng, A. Petrone, 
 T. Henderson, D. Ranasinghe, V. G. Zakrzewski, J. Gao, N. Rega, 
 G. Zheng, W. Liang, M. Hada, M. Ehara, K. Toyota, R. Fukuda, 
 J. Hasegawa, M. Ishida, T. Nakajima, Y. Honda, O. Kitao, H. Nakai, 
 T. Vreven, K. Throssell, J. A. Montgomery, Jr., J. E. Peralta, 
 F. Ogliaro, M. J. Bearpark, J. J. Heyd, E. N. Brothers, K. N. Kudin, 
 V. N. Staroverov, T. A. Keith, R. Kobayashi, J. Normand, 
 K. Raghavachari, A. P. Rendell, J. C. Burant, S. S. Iyengar, 
 J. Tomasi, M. Cossi, J. M. Millam, M. Klene, C. Adamo, R. Cammi, 
 J. W. Ochterski, R. L. Martin, K. Morokuma, O. Farkas, 
 J. B. Foresman, and D. J. Fox, Gaussian, Inc., Wallingford CT, 2019.
 
 ******************************************
 Gaussian 16:  ES64L-G16RevC.01  3-Jul-2019
                23-Nov-2023 
 ******************************************
 %mem=16Gb
 %NProc=8
 Will use up to    8 processors via shared memory.
 %chk=pao_oh2_so4_h2o-bp86-cosmors-deftzvp-gp.chk
 ----------------------------------------------------------------------
 #p BP86/GEN Pseudo=Read GFInput GFPrint IOP(6/7=3) Symm=(Loose) Int=(U
 ltraFine) Guess=(Harris) Scf=(NoVarAcc,MaxCycle=100,conver=8)
 ----------------------------------------------------------------------
 1/38=1,172=1/1;
 2/12=2,17=4,18=3,40=1/2;
 3/5=7,11=2,16=1,17=8,24=110,25=1,30=1,74=404,75=-5/1,2,3;
 4/11=8/1;
 5/5=2,6=8,7=100,38=1/2;
 6/7=3,8=2,9=2,10=2,28=1/1;
 99/5=1,9=1/99;
 Leave Link    1 at Thu Nov 23 15:38:05 2023, MaxMem=  2147483648 cpu:               2.1 elap:               1.9
 (Enter /home/pcmt/gaussian/g16.C.01/g16/l101.exe)
 ------------------------------------------------------------------
 pao_oh2_so4_h2o-bp86-cosmors-deftzvp-gp.com SGP in PCM calculation
 ------------------------------------------------------------------
 Symbolic Z-matrix:
 Charge = -1 Multiplicity = 1
 Pa                    0.52808  -0.22194  -0.19297 
 O                     0.88174   0.98901  -1.57747 
 O                     3.99191  -1.35386   1.72566 
 O                    -0.79418   1.12063   0.89132 
 H                    -0.96814   2.03891   0.65344 
 O                    -1.07818  -1.3008   -1.78828 
 H                    -1.62484  -2.0801   -1.62486 
 O                    -0.07646  -1.76949   1.12855 
 H                     0.28155  -2.65094   1.29865 
 O                     2.40312   0.44672   1.20829 
 O                     2.73098  -1.26588  -0.38069 
 S                     3.50234  -0.47002   0.67072 
 O                     4.56157   0.31643   0.04269 
 H                    -1.24967  -1.01348  -2.69433 
 
 ITRead=  0  0  0  0  0  0  0  0  0  0  0  0  0  0
 MicOpt= -1 -1 -1 -1 -1 -1 -1 -1 -1 -1 -1 -1 -1 -1
 NAtoms=     14 NQM=       14 NQMF=       0 NMMI=      0 NMMIF=      0
                NMic=       0 NMicF=      0.
                    Isotopes and Nuclear Properties:
 (Nuclear quadrupole moments (NQMom) in fm**2, nuclear magnetic moments (NMagM)
  in nuclear magnetons)

  Atom         1           2           3           4           5           6           7           8           9          10
 IAtWgt=         231          16          16          16           1          16           1          16           1          16
 AtmWgt= 231.0359000  15.9949146  15.9949146  15.9949146   1.0078250  15.9949146   1.0078250  15.9949146   1.0078250  15.9949146
 NucSpn=           3           0           0           0           1           0           1           0           1           0
 AtZEff=  -0.0000000  -0.0000000  -0.0000000  -0.0000000  -0.0000000  -0.0000000  -0.0000000  -0.0000000  -0.0000000  -0.0000000
 NQMom= -172.0000000   0.0000000   0.0000000   0.0000000   0.0000000   0.0000000   0.0000000   0.0000000   0.0000000   0.0000000
 NMagM=    2.0100000   0.0000000   0.0000000   0.0000000   2.7928460   0.0000000   2.7928460   0.0000000   2.7928460   0.0000000
 AtZNuc=  91.0000000   8.0000000   8.0000000   8.0000000   1.0000000   8.0000000   1.0000000   8.0000000   1.0000000   8.0000000

  Atom        11          12          13          14
 IAtWgt=          16          32          16           1
 AtmWgt=  15.9949146  31.9720718  15.9949146   1.0078250
 NucSpn=           0           0           0           1
 AtZEff=  -0.0000000  -0.0000000  -0.0000000  -0.0000000
 NQMom=    0.0000000   0.0000000   0.0000000   0.0000000
 NMagM=    0.0000000   0.0000000   0.0000000   2.7928460
 AtZNuc=   8.0000000  16.0000000   8.0000000   1.0000000
 Leave Link  101 at Thu Nov 23 15:38:09 2023, MaxMem=  2147483648 cpu:               5.0 elap:               4.2
 (Enter /home/pcmt/gaussian/g16.C.01/g16/l202.exe)
                          Input orientation:                          
 ---------------------------------------------------------------------
 Center     Atomic      Atomic             Coordinates (Angstroms)
 Number     Number       Type             X           Y           Z
 ---------------------------------------------------------------------
      1         91           0        0.528082   -0.221944   -0.192974
      2          8           0        0.881736    0.989009   -1.577465
      3          8           0        3.991907   -1.353856    1.725664
      4          8           0       -0.794178    1.120627    0.891316
      5          1           0       -0.968137    2.038914    0.653438
      6          8           0       -1.078183   -1.300796   -1.788277
      7          1           0       -1.624845   -2.080104   -1.624862
      8          8           0       -0.076456   -1.769488    1.128553
      9          1           0        0.281548   -2.650936    1.298654
     10          8           0        2.403123    0.446724    1.208295
     11          8           0        2.730977   -1.265878   -0.380694
     12         16           0        3.502344   -0.470019    0.670724
     13          8           0        4.561565    0.316427    0.042688
     14          1           0       -1.249668   -1.013485   -2.694329
 ---------------------------------------------------------------------
                    Distance matrix (angstroms):
                    1          2          3          4          5
     1  Pa   0.000000
     2  O    1.873045   0.000000
     3  O    4.118311   5.106158   0.000000
     4  O    2.174063   2.986785   5.452138   0.000000
     5  H    2.840170   3.082411   6.104310   0.964417   0.000000
     6  O    2.507788   3.021413   6.168988   3.622729   4.138569
     7  H    3.184047   3.962909   6.580377   4.155218   4.752707
     8  O    2.122920   3.981203   4.132901   2.987335   3.940147
     9  H    2.861072   4.677765   3.953672   3.943070   4.896194
    10  O    2.434430   3.220116   2.456419   3.282888   3.769394
    11  O    2.444951   3.152216   2.456508   4.442986   5.067003
    12  S    3.107049   3.748427   1.460732   4.586820   5.126426
    13  O    4.076073   4.076568   2.438599   5.481869   5.823881
    14  H    3.169181   3.130535   6.864861   4.197470   4.539157
                    6          7          8          9         10
     6  O    0.000000
     7  H    0.965849   0.000000
     8  O    3.119460   3.174159   0.000000
     9  H    3.633303   3.536542   0.966463   0.000000
    10  O    4.914546   5.534994   3.326600   3.755629   0.000000
    11  O    4.061060   4.602619   3.226938   3.276934   2.359106
    12  S    5.264799   5.843813   3.834845   3.940079   1.528950
    13  O    6.146105   6.840742   5.200133   5.357354   2.456520
    14  H    0.965860   1.556341   4.069693   4.579278   5.541261
                   11         12         13         14
    11  O    0.000000
    12  S    1.527703   0.000000
    13  O    2.456419   1.461121   0.000000
    14  H    4.611089   5.848124   6.559753   0.000000
 Stoichiometry    H4O8PaS(1-)
 Framework group  C1[X(H4O8PaS)]
 Deg. of freedom    36
 Full point group                 C1      NOp   1
 Largest Abelian subgroup         C1      NOp   1
 Largest concise Abelian subgroup C1      NOp   1
                         Standard orientation:                         
 ---------------------------------------------------------------------
 Center     Atomic      Atomic             Coordinates (Angstroms)
 Number     Number       Type             X           Y           Z
 ---------------------------------------------------------------------
      1         91           0        0.656749   -0.051659    0.032299
      2          8           0        0.782739   -1.840736   -0.507727
      3          8           0       -3.264741    1.199755    0.160233
      4          8           0        1.643310   -0.367410    1.943725
      5          1           0        1.916260   -1.224461    2.291664
      6          8           0        2.624879    0.353086   -1.468250
      7          1           0        3.066461    1.196047   -1.633435
      8          8           0        0.775684    2.036366    0.396710
      9          1           0        0.349132    2.792177   -0.028561
     10          8           0       -1.525179   -0.263715    1.090919
     11          8           0       -1.426818    0.298850   -1.198017
     12         16           0       -2.446881    0.016938   -0.096258
     13          8           0       -3.237072   -1.168444   -0.420828
     14          1           0        3.071685   -0.315795   -2.002898
 ---------------------------------------------------------------------
 Rotational constants (GHZ):           1.4743040           0.4805093           0.4690594
 Leave Link  202 at Thu Nov 23 15:38:23 2023, MaxMem=  2147483648 cpu:              13.2 elap:              14.0
 (Enter /home/pcmt/gaussian/g16.C.01/g16/l301.exe)
 General basis read from cards:  (5D, 7F)
 Centers:       1
 S 3 1.00
     Exponent=  1.2047376000D+04 Coefficients=  3.4500000000D-04
     Exponent=  1.8116841000D+03 Coefficients=  2.7420000000D-03
     Exponent=  3.4770104000D+02 Coefficients=  1.0053000000D-02
 S 1 1.00
     Exponent=  9.8678010000D+01 Coefficients=  1.0000000000D+00
 S 3 1.00
     Exponent=  5.7507376000D+01 Coefficients=  5.1528000000D-02
     Exponent=  3.3502601000D+01 Coefficients= -2.3692400000D-01
     Exponent=  1.9554451000D+01 Coefficients=  7.1904800000D-01
 S 1 1.00
     Exponent=  9.7164210000D+00 Coefficients=  1.0000000000D+00
 S 1 1.00
     Exponent=  2.6920960000D+00 Coefficients=  1.0000000000D+00
 S 1 1.00
     Exponent=  1.4538470000D+00 Coefficients=  1.0000000000D+00
 S 1 1.00
     Exponent=  5.7435200000D-01 Coefficients=  1.0000000000D+00
 S 1 1.00
     Exponent=  2.6346800000D-01 Coefficients=  1.0000000000D+00
 S 1 1.00
     Exponent=  5.6557000000D-02 Coefficients=  1.0000000000D+00
 S 1 1.00
     Exponent=  2.3169000000D-02 Coefficients=  1.0000000000D+00
 P 5 1.00
     Exponent=  2.9033676000D+03 Coefficients=  3.5000000000D-05
     Exponent=  6.4486356000D+02 Coefficients=  2.0500000000D-04
     Exponent=  2.2025896000D+02 Coefficients=  1.2510000000D-03
     Exponent=  8.0276401000D+01 Coefficients=  2.4570000000D-03
     Exponent=  2.4080211000D+01 Coefficients=  1.1190000000D-02
 P 1 1.00
     Exponent=  1.4077580000D+01 Coefficients=  1.0000000000D+00
 P 1 1.00
     Exponent=  8.2658460000D+00 Coefficients=  1.0000000000D+00
 P 1 1.00
     Exponent=  3.5948000000D+00 Coefficients=  1.0000000000D+00
 P 1 1.00
     Exponent=  1.7531110000D+00 Coefficients=  1.0000000000D+00
 P 1 1.00
     Exponent=  6.5776700000D-01 Coefficients=  1.0000000000D+00
 P 1 1.00
     Exponent=  2.8463900000D-01 Coefficients=  1.0000000000D+00
 P 1 1.00
     Exponent=  1.0054300000D-01 Coefficients=  1.0000000000D+00
 P 1 1.00
     Exponent=  3.0190000000D-02 Coefficients=  1.0000000000D+00
 D 6 1.00
     Exponent=  4.4814991000D+02 Coefficients=  2.6000000000D-05
     Exponent=  1.5446145000D+02 Coefficients=  2.2800000000D-04
     Exponent=  6.0925377000D+01 Coefficients=  9.0400000000D-04
     Exponent=  1.7032091000D+01 Coefficients=  2.5647000000D-02
     Exponent=  1.0018877000D+01 Coefficients= -1.0575100000D-01
     Exponent=  3.4091930000D+00 Coefficients=  4.4743200000D-01
 D 1 1.00
     Exponent=  1.6702130000D+00 Coefficients=  1.0000000000D+00
 D 1 1.00
     Exponent=  7.4109500000D-01 Coefficients=  1.0000000000D+00
 D 1 1.00
     Exponent=  2.6139300000D-01 Coefficients=  1.0000000000D+00
 D 1 1.00
     Exponent=  8.2811000000D-02 Coefficients=  1.0000000000D+00
 F 5 1.00
     Exponent=  8.7991327000D+01 Coefficients=  2.2600000000D-04
     Exponent=  2.8340195000D+01 Coefficients=  2.3230000000D-03
     Exponent=  1.2440994000D+01 Coefficients=  4.5850000000D-03
     Exponent=  3.9572960000D+00 Coefficients=  1.5696100000D-01
     Exponent=  1.8759440000D+00 Coefficients=  3.4497700000D-01
 F 1 1.00
     Exponent=  8.2758900000D-01 Coefficients=  1.0000000000D+00
 F 1 1.00
     Exponent=  3.3274800000D-01 Coefficients=  1.0000000000D+00
 F 1 1.00
     Exponent=  1.1468500000D-01 Coefficients=  1.0000000000D+00
 G 1 1.00
     Exponent=  3.5000000000D-01 Coefficients=  1.0000000000D+00
 ****
 Centers:       2      3      4      6      8     10     11     13
 Def2TZVP
 ****
 Centers:       5      7      9     14
 Def2TZVP
 ****
 Centers:      12
 Def2TZVP
 ****
 ======================================================================================================
                                       Pseudopotential Parameters
 ======================================================================================================
  Center     Atomic      Valence      Angular      Power
  Number     Number     Electrons     Momentum     of R      Exponent        Coefficient   SO-Coeffient
 ======================================================================================================
    1         91           31
                                      H and up 
                                                     2        1.0000000        0.00000000    0.00000000
                                      S - H
                                                     2       15.2691737      475.47573283    0.00000000
                                      P - H
                                                     2        9.9577370      207.66485962    0.00000000
                                      D - H
                                                     2        8.9431413      156.67411988    0.00000000
                                      F - H
                                                     2        7.0104666       67.98223685    0.00000000
                                      G - H
                                                     2       12.2010560      -57.63059989    0.00000000
    2          8
                                   No pseudopotential on this center.
    3          8
                                   No pseudopotential on this center.
    4          8
                                   No pseudopotential on this center.
    5          1
                                   No pseudopotential on this center.
    6          8
                                   No pseudopotential on this center.
    7          1
                                   No pseudopotential on this center.
    8          8
                                   No pseudopotential on this center.
    9          1
                                   No pseudopotential on this center.
   10          8
                                   No pseudopotential on this center.
   11          8
                                   No pseudopotential on this center.
   12         16
                                   No pseudopotential on this center.
   13          8
                                   No pseudopotential on this center.
   14          1
                                   No pseudopotential on this center.
 ======================================================================================================
 Ernie: Thresh=  0.10000D-02 Tol=  0.10000D-05 Strict=F.
 AO basis set in the form of general basis input (Overlap normalization):
      1 0
 S   3 1.00       0.000000000000
      0.1204737600D+05  0.2857094961D-01
      0.1811684100D+04  0.2270769386D+00
      0.3477010400D+03  0.8325326273D+00
 S   3 1.00       0.000000000000
      0.5750737600D+02  0.9569327984D-01
      0.3350260100D+02 -0.4399944619D+00
      0.1955445100D+02  0.1335352847D+01
 S   1 1.00       0.000000000000
      0.9867801000D+02  0.1000000000D+01
 S   1 1.00       0.000000000000
      0.9716421000D+01  0.1000000000D+01
 S   1 1.00       0.000000000000
      0.2692096000D+01  0.1000000000D+01
 S   1 1.00       0.000000000000
      0.1453847000D+01  0.1000000000D+01
 S   1 1.00       0.000000000000
      0.5743520000D+00  0.1000000000D+01
 S   1 1.00       0.000000000000
      0.2634680000D+00  0.1000000000D+01
 S   1 1.00       0.000000000000
      0.5655700000D-01  0.1000000000D+01
 S   1 1.00       0.000000000000
      0.2316900000D-01  0.1000000000D+01
 P   5 1.00       0.000000000000
      0.2903367600D+04  0.2594222647D-02
      0.6448635600D+03  0.1519473264D-01
      0.2202589600D+03  0.9272492945D-01
      0.8027640100D+02  0.1821144298D+00
      0.2408021100D+02  0.8294100404D+00
 P   1 1.00       0.000000000000
      0.1407758000D+02  0.1000000000D+01
 P   1 1.00       0.000000000000
      0.8265846000D+01  0.1000000000D+01
 P   1 1.00       0.000000000000
      0.3594800000D+01  0.1000000000D+01
 P   1 1.00       0.000000000000
      0.1753111000D+01  0.1000000000D+01
 P   1 1.00       0.000000000000
      0.6577670000D+00  0.1000000000D+01
 P   1 1.00       0.000000000000
      0.2846390000D+00  0.1000000000D+01
 P   1 1.00       0.000000000000
      0.1005430000D+00  0.1000000000D+01
 P   1 1.00       0.000000000000
      0.3019000000D-01  0.1000000000D+01
 D   6 1.00       0.000000000000
      0.4481499100D+03  0.6556927566D-04
      0.1544614500D+03  0.5749921096D-03
      0.6092537700D+02  0.2279793277D-02
      0.1703209100D+02  0.6467904664D-01
      0.1001887700D+02 -0.2666929411D+00
      0.3409193000D+01  0.1128376621D+01
 D   1 1.00       0.000000000000
      0.1670213000D+01  0.1000000000D+01
 D   1 1.00       0.000000000000
      0.7410950000D+00  0.1000000000D+01
 D   1 1.00       0.000000000000
      0.2613930000D+00  0.1000000000D+01
 D   1 1.00       0.000000000000
      0.8281100000D-01  0.1000000000D+01
 F   5 1.00       0.000000000000
      0.8799132700D+02  0.4766318191D-03
      0.2834019500D+02  0.4899184583D-02
      0.1244099400D+02  0.9669720755D-02
      0.3957296000D+01  0.3310292343D+00
      0.1875944000D+01  0.7275531640D+00
 F   1 1.00       0.000000000000
      0.8275890000D+00  0.1000000000D+01
 F   1 1.00       0.000000000000
      0.3327480000D+00  0.1000000000D+01
 F   1 1.00       0.000000000000
      0.1146850000D+00  0.1000000000D+01
 G   1 1.00       0.000000000000
      0.3500000000D+00  0.1000000000D+01
 ****
      2 0
 S   6 1.00       0.000000000000
      0.2703238263D+05  0.5722733521D-03
      0.4052387139D+04  0.4435323349D-02
      0.9223272271D+03  0.2302010771D-01
      0.2612407099D+03  0.9282249067D-01
      0.8535464135D+02  0.2937850001D+00
      0.3103503524D+02  0.6740160450D+00
 S   2 1.00       0.000000000000
      0.1226086073D+02  0.6383993703D+00
      0.4998707601D+01  0.3953458713D+00
 S   1 1.00       0.000000000000
      0.1170310816D+01  0.1000000000D+01
 S   1 1.00       0.000000000000
      0.4647474099D+00  0.1000000000D+01
 S   1 1.00       0.000000000000
      0.1850453636D+00  0.1000000000D+01
 P   4 1.00       0.000000000000
      0.6327495480D+02  0.1201833222D-01
      0.1462704938D+02  0.8300542179D-01
      0.4450122346D+01  0.3199174393D+00
      0.1527579965D+01  0.7071554292D+00
 P   1 1.00       0.000000000000
      0.5293511794D+00  0.1000000000D+01
 P   1 1.00       0.000000000000
      0.1747842127D+00  0.1000000000D+01
 D   1 1.00       0.000000000000
      0.2314000000D+01  0.1000000000D+01
 D   1 1.00       0.000000000000
      0.6450000000D+00  0.1000000000D+01
 F   1 1.00       0.000000000000
      0.1428000000D+01  0.1000000000D+01
 ****
      3 0
 S   6 1.00       0.000000000000
      0.2703238263D+05  0.5722733521D-03
      0.4052387139D+04  0.4435323349D-02
      0.9223272271D+03  0.2302010771D-01
      0.2612407099D+03  0.9282249067D-01
      0.8535464135D+02  0.2937850001D+00
      0.3103503524D+02  0.6740160450D+00
 S   2 1.00       0.000000000000
      0.1226086073D+02  0.6383993703D+00
      0.4998707601D+01  0.3953458713D+00
 S   1 1.00       0.000000000000
      0.1170310816D+01  0.1000000000D+01
 S   1 1.00       0.000000000000
      0.4647474099D+00  0.1000000000D+01
 S   1 1.00       0.000000000000
      0.1850453636D+00  0.1000000000D+01
 P   4 1.00       0.000000000000
      0.6327495480D+02  0.1201833222D-01
      0.1462704938D+02  0.8300542179D-01
      0.4450122346D+01  0.3199174393D+00
      0.1527579965D+01  0.7071554292D+00
 P   1 1.00       0.000000000000
      0.5293511794D+00  0.1000000000D+01
 P   1 1.00       0.000000000000
      0.1747842127D+00  0.1000000000D+01
 D   1 1.00       0.000000000000
      0.2314000000D+01  0.1000000000D+01
 D   1 1.00       0.000000000000
      0.6450000000D+00  0.1000000000D+01
 F   1 1.00       0.000000000000
      0.1428000000D+01  0.1000000000D+01
 ****
      4 0
 S   6 1.00       0.000000000000
      0.2703238263D+05  0.5722733521D-03
      0.4052387139D+04  0.4435323349D-02
      0.9223272271D+03  0.2302010771D-01
      0.2612407099D+03  0.9282249067D-01
      0.8535464135D+02  0.2937850001D+00
      0.3103503524D+02  0.6740160450D+00
 S   2 1.00       0.000000000000
      0.1226086073D+02  0.6383993703D+00
      0.4998707601D+01  0.3953458713D+00
 S   1 1.00       0.000000000000
      0.1170310816D+01  0.1000000000D+01
 S   1 1.00       0.000000000000
      0.4647474099D+00  0.1000000000D+01
 S   1 1.00       0.000000000000
      0.1850453636D+00  0.1000000000D+01
 P   4 1.00       0.000000000000
      0.6327495480D+02  0.1201833222D-01
      0.1462704938D+02  0.8300542179D-01
      0.4450122346D+01  0.3199174393D+00
      0.1527579965D+01  0.7071554292D+00
 P   1 1.00       0.000000000000
      0.5293511794D+00  0.1000000000D+01
 P   1 1.00       0.000000000000
      0.1747842127D+00  0.1000000000D+01
 D   1 1.00       0.000000000000
      0.2314000000D+01  0.1000000000D+01
 D   1 1.00       0.000000000000
      0.6450000000D+00  0.1000000000D+01
 F   1 1.00       0.000000000000
      0.1428000000D+01  0.1000000000D+01
 ****
      5 0
 S   3 1.00       0.000000000000
      0.3406134100D+02  0.2543930721D-01
      0.5123574600D+01  0.1900859489D+00
      0.1164662600D+01  0.8524411301D+00
 S   1 1.00       0.000000000000
      0.3272304100D+00  0.1000000000D+01
 S   1 1.00       0.000000000000
      0.1030724100D+00  0.1000000000D+01
 P   1 1.00       0.000000000000
      0.8000000000D+00  0.1000000000D+01
 ****
      6 0
 S   6 1.00       0.000000000000
      0.2703238263D+05  0.5722733521D-03
      0.4052387139D+04  0.4435323349D-02
      0.9223272271D+03  0.2302010771D-01
      0.2612407099D+03  0.9282249067D-01
      0.8535464135D+02  0.2937850001D+00
      0.3103503524D+02  0.6740160450D+00
 S   2 1.00       0.000000000000
      0.1226086073D+02  0.6383993703D+00
      0.4998707601D+01  0.3953458713D+00
 S   1 1.00       0.000000000000
      0.1170310816D+01  0.1000000000D+01
 S   1 1.00       0.000000000000
      0.4647474099D+00  0.1000000000D+01
 S   1 1.00       0.000000000000
      0.1850453636D+00  0.1000000000D+01
 P   4 1.00       0.000000000000
      0.6327495480D+02  0.1201833222D-01
      0.1462704938D+02  0.8300542179D-01
      0.4450122346D+01  0.3199174393D+00
      0.1527579965D+01  0.7071554292D+00
 P   1 1.00       0.000000000000
      0.5293511794D+00  0.1000000000D+01
 P   1 1.00       0.000000000000
      0.1747842127D+00  0.1000000000D+01
 D   1 1.00       0.000000000000
      0.2314000000D+01  0.1000000000D+01
 D   1 1.00       0.000000000000
      0.6450000000D+00  0.1000000000D+01
 F   1 1.00       0.000000000000
      0.1428000000D+01  0.1000000000D+01
 ****
      7 0
 S   3 1.00       0.000000000000
      0.3406134100D+02  0.2543930721D-01
      0.5123574600D+01  0.1900859489D+00
      0.1164662600D+01  0.8524411301D+00
 S   1 1.00       0.000000000000
      0.3272304100D+00  0.1000000000D+01
 S   1 1.00       0.000000000000
      0.1030724100D+00  0.1000000000D+01
 P   1 1.00       0.000000000000
      0.8000000000D+00  0.1000000000D+01
 ****
      8 0
 S   6 1.00       0.000000000000
      0.2703238263D+05  0.5722733521D-03
      0.4052387139D+04  0.4435323349D-02
      0.9223272271D+03  0.2302010771D-01
      0.2612407099D+03  0.9282249067D-01
      0.8535464135D+02  0.2937850001D+00
      0.3103503524D+02  0.6740160450D+00
 S   2 1.00       0.000000000000
      0.1226086073D+02  0.6383993703D+00
      0.4998707601D+01  0.3953458713D+00
 S   1 1.00       0.000000000000
      0.1170310816D+01  0.1000000000D+01
 S   1 1.00       0.000000000000
      0.4647474099D+00  0.1000000000D+01
 S   1 1.00       0.000000000000
      0.1850453636D+00  0.1000000000D+01
 P   4 1.00       0.000000000000
      0.6327495480D+02  0.1201833222D-01
      0.1462704938D+02  0.8300542179D-01
      0.4450122346D+01  0.3199174393D+00
      0.1527579965D+01  0.7071554292D+00
 P   1 1.00       0.000000000000
      0.5293511794D+00  0.1000000000D+01
 P   1 1.00       0.000000000000
      0.1747842127D+00  0.1000000000D+01
 D   1 1.00       0.000000000000
      0.2314000000D+01  0.1000000000D+01
 D   1 1.00       0.000000000000
      0.6450000000D+00  0.1000000000D+01
 F   1 1.00       0.000000000000
      0.1428000000D+01  0.1000000000D+01
 ****
      9 0
 S   3 1.00       0.000000000000
      0.3406134100D+02  0.2543930721D-01
      0.5123574600D+01  0.1900859489D+00
      0.1164662600D+01  0.8524411301D+00
 S   1 1.00       0.000000000000
      0.3272304100D+00  0.1000000000D+01
 S   1 1.00       0.000000000000
      0.1030724100D+00  0.1000000000D+01
 P   1 1.00       0.000000000000
      0.8000000000D+00  0.1000000000D+01
 ****
     10 0
 S   6 1.00       0.000000000000
      0.2703238263D+05  0.5722733521D-03
      0.4052387139D+04  0.4435323349D-02
      0.9223272271D+03  0.2302010771D-01
      0.2612407099D+03  0.9282249067D-01
      0.8535464135D+02  0.2937850001D+00
      0.3103503524D+02  0.6740160450D+00
 S   2 1.00       0.000000000000
      0.1226086073D+02  0.6383993703D+00
      0.4998707601D+01  0.3953458713D+00
 S   1 1.00       0.000000000000
      0.1170310816D+01  0.1000000000D+01
 S   1 1.00       0.000000000000
      0.4647474099D+00  0.1000000000D+01
 S   1 1.00       0.000000000000
      0.1850453636D+00  0.1000000000D+01
 P   4 1.00       0.000000000000
      0.6327495480D+02  0.1201833222D-01
      0.1462704938D+02  0.8300542179D-01
      0.4450122346D+01  0.3199174393D+00
      0.1527579965D+01  0.7071554292D+00
 P   1 1.00       0.000000000000
      0.5293511794D+00  0.1000000000D+01
 P   1 1.00       0.000000000000
      0.1747842127D+00  0.1000000000D+01
 D   1 1.00       0.000000000000
      0.2314000000D+01  0.1000000000D+01
 D   1 1.00       0.000000000000
      0.6450000000D+00  0.1000000000D+01
 F   1 1.00       0.000000000000
      0.1428000000D+01  0.1000000000D+01
 ****
     11 0
 S   6 1.00       0.000000000000
      0.2703238263D+05  0.5722733521D-03
      0.4052387139D+04  0.4435323349D-02
      0.9223272271D+03  0.2302010771D-01
      0.2612407099D+03  0.9282249067D-01
      0.8535464135D+02  0.2937850001D+00
      0.3103503524D+02  0.6740160450D+00
 S   2 1.00       0.000000000000
      0.1226086073D+02  0.6383993703D+00
      0.4998707601D+01  0.3953458713D+00
 S   1 1.00       0.000000000000
      0.1170310816D+01  0.1000000000D+01
 S   1 1.00       0.000000000000
      0.4647474099D+00  0.1000000000D+01
 S   1 1.00       0.000000000000
      0.1850453636D+00  0.1000000000D+01
 P   4 1.00       0.000000000000
      0.6327495480D+02  0.1201833222D-01
      0.1462704938D+02  0.8300542179D-01
      0.4450122346D+01  0.3199174393D+00
      0.1527579965D+01  0.7071554292D+00
 P   1 1.00       0.000000000000
      0.5293511794D+00  0.1000000000D+01
 P   1 1.00       0.000000000000
      0.1747842127D+00  0.1000000000D+01
 D   1 1.00       0.000000000000
      0.2314000000D+01  0.1000000000D+01
 D   1 1.00       0.000000000000
      0.6450000000D+00  0.1000000000D+01
 F   1 1.00       0.000000000000
      0.1428000000D+01  0.1000000000D+01
 ****
     12 0
 S   7 1.00       0.000000000000
      0.6070092810D+05  0.5238007490D-03
      0.9102610685D+04  0.4050632678D-02
      0.2071416601D+04  0.2082700417D-01
      0.5860247682D+03  0.8149685034D-01
      0.1905539502D+03  0.2374911384D+00
      0.6763038426D+02  0.4472617151D+00
      0.2512730691D+02  0.3489191844D+00
 S   3 1.00       0.000000000000
      0.1125746301D+03  0.1004556989D+00
      0.3479555422D+02  0.4339117295D+00
      0.6511555622D+01 -0.1208433059D+01
 S   2 1.00       0.000000000000
      0.3239903226D+01  0.6749812942D+00
      0.1547716088D+01  0.3470879576D+00
 S   1 1.00       0.000000000000
      0.4054103011D+00  0.1000000000D+01
 S   1 1.00       0.000000000000
      0.1455065106D+00  0.1000000000D+01
 P   5 1.00       0.000000000000
      0.5643671603D+03  0.3488692363D-02
      0.1334262438D+03  0.2768512678D-01
      0.4246827119D+02  0.1265940018D+00
      0.1561652758D+02  0.3616592567D+00
      0.6109398847D+01  0.6122203444D+00
 P   1 1.00       0.000000000000
      0.2440416020D+01  0.1000000000D+01
 P   1 1.00       0.000000000000
      0.8388220130D+00  0.1000000000D+01
 P   1 1.00       0.000000000000
      0.3128874690D+00  0.1000000000D+01
 P   1 1.00       0.000000000000
      0.1077010900D+00  0.1000000000D+01
 D   2 1.00       0.000000000000
      0.3756000000D+01  0.1828519746D+00
      0.8120000000D+00  0.9142598730D+00
 D   1 1.00       0.000000000000
      0.2730000000D+00  0.1000000000D+01
 F   1 1.00       0.000000000000
      0.5570000000D+00  0.1000000000D+01
 ****
     13 0
 S   6 1.00       0.000000000000
      0.2703238263D+05  0.5722733521D-03
      0.4052387139D+04  0.4435323349D-02
      0.9223272271D+03  0.2302010771D-01
      0.2612407099D+03  0.9282249067D-01
      0.8535464135D+02  0.2937850001D+00
      0.3103503524D+02  0.6740160450D+00
 S   2 1.00       0.000000000000
      0.1226086073D+02  0.6383993703D+00
      0.4998707601D+01  0.3953458713D+00
 S   1 1.00       0.000000000000
      0.1170310816D+01  0.1000000000D+01
 S   1 1.00       0.000000000000
      0.4647474099D+00  0.1000000000D+01
 S   1 1.00       0.000000000000
      0.1850453636D+00  0.1000000000D+01
 P   4 1.00       0.000000000000
      0.6327495480D+02  0.1201833222D-01
      0.1462704938D+02  0.8300542179D-01
      0.4450122346D+01  0.3199174393D+00
      0.1527579965D+01  0.7071554292D+00
 P   1 1.00       0.000000000000
      0.5293511794D+00  0.1000000000D+01
 P   1 1.00       0.000000000000
      0.1747842127D+00  0.1000000000D+01
 D   1 1.00       0.000000000000
      0.2314000000D+01  0.1000000000D+01
 D   1 1.00       0.000000000000
      0.6450000000D+00  0.1000000000D+01
 F   1 1.00       0.000000000000
      0.1428000000D+01  0.1000000000D+01
 ****
     14 0
 S   3 1.00       0.000000000000
      0.3406134100D+02  0.2543930721D-01
      0.5123574600D+01  0.1900859489D+00
      0.1164662600D+01  0.8524411301D+00
 S   1 1.00       0.000000000000
      0.3272304100D+00  0.1000000000D+01
 S   1 1.00       0.000000000000
      0.1030724100D+00  0.1000000000D+01
 P   1 1.00       0.000000000000
      0.8000000000D+00  0.1000000000D+01
 ****

 AO basis set (Overlap normalization):
 Atom Pa1      Shell     1 S   3     bf    1 -     1          1.241075341426         -0.097621901799          0.061036944550
      0.1204737600D+05  0.2857094961D-01
      0.1811684100D+04  0.2270769386D+00
      0.3477010400D+03  0.8325326273D+00
 Atom Pa1      Shell     2 S   3     bf    2 -     2          1.241075341426         -0.097621901799          0.061036944550
      0.5750737600D+02  0.9569327984D-01
      0.3350260100D+02 -0.4399944619D+00
      0.1955445100D+02  0.1335352847D+01
 Atom Pa1      Shell     3 S   1     bf    3 -     3          1.241075341426         -0.097621901799          0.061036944550
      0.9867801000D+02  0.1000000000D+01
 Atom Pa1      Shell     4 S   1     bf    4 -     4          1.241075341426         -0.097621901799          0.061036944550
      0.9716421000D+01  0.1000000000D+01
 Atom Pa1      Shell     5 S   1     bf    5 -     5          1.241075341426         -0.097621901799          0.061036944550
      0.2692096000D+01  0.1000000000D+01
 Atom Pa1      Shell     6 S   1     bf    6 -     6          1.241075341426         -0.097621901799          0.061036944550
      0.1453847000D+01  0.1000000000D+01
 Atom Pa1      Shell     7 S   1     bf    7 -     7          1.241075341426         -0.097621901799          0.061036944550
      0.5743520000D+00  0.1000000000D+01
 Atom Pa1      Shell     8 S   1     bf    8 -     8          1.241075341426         -0.097621901799          0.061036944550
      0.2634680000D+00  0.1000000000D+01
 Atom Pa1      Shell     9 S   1     bf    9 -     9          1.241075341426         -0.097621901799          0.061036944550
      0.5655700000D-01  0.1000000000D+01
 Atom Pa1      Shell    10 S   1     bf   10 -    10          1.241075341426         -0.097621901799          0.061036944550
      0.2316900000D-01  0.1000000000D+01
 Atom Pa1      Shell    11 P   5     bf   11 -    13          1.241075341426         -0.097621901799          0.061036944550
      0.2903367600D+04  0.2594222647D-02
      0.6448635600D+03  0.1519473264D-01
      0.2202589600D+03  0.9272492945D-01
      0.8027640100D+02  0.1821144298D+00
      0.2408021100D+02  0.8294100404D+00
 Atom Pa1      Shell    12 P   1     bf   14 -    16          1.241075341426         -0.097621901799          0.061036944550
      0.1407758000D+02  0.1000000000D+01
 Atom Pa1      Shell    13 P   1     bf   17 -    19          1.241075341426         -0.097621901799          0.061036944550
      0.8265846000D+01  0.1000000000D+01
 Atom Pa1      Shell    14 P   1     bf   20 -    22          1.241075341426         -0.097621901799          0.061036944550
      0.3594800000D+01  0.1000000000D+01
 Atom Pa1      Shell    15 P   1     bf   23 -    25          1.241075341426         -0.097621901799          0.061036944550
      0.1753111000D+01  0.1000000000D+01
 Atom Pa1      Shell    16 P   1     bf   26 -    28          1.241075341426         -0.097621901799          0.061036944550
      0.6577670000D+00  0.1000000000D+01
 Atom Pa1      Shell    17 P   1     bf   29 -    31          1.241075341426         -0.097621901799          0.061036944550
      0.2846390000D+00  0.1000000000D+01
 Atom Pa1      Shell    18 P   1     bf   32 -    34          1.241075341426         -0.097621901799          0.061036944550
      0.1005430000D+00  0.1000000000D+01
 Atom Pa1      Shell    19 P   1     bf   35 -    37          1.241075341426         -0.097621901799          0.061036944550
      0.3019000000D-01  0.1000000000D+01
 Atom Pa1      Shell    20 D   6     bf   38 -    42          1.241075341426         -0.097621901799          0.061036944550
      0.4481499100D+03  0.6556927566D-04
      0.1544614500D+03  0.5749921096D-03
      0.6092537700D+02  0.2279793277D-02
      0.1703209100D+02  0.6467904664D-01
      0.1001887700D+02 -0.2666929411D+00
      0.3409193000D+01  0.1128376621D+01
 Atom Pa1      Shell    21 D   1     bf   43 -    47          1.241075341426         -0.097621901799          0.061036944550
      0.1670213000D+01  0.1000000000D+01
 Atom Pa1      Shell    22 D   1     bf   48 -    52          1.241075341426         -0.097621901799          0.061036944550
      0.7410950000D+00  0.1000000000D+01
 Atom Pa1      Shell    23 D   1     bf   53 -    57          1.241075341426         -0.097621901799          0.061036944550
      0.2613930000D+00  0.1000000000D+01
 Atom Pa1      Shell    24 D   1     bf   58 -    62          1.241075341426         -0.097621901799          0.061036944550
      0.8281100000D-01  0.1000000000D+01
 Atom Pa1      Shell    25 F   5     bf   63 -    69          1.241075341426         -0.097621901799          0.061036944550
      0.8799132700D+02  0.4766318191D-03
      0.2834019500D+02  0.4899184583D-02
      0.1244099400D+02  0.9669720755D-02
      0.3957296000D+01  0.3310292343D+00
      0.1875944000D+01  0.7275531640D+00
 Atom Pa1      Shell    26 F   1     bf   70 -    76          1.241075341426         -0.097621901799          0.061036944550
      0.8275890000D+00  0.1000000000D+01
 Atom Pa1      Shell    27 F   1     bf   77 -    83          1.241075341426         -0.097621901799          0.061036944550
      0.3327480000D+00  0.1000000000D+01
 Atom Pa1      Shell    28 F   1     bf   84 -    90          1.241075341426         -0.097621901799          0.061036944550
      0.1146850000D+00  0.1000000000D+01
 Atom Pa1      Shell    29 G   1     bf   91 -    99          1.241075341426         -0.097621901799          0.061036944550
      0.3500000000D+00  0.1000000000D+01
 Atom O2       Shell    30 S   6     bf  100 -   100          1.479162751517         -3.478486006808         -0.959465540966
      0.2703238263D+05  0.5722733521D-03
      0.4052387139D+04  0.4435323349D-02
      0.9223272271D+03  0.2302010771D-01
      0.2612407099D+03  0.9282249067D-01
      0.8535464135D+02  0.2937850001D+00
      0.3103503524D+02  0.6740160450D+00
 Atom O2       Shell    31 S   2     bf  101 -   101          1.479162751517         -3.478486006808         -0.959465540966
      0.1226086073D+02  0.6383993703D+00
      0.4998707601D+01  0.3953458713D+00
 Atom O2       Shell    32 S   1     bf  102 -   102          1.479162751517         -3.478486006808         -0.959465540966
      0.1170310816D+01  0.1000000000D+01
 Atom O2       Shell    33 S   1     bf  103 -   103          1.479162751517         -3.478486006808         -0.959465540966
      0.4647474099D+00  0.1000000000D+01
 Atom O2       Shell    34 S   1     bf  104 -   104          1.479162751517         -3.478486006808         -0.959465540966
      0.1850453636D+00  0.1000000000D+01
 Atom O2       Shell    35 P   4     bf  105 -   107          1.479162751517         -3.478486006808         -0.959465540966
      0.6327495480D+02  0.1201833222D-01
      0.1462704938D+02  0.8300542179D-01
      0.4450122346D+01  0.3199174393D+00
      0.1527579965D+01  0.7071554292D+00
 Atom O2       Shell    36 P   1     bf  108 -   110          1.479162751517         -3.478486006808         -0.959465540966
      0.5293511794D+00  0.1000000000D+01
 Atom O2       Shell    37 P   1     bf  111 -   113          1.479162751517         -3.478486006808         -0.959465540966
      0.1747842127D+00  0.1000000000D+01
 Atom O2       Shell    38 D   1     bf  114 -   118          1.479162751517         -3.478486006808         -0.959465540966
      0.2314000000D+01  0.1000000000D+01
 Atom O2       Shell    39 D   1     bf  119 -   123          1.479162751517         -3.478486006808         -0.959465540966
      0.6450000000D+00  0.1000000000D+01
 Atom O2       Shell    40 F   1     bf  124 -   130          1.479162751517         -3.478486006808         -0.959465540966
      0.1428000000D+01  0.1000000000D+01
 Atom O3       Shell    41 S   6     bf  131 -   131         -6.169465427755          2.267209146715          0.302795727743
      0.2703238263D+05  0.5722733521D-03
      0.4052387139D+04  0.4435323349D-02
      0.9223272271D+03  0.2302010771D-01
      0.2612407099D+03  0.9282249067D-01
      0.8535464135D+02  0.2937850001D+00
      0.3103503524D+02  0.6740160450D+00
 Atom O3       Shell    42 S   2     bf  132 -   132         -6.169465427755          2.267209146715          0.302795727743
      0.1226086073D+02  0.6383993703D+00
      0.4998707601D+01  0.3953458713D+00
 Atom O3       Shell    43 S   1     bf  133 -   133         -6.169465427755          2.267209146715          0.302795727743
      0.1170310816D+01  0.1000000000D+01
 Atom O3       Shell    44 S   1     bf  134 -   134         -6.169465427755          2.267209146715          0.302795727743
      0.4647474099D+00  0.1000000000D+01
 Atom O3       Shell    45 S   1     bf  135 -   135         -6.169465427755          2.267209146715          0.302795727743
      0.1850453636D+00  0.1000000000D+01
 Atom O3       Shell    46 P   4     bf  136 -   138         -6.169465427755          2.267209146715          0.302795727743
      0.6327495480D+02  0.1201833222D-01
      0.1462704938D+02  0.8300542179D-01
      0.4450122346D+01  0.3199174393D+00
      0.1527579965D+01  0.7071554292D+00
 Atom O3       Shell    47 P   1     bf  139 -   141         -6.169465427755          2.267209146715          0.302795727743
      0.5293511794D+00  0.1000000000D+01
 Atom O3       Shell    48 P   1     bf  142 -   144         -6.169465427755          2.267209146715          0.302795727743
      0.1747842127D+00  0.1000000000D+01
 Atom O3       Shell    49 D   1     bf  145 -   149         -6.169465427755          2.267209146715          0.302795727743
      0.2314000000D+01  0.1000000000D+01
 Atom O3       Shell    50 D   1     bf  150 -   154         -6.169465427755          2.267209146715          0.302795727743
      0.6450000000D+00  0.1000000000D+01
 Atom O3       Shell    51 F   1     bf  155 -   161         -6.169465427755          2.267209146715          0.302795727743
      0.1428000000D+01  0.1000000000D+01
 Atom O4       Shell    52 S   6     bf  162 -   162          3.105405278985         -0.694304950758          3.673108043194
      0.2703238263D+05  0.5722733521D-03
      0.4052387139D+04  0.4435323349D-02
      0.9223272271D+03  0.2302010771D-01
      0.2612407099D+03  0.9282249067D-01
      0.8535464135D+02  0.2937850001D+00
      0.3103503524D+02  0.6740160450D+00
 Atom O4       Shell    53 S   2     bf  163 -   163          3.105405278985         -0.694304950758          3.673108043194
      0.1226086073D+02  0.6383993703D+00
      0.4998707601D+01  0.3953458713D+00
 Atom O4       Shell    54 S   1     bf  164 -   164          3.105405278985         -0.694304950758          3.673108043194
      0.1170310816D+01  0.1000000000D+01
 Atom O4       Shell    55 S   1     bf  165 -   165          3.105405278985         -0.694304950758          3.673108043194
      0.4647474099D+00  0.1000000000D+01
 Atom O4       Shell    56 S   1     bf  166 -   166          3.105405278985         -0.694304950758          3.673108043194
      0.1850453636D+00  0.1000000000D+01
 Atom O4       Shell    57 P   4     bf  167 -   169          3.105405278985         -0.694304950758          3.673108043194
      0.6327495480D+02  0.1201833222D-01
      0.1462704938D+02  0.8300542179D-01
      0.4450122346D+01  0.3199174393D+00
      0.1527579965D+01  0.7071554292D+00
 Atom O4       Shell    58 P   1     bf  170 -   172          3.105405278985         -0.694304950758          3.673108043194
      0.5293511794D+00  0.1000000000D+01
 Atom O4       Shell    59 P   1     bf  173 -   175          3.105405278985         -0.694304950758          3.673108043194
      0.1747842127D+00  0.1000000000D+01
 Atom O4       Shell    60 D   1     bf  176 -   180          3.105405278985         -0.694304950758          3.673108043194
      0.2314000000D+01  0.1000000000D+01
 Atom O4       Shell    61 D   1     bf  181 -   185          3.105405278985         -0.694304950758          3.673108043194
      0.6450000000D+00  0.1000000000D+01
 Atom O4       Shell    62 F   1     bf  186 -   192          3.105405278985         -0.694304950758          3.673108043194
      0.1428000000D+01  0.1000000000D+01
 Atom H5       Shell    63 S   3     bf  193 -   193          3.621207482749         -2.313896095732          4.330617999711
      0.3406134100D+02  0.2543930721D-01
      0.5123574600D+01  0.1900859489D+00
      0.1164662600D+01  0.8524411301D+00
 Atom H5       Shell    64 S   1     bf  194 -   194          3.621207482749         -2.313896095732          4.330617999711
      0.3272304100D+00  0.1000000000D+01
 Atom H5       Shell    65 S   1     bf  195 -   195          3.621207482749         -2.313896095732          4.330617999711
      0.1030724100D+00  0.1000000000D+01
 Atom H5       Shell    66 P   1     bf  196 -   198          3.621207482749         -2.313896095732          4.330617999711
      0.8000000000D+00  0.1000000000D+01
 Atom O6       Shell    67 S   6     bf  199 -   199          4.960301590707          0.667235406153         -2.774590960079
      0.2703238263D+05  0.5722733521D-03
      0.4052387139D+04  0.4435323349D-02
      0.9223272271D+03  0.2302010771D-01
      0.2612407099D+03  0.9282249067D-01
      0.8535464135D+02  0.2937850001D+00
      0.3103503524D+02  0.6740160450D+00
 Atom O6       Shell    68 S   2     bf  200 -   200          4.960301590707          0.667235406153         -2.774590960079
      0.1226086073D+02  0.6383993703D+00
      0.4998707601D+01  0.3953458713D+00
 Atom O6       Shell    69 S   1     bf  201 -   201          4.960301590707          0.667235406153         -2.774590960079
      0.1170310816D+01  0.1000000000D+01
 Atom O6       Shell    70 S   1     bf  202 -   202          4.960301590707          0.667235406153         -2.774590960079
      0.4647474099D+00  0.1000000000D+01
 Atom O6       Shell    71 S   1     bf  203 -   203          4.960301590707          0.667235406153         -2.774590960079
      0.1850453636D+00  0.1000000000D+01
 Atom O6       Shell    72 P   4     bf  204 -   206          4.960301590707          0.667235406153         -2.774590960079
      0.6327495480D+02  0.1201833222D-01
      0.1462704938D+02  0.8300542179D-01
      0.4450122346D+01  0.3199174393D+00
      0.1527579965D+01  0.7071554292D+00
 Atom O6       Shell    73 P   1     bf  207 -   209          4.960301590707          0.667235406153         -2.774590960079
      0.5293511794D+00  0.1000000000D+01
 Atom O6       Shell    74 P   1     bf  210 -   212          4.960301590707          0.667235406153         -2.774590960079
      0.1747842127D+00  0.1000000000D+01
 Atom O6       Shell    75 D   1     bf  213 -   217          4.960301590707          0.667235406153         -2.774590960079
      0.2314000000D+01  0.1000000000D+01
 Atom O6       Shell    76 D   1     bf  218 -   222          4.960301590707          0.667235406153         -2.774590960079
      0.6450000000D+00  0.1000000000D+01
 Atom O6       Shell    77 F   1     bf  223 -   229          4.960301590707          0.667235406153         -2.774590960079
      0.1428000000D+01  0.1000000000D+01
 Atom H7       Shell    78 S   3     bf  230 -   230          5.794771001593          2.260201230586         -3.086745175016
      0.3406134100D+02  0.2543930721D-01
      0.5123574600D+01  0.1900859489D+00
      0.1164662600D+01  0.8524411301D+00
 Atom H7       Shell    79 S   1     bf  231 -   231          5.794771001593          2.260201230586         -3.086745175016
      0.3272304100D+00  0.1000000000D+01
 Atom H7       Shell    80 S   1     bf  232 -   232          5.794771001593          2.260201230586         -3.086745175016
      0.1030724100D+00  0.1000000000D+01
 Atom H7       Shell    81 P   1     bf  233 -   235          5.794771001593          2.260201230586         -3.086745175016
      0.8000000000D+00  0.1000000000D+01
 Atom O8       Shell    82 S   6     bf  236 -   236          1.465830295794          3.848174535189          0.749673312124
      0.2703238263D+05  0.5722733521D-03
      0.4052387139D+04  0.4435323349D-02
      0.9223272271D+03  0.2302010771D-01
      0.2612407099D+03  0.9282249067D-01
      0.8535464135D+02  0.2937850001D+00
      0.3103503524D+02  0.6740160450D+00
 Atom O8       Shell    83 S   2     bf  237 -   237          1.465830295794          3.848174535189          0.749673312124
      0.1226086073D+02  0.6383993703D+00
      0.4998707601D+01  0.3953458713D+00
 Atom O8       Shell    84 S   1     bf  238 -   238          1.465830295794          3.848174535189          0.749673312124
      0.1170310816D+01  0.1000000000D+01
 Atom O8       Shell    85 S   1     bf  239 -   239          1.465830295794          3.848174535189          0.749673312124
      0.4647474099D+00  0.1000000000D+01
 Atom O8       Shell    86 S   1     bf  240 -   240          1.465830295794          3.848174535189          0.749673312124
      0.1850453636D+00  0.1000000000D+01
 Atom O8       Shell    87 P   4     bf  241 -   243          1.465830295794          3.848174535189          0.749673312124
      0.6327495480D+02  0.1201833222D-01
      0.1462704938D+02  0.8300542179D-01
      0.4450122346D+01  0.3199174393D+00
      0.1527579965D+01  0.7071554292D+00
 Atom O8       Shell    88 P   1     bf  244 -   246          1.465830295794          3.848174535189          0.749673312124
      0.5293511794D+00  0.1000000000D+01
 Atom O8       Shell    89 P   1     bf  247 -   249          1.465830295794          3.848174535189          0.749673312124
      0.1747842127D+00  0.1000000000D+01
 Atom O8       Shell    90 D   1     bf  250 -   254          1.465830295794          3.848174535189          0.749673312124
      0.2314000000D+01  0.1000000000D+01
 Atom O8       Shell    91 D   1     bf  255 -   259          1.465830295794          3.848174535189          0.749673312124
      0.6450000000D+00  0.1000000000D+01
 Atom O8       Shell    92 F   1     bf  260 -   266          1.465830295794          3.848174535189          0.749673312124
      0.1428000000D+01  0.1000000000D+01
 Atom H9       Shell    93 S   3     bf  267 -   267          0.659763385263          5.276448902607         -0.053972838540
      0.3406134100D+02  0.2543930721D-01
      0.5123574600D+01  0.1900859489D+00
      0.1164662600D+01  0.8524411301D+00
 Atom H9       Shell    94 S   1     bf  268 -   268          0.659763385263          5.276448902607         -0.053972838540
      0.3272304100D+00  0.1000000000D+01
 Atom H9       Shell    95 S   1     bf  269 -   269          0.659763385263          5.276448902607         -0.053972838540
      0.1030724100D+00  0.1000000000D+01
 Atom H9       Shell    96 P   1     bf  270 -   272          0.659763385263          5.276448902607         -0.053972838540
      0.8000000000D+00  0.1000000000D+01
 Atom O10      Shell    97 S   6     bf  273 -   273         -2.882170689286         -0.498348476319          2.061537300074
      0.2703238263D+05  0.5722733521D-03
      0.4052387139D+04  0.4435323349D-02
      0.9223272271D+03  0.2302010771D-01
      0.2612407099D+03  0.9282249067D-01
      0.8535464135D+02  0.2937850001D+00
      0.3103503524D+02  0.6740160450D+00
 Atom O10      Shell    98 S   2     bf  274 -   274         -2.882170689286         -0.498348476319          2.061537300074
      0.1226086073D+02  0.6383993703D+00
      0.4998707601D+01  0.3953458713D+00
 Atom O10      Shell    99 S   1     bf  275 -   275         -2.882170689286         -0.498348476319          2.061537300074
      0.1170310816D+01  0.1000000000D+01
 Atom O10      Shell   100 S   1     bf  276 -   276         -2.882170689286         -0.498348476319          2.061537300074
      0.4647474099D+00  0.1000000000D+01
 Atom O10      Shell   101 S   1     bf  277 -   277         -2.882170689286         -0.498348476319          2.061537300074
      0.1850453636D+00  0.1000000000D+01
 Atom O10      Shell   102 P   4     bf  278 -   280         -2.882170689286         -0.498348476319          2.061537300074
      0.6327495480D+02  0.1201833222D-01
      0.1462704938D+02  0.8300542179D-01
      0.4450122346D+01  0.3199174393D+00
      0.1527579965D+01  0.7071554292D+00
 Atom O10      Shell   103 P   1     bf  281 -   283         -2.882170689286         -0.498348476319          2.061537300074
      0.5293511794D+00  0.1000000000D+01
 Atom O10      Shell   104 P   1     bf  284 -   286         -2.882170689286         -0.498348476319          2.061537300074
      0.1747842127D+00  0.1000000000D+01
 Atom O10      Shell   105 D   1     bf  287 -   291         -2.882170689286         -0.498348476319          2.061537300074
      0.2314000000D+01  0.1000000000D+01
 Atom O10      Shell   106 D   1     bf  292 -   296         -2.882170689286         -0.498348476319          2.061537300074
      0.6450000000D+00  0.1000000000D+01
 Atom O10      Shell   107 F   1     bf  297 -   303         -2.882170689286         -0.498348476319          2.061537300074
      0.1428000000D+01  0.1000000000D+01
 Atom O11      Shell   108 S   6     bf  304 -   304         -2.696294468425          0.564744747608         -2.263923617878
      0.2703238263D+05  0.5722733521D-03
      0.4052387139D+04  0.4435323349D-02
      0.9223272271D+03  0.2302010771D-01
      0.2612407099D+03  0.9282249067D-01
      0.8535464135D+02  0.2937850001D+00
      0.3103503524D+02  0.6740160450D+00
 Atom O11      Shell   109 S   2     bf  305 -   305         -2.696294468425          0.564744747608         -2.263923617878
      0.1226086073D+02  0.6383993703D+00
      0.4998707601D+01  0.3953458713D+00
 Atom O11      Shell   110 S   1     bf  306 -   306         -2.696294468425          0.564744747608         -2.263923617878
      0.1170310816D+01  0.1000000000D+01
 Atom O11      Shell   111 S   1     bf  307 -   307         -2.696294468425          0.564744747608         -2.263923617878
      0.4647474099D+00  0.1000000000D+01
 Atom O11      Shell   112 S   1     bf  308 -   308         -2.696294468425          0.564744747608         -2.263923617878
      0.1850453636D+00  0.1000000000D+01
 Atom O11      Shell   113 P   4     bf  309 -   311         -2.696294468425          0.564744747608         -2.263923617878
      0.6327495480D+02  0.1201833222D-01
      0.1462704938D+02  0.8300542179D-01
      0.4450122346D+01  0.3199174393D+00
      0.1527579965D+01  0.7071554292D+00
 Atom O11      Shell   114 P   1     bf  312 -   314         -2.696294468425          0.564744747608         -2.263923617878
      0.5293511794D+00  0.1000000000D+01
 Atom O11      Shell   115 P   1     bf  315 -   317         -2.696294468425          0.564744747608         -2.263923617878
      0.1747842127D+00  0.1000000000D+01
 Atom O11      Shell   116 D   1     bf  318 -   322         -2.696294468425          0.564744747608         -2.263923617878
      0.2314000000D+01  0.1000000000D+01
 Atom O11      Shell   117 D   1     bf  323 -   327         -2.696294468425          0.564744747608         -2.263923617878
      0.6450000000D+00  0.1000000000D+01
 Atom O11      Shell   118 F   1     bf  328 -   334         -2.696294468425          0.564744747608         -2.263923617878
      0.1428000000D+01  0.1000000000D+01
 Atom S12      Shell   119 S   7     bf  335 -   335         -4.623935169914          0.032007341966         -0.181900523999
      0.6070092810D+05  0.5238007490D-03
      0.9102610685D+04  0.4050632678D-02
      0.2071416601D+04  0.2082700417D-01
      0.5860247682D+03  0.8149685034D-01
      0.1905539502D+03  0.2374911384D+00
      0.6763038426D+02  0.4472617151D+00
      0.2512730691D+02  0.3489191844D+00
 Atom S12      Shell   120 S   3     bf  336 -   336         -4.623935169914          0.032007341966         -0.181900523999
      0.1125746301D+03  0.1004556989D+00
      0.3479555422D+02  0.4339117295D+00
      0.6511555622D+01 -0.1208433059D+01
 Atom S12      Shell   121 S   2     bf  337 -   337         -4.623935169914          0.032007341966         -0.181900523999
      0.3239903226D+01  0.6749812942D+00
      0.1547716088D+01  0.3470879576D+00
 Atom S12      Shell   122 S   1     bf  338 -   338         -4.623935169914          0.032007341966         -0.181900523999
      0.4054103011D+00  0.1000000000D+01
 Atom S12      Shell   123 S   1     bf  339 -   339         -4.623935169914          0.032007341966         -0.181900523999
      0.1455065106D+00  0.1000000000D+01
 Atom S12      Shell   124 P   5     bf  340 -   342         -4.623935169914          0.032007341966         -0.181900523999
      0.5643671603D+03  0.3488692363D-02
      0.1334262438D+03  0.2768512678D-01
      0.4246827119D+02  0.1265940018D+00
      0.1561652758D+02  0.3616592567D+00
      0.6109398847D+01  0.6122203444D+00
 Atom S12      Shell   125 P   1     bf  343 -   345         -4.623935169914          0.032007341966         -0.181900523999
      0.2440416020D+01  0.1000000000D+01
 Atom S12      Shell   126 P   1     bf  346 -   348         -4.623935169914          0.032007341966         -0.181900523999
      0.8388220130D+00  0.1000000000D+01
 Atom S12      Shell   127 P   1     bf  349 -   351         -4.623935169914          0.032007341966         -0.181900523999
      0.3128874690D+00  0.1000000000D+01
 Atom S12      Shell   128 P   1     bf  352 -   354         -4.623935169914          0.032007341966         -0.181900523999
      0.1077010900D+00  0.1000000000D+01
 Atom S12      Shell   129 D   2     bf  355 -   359         -4.623935169914          0.032007341966         -0.181900523999
      0.3756000000D+01  0.1828519746D+00
      0.8120000000D+00  0.9142598730D+00
 Atom S12      Shell   130 D   1     bf  360 -   364         -4.623935169914          0.032007341966         -0.181900523999
      0.2730000000D+00  0.1000000000D+01
 Atom S12      Shell   131 F   1     bf  365 -   371         -4.623935169914          0.032007341966         -0.181900523999
      0.5570000000D+00  0.1000000000D+01
 Atom O13      Shell   132 S   6     bf  372 -   372         -6.117179111963         -2.208038473262         -0.795249920702
      0.2703238263D+05  0.5722733521D-03
      0.4052387139D+04  0.4435323349D-02
      0.9223272271D+03  0.2302010771D-01
      0.2612407099D+03  0.9282249067D-01
      0.8535464135D+02  0.2937850001D+00
      0.3103503524D+02  0.6740160450D+00
 Atom O13      Shell   133 S   2     bf  373 -   373         -6.117179111963         -2.208038473262         -0.795249920702
      0.1226086073D+02  0.6383993703D+00
      0.4998707601D+01  0.3953458713D+00
 Atom O13      Shell   134 S   1     bf  374 -   374         -6.117179111963         -2.208038473262         -0.795249920702
      0.1170310816D+01  0.1000000000D+01
 Atom O13      Shell   135 S   1     bf  375 -   375         -6.117179111963         -2.208038473262         -0.795249920702
      0.4647474099D+00  0.1000000000D+01
 Atom O13      Shell   136 S   1     bf  376 -   376         -6.117179111963         -2.208038473262         -0.795249920702
      0.1850453636D+00  0.1000000000D+01
 Atom O13      Shell   137 P   4     bf  377 -   379         -6.117179111963         -2.208038473262         -0.795249920702
      0.6327495480D+02  0.1201833222D-01
      0.1462704938D+02  0.8300542179D-01
      0.4450122346D+01  0.3199174393D+00
      0.1527579965D+01  0.7071554292D+00
 Atom O13      Shell   138 P   1     bf  380 -   382         -6.117179111963         -2.208038473262         -0.795249920702
      0.5293511794D+00  0.1000000000D+01
 Atom O13      Shell   139 P   1     bf  383 -   385         -6.117179111963         -2.208038473262         -0.795249920702
      0.1747842127D+00  0.1000000000D+01
 Atom O13      Shell   140 D   1     bf  386 -   390         -6.117179111963         -2.208038473262         -0.795249920702
      0.2314000000D+01  0.1000000000D+01
 Atom O13      Shell   141 D   1     bf  391 -   395         -6.117179111963         -2.208038473262         -0.795249920702
      0.6450000000D+00  0.1000000000D+01
 Atom O13      Shell   142 F   1     bf  396 -   402         -6.117179111963         -2.208038473262         -0.795249920702
      0.1428000000D+01  0.1000000000D+01
 Atom H14      Shell   143 S   3     bf  403 -   403          5.804643022684         -0.596765873389         -3.784928304354
      0.3406134100D+02  0.2543930721D-01
      0.5123574600D+01  0.1900859489D+00
      0.1164662600D+01  0.8524411301D+00
 Atom H14      Shell   144 S   1     bf  404 -   404          5.804643022684         -0.596765873389         -3.784928304354
      0.3272304100D+00  0.1000000000D+01
 Atom H14      Shell   145 S   1     bf  405 -   405          5.804643022684         -0.596765873389         -3.784928304354
      0.1030724100D+00  0.1000000000D+01
 Atom H14      Shell   146 P   1     bf  406 -   408          5.804643022684         -0.596765873389         -3.784928304354
      0.8000000000D+00  0.1000000000D+01
 Effective core potential in the form of general ECP input:
      1 0
 Pa1-ECP   5 60
 H component
  1
  2        1.0000000        0.00000000    0.00000000
 S-H projection
  1
  2       15.2691737      475.47573283    0.00000000
 P-H projection
  1
  2        9.9577370      207.66485962    0.00000000
 D-H projection
  1
  2        8.9431413      156.67411988    0.00000000
 F-H projection
  1
  2        7.0104666       67.98223685    0.00000000
 G-H projection
  1
  2       12.2010560      -57.63059989    0.00000000
 
 There are   476 symmetry adapted cartesian basis functions of A   symmetry.
 There are   408 symmetry adapted basis functions of A   symmetry.
   408 basis functions,   717 primitive gaussians,   476 cartesian basis functions
    58 alpha electrons       58 beta electrons
       nuclear repulsion energy      1093.5705331062 Hartrees.
 IExCor=  404 DFT=T Ex=B Corr=P86 ExCW=0 ScaHFX=  0.000000
 ScaDFX=  1.000000  1.000000  1.000000  1.000000 ScalE2=  1.000000  1.000000
 IRadAn=      5 IRanWt=     -1 IRanGd=            0 ICorTp=0 IEmpDi=  4
 NAtoms=   14 NActive=   14 NUniq=   14 SFac= 1.00D+00 NAtFMM=   60 NAOKFM=F Big=F
 Integral buffers will be    131072 words long.
 Raffenetti 2 integral format.
 Two-electron integral symmetry is turned on.
 Leave Link  301 at Thu Nov 23 15:38:26 2023, MaxMem=  2147483648 cpu:               3.1 elap:               2.9
 (Enter /home/pcmt/gaussian/g16.C.01/g16/l302.exe)
 NPDir=0 NMtPBC=     1 NCelOv=     1 NCel=       1 NClECP=     1 NCelD=      1
         NCelK=      1 NCelE2=     1 NClLst=     1 CellRange=     0.0.
 One-electron integrals computed using PRISM.
 One-electron integral symmetry used in STVInt
   1 Symmetry operations used in ECPInt.
 ECPInt:  NShTT=   10731 NPrTT=   33418 LenC2=    9790 LenP2D=   22103.
 LDataN:  DoStor=T MaxTD1= 9 Len=  602
 NBasis=   408 RedAO= T EigKep=  5.92D-04  NBF=   408
 NBsUse=   408 1.00D-06 EigRej= -1.00D+00 NBFU=   408
 Precomputing XC quadrature grid using
 IXCGrd= 4 IRadAn=           5 IRanWt=          -1 IRanGd=           0 AccXCQ= 0.00D+00.
 Defaulting to unpruned grid for atomic number  91.
 Generated NRdTot=       0 NPtTot=           0 NUsed=           0 NTot=          32
 NSgBfM=   467   467   467   467   467 MxSgAt=    14 MxSgA2=    14.
 Leave Link  302 at Thu Nov 23 15:38:35 2023, MaxMem=  2147483648 cpu:              16.9 elap:               8.9
 (Enter /home/pcmt/gaussian/g16.C.01/g16/l303.exe)
 DipDrv:  MaxL=1.
 Leave Link  303 at Thu Nov 23 15:38:39 2023, MaxMem=  2147483648 cpu:               4.8 elap:               4.3
 (Enter /home/pcmt/gaussian/g16.C.01/g16/l401.exe)
 ExpMin= 2.32D-02 ExpMax= 6.07D+04 ExpMxC= 1.20D+04 IAcc=3 IRadAn=         5 AccDes= 0.00D+00
 Harris functional with IExCor=  404 and IRadAn=       5 diagonalized for initial guess.
 HarFok:  IExCor=  404 AccDes= 0.00D+00 IRadAn=         5 IDoV= 1 UseB2=F ITyADJ=14
 ICtDFT=  3500011 ScaDFX=  1.000000  1.000000  1.000000  1.000000
 Defaulting to unpruned grid for atomic number  91.
 FoFCou: FMM=F IPFlag=           0 FMFlag=      100000 FMFlg1=           0
         NFxFlg=           0 DoJE=T BraDBF=F KetDBF=T FulRan=T
         wScrn=  0.000000 ICntrl=       500 IOpCl=  0 I1Cent=   200000004 NGrid=           0
         NMat0=    1 NMatS0=      1 NMatT0=    0 NMatD0=    1 NMtDS0=    0 NMtDT0=    0
 Petite list used in FoFCou.
 Harris En= -1446.39304287077    
 JPrj=0 DoOrth=F DoCkMO=F.
 Leave Link  401 at Thu Nov 23 15:38:50 2023, MaxMem=  2147483648 cpu:              44.4 elap:              10.3
 (Enter /home/pcmt/gaussian/g16.C.01/g16/l502.exe)
 Integral symmetry usage will be decided dynamically.
 Closed shell SCF:
 Using DIIS extrapolation, IDIIS=  1040.
 NGot=  2147483648 LenX=  2147022356 LenY=  2146795304
 Requested convergence on RMS density matrix=1.00D-08 within 100 cycles.
 Requested convergence on MAX density matrix=1.00D-06.
 Requested convergence on             energy=1.00D-06.
 No special actions if energy rises.
 Fock matrices will be formed incrementally for  20 cycles.

 Cycle   1  Pass 1  IDiag  1:
 FoFJK:  IHMeth= 1 ICntrl=     500 DoSepK=F KAlg= 0 I1Cent=           0 FoldK=F
 IRaf= 860000000 NMat=       1 IRICut=       1 DoRegI=T DoRafI=F ISym2E= 0 IDoP0=0 IntGTp=1.
 FoFCou: FMM=F IPFlag=           0 FMFlag=      100000 FMFlg1=           0
         NFxFlg=           0 DoJE=T BraDBF=F KetDBF=F FulRan=T
         wScrn=  0.000000 ICntrl=       500 IOpCl=  0 I1Cent=           0 NGrid=           0
         NMat0=    1 NMatS0=      1 NMatT0=    0 NMatD0=    1 NMtDS0=    0 NMtDT0=    0
 Symmetry not used in FoFCou.
 Defaulting to unpruned grid for atomic number  91.
 Defaulting to unpruned grid for atomic number  91.
 Defaulting to unpruned grid for atomic number  91.
 Defaulting to unpruned grid for atomic number  91.
 Defaulting to unpruned grid for atomic number  91.
 Defaulting to unpruned grid for atomic number  91.
 Defaulting to unpruned grid for atomic number  91.
 Defaulting to unpruned grid for atomic number  91.
 E= -1443.38336287062    
 DIIS: error= 3.63D-02 at cycle   1 NSaved=   1.
 NSaved= 1 IEnMin= 1 EnMin= -1443.38336287062     IErMin= 1 ErrMin= 3.63D-02
 ErrMax= 3.63D-02  0.00D+00 EMaxC= 1.00D-01 BMatC= 1.97D+00 BMatP= 1.97D+00
 IDIUse=3 WtCom= 6.37D-01 WtEn= 3.63D-01
 Coeff-Com:  0.100D+01
 Coeff-En:   0.100D+01
 Coeff:      0.100D+01
 Gap=    -0.020 Goal=   None    Shift=    0.000
 GapD=   -0.020 DampG=0.250 DampE=0.250 DampFc=0.1250 IDamp=-1.
 Damping current iteration by 1.25D-01
 RMSDP=1.09D-02 MaxDP=1.29D+00              OVMax= 9.94D-01

 Cycle   2  Pass 1  IDiag  1:
 RMSU=  1.34D-03    CP:  1.01D+00
 E= -1443.39652821140     Delta-E=       -0.013165340778 Rises=F Damp=T
 DIIS: error= 2.18D-02 at cycle   2 NSaved=   2.
 NSaved= 2 IEnMin= 2 EnMin= -1443.39652821140     IErMin= 2 ErrMin= 2.18D-02
 ErrMax= 2.18D-02  0.00D+00 EMaxC= 1.00D-01 BMatC= 4.08D-01 BMatP= 1.97D+00
 IDIUse=3 WtCom= 7.82D-01 WtEn= 2.18D-01
 Coeff-Com: -0.651D-01 0.107D+01
 Coeff-En:   0.495D+00 0.505D+00
 Coeff:      0.570D-01 0.943D+00
 Gap=    -0.223 Goal=   None    Shift=    0.000
 RMSDP=2.21D-02 MaxDP=4.38D+00 DE=-1.32D-02 OVMax= 8.97D-01

 Cycle   3  Pass 1  IDiag  1:
 RMSU=  2.18D-02    CP:  9.92D-01  3.00D+00
 E= -1440.55796505036     Delta-E=        2.838563161040 Rises=F Damp=F
 DIIS: error= 7.84D-02 at cycle   3 NSaved=   3.
 NSaved= 3 IEnMin= 2 EnMin= -1443.39652821140     IErMin= 2 ErrMin= 2.18D-02
 ErrMax= 7.84D-02  0.00D+00 EMaxC= 1.00D-01 BMatC= 4.07D+00 BMatP= 4.08D-01
 IDIUse=2 WtCom= 0.00D+00 WtEn= 1.00D+00
 EnCoef did     3 forward-backward iterations
 Coeff-En:   0.355D+00 0.474D+00 0.172D+00
 Coeff:      0.355D+00 0.474D+00 0.172D+00
 Gap=     0.238 Goal=   None    Shift=    0.000
 RMSDP=2.26D-02 MaxDP=4.35D+00 DE= 2.84D+00 OVMax= 8.48D-01

 Cycle   4  Pass 1  IDiag  1:
 RMSU=  3.49D-03    CP:  1.05D+00  3.00D+00 -2.25D-02
 E= -1420.46694768515     Delta-E=       20.091017365212 Rises=F Damp=F
 DIIS: error= 3.89D-01 at cycle   4 NSaved=   4.
 NSaved= 4 IEnMin= 2 EnMin= -1443.39652821140     IErMin= 2 ErrMin= 2.18D-02
 ErrMax= 3.89D-01  0.00D+00 EMaxC= 1.00D-01 BMatC= 4.58D+01 BMatP= 4.08D-01
 IDIUse=2 WtCom= 0.00D+00 WtEn= 1.00D+00
 EnCoef did   100 forward-backward iterations
 Coeff-En:   0.686D+00 0.193D-01 0.171D+00 0.124D+00
 Coeff:      0.686D+00 0.193D-01 0.171D+00 0.124D+00
 Gap=     0.029 Goal=   None    Shift=    0.000
 RMSDP=3.75D-03 MaxDP=2.56D-01 DE= 2.01D+01 OVMax= 9.70D-01

 Cycle   5  Pass 1  IDiag  1:
 RMSU=  2.15D-03    CP:  1.05D+00  1.89D+00 -2.86D-03  3.50D-01
 E= -1444.18380598225     Delta-E=      -23.716858297104 Rises=F Damp=F
 DIIS: error= 3.25D-02 at cycle   5 NSaved=   5.
 NSaved= 5 IEnMin= 5 EnMin= -1444.18380598225     IErMin= 2 ErrMin= 2.18D-02
 ErrMax= 3.25D-02  0.00D+00 EMaxC= 1.00D-01 BMatC= 8.95D-01 BMatP= 4.08D-01
 IDIUse=2 WtCom= 0.00D+00 WtEn= 1.00D+00
 EnCoef did   100 forward-backward iterations
 Coeff-En:   0.349D+00 0.347D-02 0.000D+00 0.000D+00 0.648D+00
 Coeff:      0.349D+00 0.347D-02 0.000D+00 0.000D+00 0.648D+00
 Gap=     0.106 Goal=   None    Shift=    0.000
 RMSDP=1.54D-03 MaxDP=1.03D-01 DE=-2.37D+01 OVMax= 2.41D-01

 Cycle   6  Pass 1  IDiag  1:
 RMSU=  1.04D-03    CP:  1.05D+00  1.31D+00 -4.18D-03  1.97D-01  7.07D-01
 E= -1444.53979434936     Delta-E=       -0.355988367108 Rises=F Damp=F
 DIIS: error= 1.86D-02 at cycle   6 NSaved=   6.
 NSaved= 6 IEnMin= 6 EnMin= -1444.53979434936     IErMin= 6 ErrMin= 1.86D-02
 ErrMax= 1.86D-02  0.00D+00 EMaxC= 1.00D-01 BMatC= 2.51D-01 BMatP= 4.08D-01
 IDIUse=3 WtCom= 8.14D-01 WtEn= 1.86D-01
 Coeff-Com:  0.424D-01 0.214D+00 0.213D-01-0.135D-01 0.357D+00 0.379D+00
 Coeff-En:   0.000D+00 0.000D+00 0.000D+00 0.000D+00 0.331D+00 0.669D+00
 Coeff:      0.345D-01 0.175D+00 0.173D-01-0.110D-01 0.352D+00 0.433D+00
 Gap=     0.107 Goal=   None    Shift=    0.000
 RMSDP=7.73D-04 MaxDP=4.90D-02 DE=-3.56D-01 OVMax= 1.32D-01

 Cycle   7  Pass 1  IDiag  1:
 RMSU=  4.70D-04    CP:  1.04D+00  1.39D+00 -4.14D-03  2.27D-01  7.68D-01
                    CP:  4.46D-01
 E= -1444.69913534882     Delta-E=       -0.159340999464 Rises=F Damp=F
 DIIS: error= 5.76D-03 at cycle   7 NSaved=   7.
 NSaved= 7 IEnMin= 7 EnMin= -1444.69913534882     IErMin= 7 ErrMin= 5.76D-03
 ErrMax= 5.76D-03  0.00D+00 EMaxC= 1.00D-01 BMatC= 4.95D-02 BMatP= 2.51D-01
 IDIUse=3 WtCom= 9.42D-01 WtEn= 5.76D-02
 EnCoef did     5 forward-backward iterations
 Coeff-Com: -0.600D-01 0.102D+00-0.139D-02-0.144D-02 0.144D+00 0.334D+00
 Coeff-Com:  0.482D+00
 Coeff-En:   0.000D+00 0.000D+00 0.000D+00 0.000D+00 0.603D-01 0.139D+00
 Coeff-En:   0.801D+00
 Coeff:     -0.565D-01 0.962D-01-0.131D-02-0.136D-02 0.139D+00 0.323D+00
 Coeff:      0.501D+00
 Gap=     0.089 Goal=   None    Shift=    0.000
 RMSDP=3.69D-04 MaxDP=2.70D-02 DE=-1.59D-01 OVMax= 5.30D-02

 Cycle   8  Pass 1  IDiag  1:
 RMSU=  2.06D-04    CP:  1.05D+00  1.50D+00 -5.39D-03  2.46D-01  7.88D-01
                    CP:  5.65D-01  5.42D-01
 E= -1444.73597381316     Delta-E=       -0.036838464336 Rises=F Damp=F
 DIIS: error= 2.20D-03 at cycle   8 NSaved=   8.
 NSaved= 8 IEnMin= 8 EnMin= -1444.73597381316     IErMin= 8 ErrMin= 2.20D-03
 ErrMax= 2.20D-03  0.00D+00 EMaxC= 1.00D-01 BMatC= 4.45D-03 BMatP= 4.95D-02
 IDIUse=3 WtCom= 9.78D-01 WtEn= 2.20D-02
 Coeff-Com: -0.384D-01 0.494D-01-0.826D-02 0.253D-03 0.602D-01 0.136D+00
 Coeff-Com:  0.284D+00 0.517D+00
 Coeff-En:   0.000D+00 0.000D+00 0.000D+00 0.000D+00 0.000D+00 0.000D+00
 Coeff-En:   0.000D+00 0.100D+01
 Coeff:     -0.376D-01 0.483D-01-0.808D-02 0.247D-03 0.589D-01 0.133D+00
 Coeff:      0.278D+00 0.528D+00
 Gap=     0.069 Goal=   None    Shift=    0.000
 RMSDP=1.44D-04 MaxDP=7.50D-03 DE=-3.68D-02 OVMax= 1.21D-02

 Cycle   9  Pass 1  IDiag  1:
 RMSU=  1.20D-04    CP:  1.05D+00  1.51D+00 -5.47D-03  2.47D-01  8.03D-01
                    CP:  5.90D-01  6.45D-01  7.73D-01
 E= -1444.73806301597     Delta-E=       -0.002089202805 Rises=F Damp=F
 DIIS: error= 1.65D-03 at cycle   9 NSaved=   9.
 NSaved= 9 IEnMin= 9 EnMin= -1444.73806301597     IErMin= 9 ErrMin= 1.65D-03
 ErrMax= 1.65D-03  0.00D+00 EMaxC= 1.00D-01 BMatC= 2.31D-03 BMatP= 4.45D-03
 IDIUse=3 WtCom= 9.83D-01 WtEn= 1.65D-02
 Coeff-Com: -0.130D-01 0.190D-01-0.534D-02 0.153D-02 0.380D-02-0.885D-02
 Coeff-Com:  0.144D-01 0.378D+00 0.610D+00
 Coeff-En:   0.000D+00 0.000D+00 0.000D+00 0.000D+00 0.000D+00 0.000D+00
 Coeff-En:   0.000D+00 0.185D+00 0.815D+00
 Coeff:     -0.128D-01 0.187D-01-0.525D-02 0.150D-02 0.373D-02-0.871D-02
 Coeff:      0.142D-01 0.375D+00 0.613D+00
 Gap=     0.072 Goal=   None    Shift=    0.000
 RMSDP=1.18D-04 MaxDP=1.10D-02 DE=-2.09D-03 OVMax= 1.42D-02

 Cycle  10  Pass 1  IDiag  1:
 RMSU=  8.25D-05    CP:  1.05D+00  1.53D+00 -5.71D-03  2.51D-01  8.09D-01
                    CP:  6.14D-01  6.71D-01  1.07D+00  1.16D+00
 E= -1444.74024872404     Delta-E=       -0.002185708075 Rises=F Damp=F
 DIIS: error= 1.01D-03 at cycle  10 NSaved=  10.
 NSaved=10 IEnMin=10 EnMin= -1444.74024872404     IErMin=10 ErrMin= 1.01D-03
 ErrMax= 1.01D-03  0.00D+00 EMaxC= 1.00D-01 BMatC= 7.41D-04 BMatP= 2.31D-03
 IDIUse=3 WtCom= 9.90D-01 WtEn= 1.01D-02
 Coeff-Com:  0.175D-01-0.123D-01-0.157D-02 0.840D-03-0.190D-01-0.948D-01
 Coeff-Com: -0.177D+00 0.511D-01 0.497D+00 0.739D+00
 Coeff-En:   0.000D+00 0.000D+00 0.000D+00 0.000D+00 0.000D+00 0.000D+00
 Coeff-En:   0.000D+00 0.000D+00 0.000D+00 0.100D+01
 Coeff:      0.173D-01-0.121D-01-0.156D-02 0.831D-03-0.188D-01-0.939D-01
 Coeff:     -0.175D+00 0.506D-01 0.492D+00 0.742D+00
 Gap=     0.067 Goal=   None    Shift=    0.000
 RMSDP=2.16D-04 MaxDP=1.74D-02 DE=-2.19D-03 OVMax= 3.19D-02

 Cycle  11  Pass 1  IDiag  1:
 RMSU=  7.79D-05    CP:  1.05D+00  1.58D+00 -6.41D-03  2.57D-01  8.18D-01
                    CP:  6.39D-01  7.13D-01  1.58D+00  2.21D+00  2.05D+00
 E= -1444.74128262577     Delta-E=       -0.001033901726 Rises=F Damp=F
 DIIS: error= 1.65D-03 at cycle  11 NSaved=  11.
 NSaved=11 IEnMin=11 EnMin= -1444.74128262577     IErMin=10 ErrMin= 1.01D-03
 ErrMax= 1.65D-03  0.00D+00 EMaxC= 1.00D-01 BMatC= 2.38D-03 BMatP= 7.41D-04
 IDIUse=3 WtCom= 9.90D-01 WtEn= 1.01D-02
 Coeff-Com:  0.202D-01-0.152D-01-0.579D-03 0.548D-03-0.187D-01-0.872D-01
 Coeff-Com: -0.155D+00 0.643D-01 0.449D+00 0.551D+00 0.192D+00
 Coeff-En:   0.000D+00 0.000D+00 0.000D+00 0.000D+00 0.000D+00 0.000D+00
 Coeff-En:   0.000D+00 0.000D+00 0.000D+00 0.310D-01 0.969D+00
 Coeff:      0.199D-01-0.151D-01-0.573D-03 0.543D-03-0.185D-01-0.864D-01
 Coeff:     -0.153D+00 0.637D-01 0.445D+00 0.545D+00 0.200D+00
 Gap=     0.063 Goal=   None    Shift=    0.000
 RMSDP=1.87D-05 MaxDP=2.20D-03 DE=-1.03D-03 OVMax= 1.78D-03

 Cycle  12  Pass 1  IDiag  1:
 RMSU=  1.66D-05    CP:  1.05D+00  1.58D+00 -6.43D-03  2.57D-01  8.18D-01
                    CP:  6.39D-01  7.08D-01  1.60D+00  2.24D+00  2.05D+00
                    CP:  9.24D-01
 E= -1444.74121406597     Delta-E=        0.000068559798 Rises=F Damp=F
 DIIS: error= 1.57D-03 at cycle  12 NSaved=  12.
 NSaved=12 IEnMin=11 EnMin= -1444.74128262577     IErMin=10 ErrMin= 1.01D-03
 ErrMax= 1.57D-03  0.00D+00 EMaxC= 1.00D-01 BMatC= 2.18D-03 BMatP= 7.41D-04
 IDIUse=3 WtCom= 9.90D-01 WtEn= 1.01D-02
 Rare condition: small coef for last iteration:  0.000D+00
 Coeff-Com:  0.519D-02-0.428D-02 0.115D-02 0.249D-03-0.142D-01-0.187D-01
 Coeff-Com:  0.120D-01 0.244D+00 0.381D+00-0.264D+00-0.106D+01 0.172D+01
 Coeff-En:   0.000D+00 0.000D+00 0.000D+00 0.000D+00 0.000D+00 0.000D+00
 Coeff-En:   0.000D+00 0.000D+00 0.000D+00 0.866D-01 0.000D+00 0.913D+00
 Coeff:      0.519D-02-0.428D-02 0.115D-02 0.249D-03-0.142D-01-0.187D-01
 Coeff:      0.120D-01 0.244D+00 0.381D+00-0.264D+00-0.106D+01 0.172D+01
 Gap=     0.072 Goal=   None    Shift=    0.000
 RMSDP=1.31D-04 MaxDP=1.47D-02 DE= 6.86D-05 OVMax= 1.79D-02

 Cycle  13  Pass 1  IDiag  1:
 RMSU=  2.89D-05    CP:  1.05D+00  1.55D+00 -6.11D-03  2.53D-01  8.10D-01
                    CP:  6.17D-01  6.88D-01  1.37D+00  1.65D+00  1.18D+00
                    CP:  5.33D-01  9.39D-01
 E= -1444.74132706475     Delta-E=       -0.000112998785 Rises=F Damp=F
 DIIS: error= 5.41D-04 at cycle  13 NSaved=  13.
 NSaved=13 IEnMin=13 EnMin= -1444.74132706475     IErMin=13 ErrMin= 5.41D-04
 ErrMax= 5.41D-04  0.00D+00 EMaxC= 1.00D-01 BMatC= 4.05D-04 BMatP= 7.41D-04
 IDIUse=3 WtCom= 9.95D-01 WtEn= 5.41D-03
 Coeff-Com: -0.106D-02-0.814D-02 0.137D-02-0.142D-03-0.126D-01 0.214D-01
 Coeff-Com:  0.846D-01 0.185D+00 0.137D+00-0.604D+00-0.155D+01 0.216D+01
 Coeff-Com:  0.592D+00
 Coeff-En:   0.000D+00 0.000D+00 0.000D+00 0.000D+00 0.000D+00 0.000D+00
 Coeff-En:   0.000D+00 0.000D+00 0.000D+00 0.000D+00 0.000D+00 0.415D+00
 Coeff-En:   0.585D+00
 Coeff:     -0.105D-02-0.810D-02 0.137D-02-0.141D-03-0.125D-01 0.213D-01
 Coeff:      0.842D-01 0.184D+00 0.136D+00-0.601D+00-0.154D+01 0.215D+01
 Coeff:      0.592D+00
 Gap=     0.069 Goal=   None    Shift=    0.000
 RMSDP=5.62D-05 MaxDP=4.36D-03 DE=-1.13D-04 OVMax= 8.60D-03

 Cycle  14  Pass 1  IDiag  1:
 RMSU=  2.01D-05    CP:  1.05D+00  1.55D+00 -6.09D-03  2.52D-01  8.11D-01
                    CP:  6.20D-01  7.09D-01  1.45D+00  1.87D+00  1.54D+00
                    CP:  7.63D-01  1.92D+00  5.11D-01
 E= -1444.74192103722     Delta-E=       -0.000593972463 Rises=F Damp=F
 DIIS: error= 4.10D-04 at cycle  14 NSaved=  14.
 NSaved=14 IEnMin=14 EnMin= -1444.74192103722     IErMin=14 ErrMin= 4.10D-04
 ErrMax= 4.10D-04  0.00D+00 EMaxC= 1.00D-01 BMatC= 1.13D-04 BMatP= 4.05D-04
 IDIUse=3 WtCom= 9.96D-01 WtEn= 4.10D-03
 Coeff-Com: -0.265D-03-0.101D-01 0.134D-02-0.171D-03-0.111D-01 0.201D-01
 Coeff-Com:  0.627D-01 0.882D-01 0.784D-02-0.468D+00-0.974D+00 0.135D+01
 Coeff-Com:  0.361D+00 0.567D+00
[...]
  96         V                 0.464580          1.400029
  97         V                 0.478495          2.251287
  98         V                 0.486624          1.991143
  99         V                 0.497191          2.314957
 100         V                 0.504913          1.661642
 101         V                 0.525621          1.633116
 102         V                 0.532769          1.854170
 103         V                 0.548772          1.871331
 104         V                 0.555213          1.585514
 105         V                 0.568281          1.519579
 106         V                 0.583371          1.589779
 107         V                 0.592140          1.476629
 108         V                 0.595832          1.662323
 109         V                 0.606362          1.644051
 110         V                 0.621013          2.312972
 111         V                 0.626003          2.134656
 112         V                 0.629944          1.906378
 113         V                 0.642199          1.819162
 114         V                 0.650332          1.659407
 115         V                 0.664178          1.719823
 116         V                 0.676865          1.522780
 117         V                 0.701951          1.541564
 118         V                 0.718660          1.434321
 119         V                 0.724474          2.505847
 120         V                 0.730533          1.628155
 121         V                 0.741140          3.054504
 122         V                 0.758183          2.035722
 123         V                 0.761800          1.940752
 124         V                 0.772084          1.750039
 125         V                 0.779664          1.608799
 126         V                 0.796142          1.699853
 127         V                 0.813245          1.930380
 128         V                 0.820939          2.082709
 129         V                 0.834338          1.821777
 130         V                 0.845753          1.686982
 131         V                 0.853602          1.721097
 132         V                 0.871990          1.617748
 133         V                 0.884843          2.125362
 134         V                 0.897645          1.872445
 135         V                 0.926949          2.235352
 136         V                 0.966252          2.065053
 137         V                 0.996716          2.040424
 138         V                 1.007104          3.007340
 139         V                 1.025146          2.547846
 140         V                 1.035881          2.232075
 141         V                 1.060232          2.424124
 142         V                 1.097119          2.549412
 143         V                 1.105979          2.329545
 144         V                 1.151028          2.674377
 145         V                 1.161784          2.219352
 146         V                 1.179419          2.809998
 147         V                 1.208819          2.792813
 148         V                 1.222625          2.380491
 149         V                 1.233110          2.810039
 150         V                 1.256348          2.742770
 151         V                 1.267493          2.562154
 152         V                 1.273623          2.975193
 153         V                 1.290390          2.904202
 154         V                 1.295892          3.077170
 155         V                 1.302986          2.999569
 156         V                 1.320335          2.946610
 157         V                 1.335756          2.553468
 158         V                 1.340644          2.824548
 159         V                 1.344303          2.832103
 160         V                 1.406688          3.296010
 161         V                 1.417237          3.166876
 162         V                 1.432427          3.203425
 163         V                 1.437083          2.925885
 164         V                 1.452594          2.463103
 165         V                 1.469470          2.753454
 166         V                 1.489497          2.823127
 167         V                 1.496893          2.562350
 168         V                 1.501339          2.800992
 169         V                 1.517065          2.864978
 170         V                 1.538057          3.389121
 171         V                 1.556234          3.028262
 172         V                 1.576054          2.829021
 173         V                 1.579061          2.992063
 174         V                 1.608516          3.094043
 175         V                 1.635310          3.008237
 176         V                 1.644237          3.089775
 177         V                 1.672872          3.032834
 178         V                 1.674719          2.827438
 179         V                 1.702007          3.158265
 180         V                 1.709991          3.012390
 181         V                 1.724912          3.341260
 182         V                 1.734439          3.486700
 183         V                 1.745202          3.635424
 184         V                 1.750680          3.557909
 185         V                 1.760248          3.126647
 186         V                 1.770348          3.633765
 187         V                 1.781799          3.380928
 188         V                 1.791086          3.426594
 189         V                 1.816601          3.232071
 190         V                 1.844010          3.073329
 191         V                 1.850472          3.197564
 192         V                 1.865814          3.481693
 193         V                 1.883465          3.407662
 194         V                 1.908199          3.345600
 195         V                 1.924905          3.470714
 196         V                 1.926908          3.417386
 197         V                 1.974267          3.445217
 198         V                 1.984914          3.284826
 199         V                 1.994443          3.436449
 200         V                 2.017919          3.371497
 201         V                 2.039278          3.440201
 202         V                 2.070943          3.652475
 203         V                 2.076486          2.923451
 204         V                 2.092399          3.480044
 205         V                 2.099345          3.786217
 206         V                 2.140716          3.557438
 207         V                 2.176406          3.940443
 208         V                 2.187337          3.791323
 209         V                 2.208118          3.856896
 210         V                 2.219365          3.455853
 211         V                 2.224397          3.974944
 212         V                 2.235012          3.644772
 213         V                 2.250337          3.808469
 214         V                 2.256892          4.012051
 215         V                 2.265154          3.888034
 216         V                 2.286945          4.008468
 217         V                 2.301868          3.899266
 218         V                 2.330598          4.095771
 219         V                 2.388489          4.277274
 220         V                 2.392257          4.275719
 221         V                 2.402810          4.764220
 222         V                 2.417488          4.509943
 223         V                 2.432222          4.546623
 224         V                 2.451639          4.395586
 225         V                 2.485214          5.155786
 226         V                 2.514360          4.650511
 227         V                 2.529937          4.641725
 228         V                 2.536325          4.331940
 229         V                 2.542528          4.900374
 230         V                 2.566368          5.236722
 231         V                 2.581142          5.357980
 232         V                 2.584569          6.321643
 233         V                 2.590913          5.361654
 234         V                 2.597011          4.495031
 235         V                 2.624050          5.235087
 236         V                 2.634222          5.119958
 237         V                 2.651929          4.877866
 238         V                 2.653115          4.694008
 239         V                 2.713471          5.431837
 240         V                 2.749660          6.799896
 241         V                 2.768168          6.561174
 242         V                 2.784495          5.917483
 243         V                 2.812345          5.707916
 244         V                 2.936560          6.218147
 245         V                 2.948737          6.671887
 246         V                 2.957216          5.912207
 247         V                 2.968287          6.498982
 248         V                 2.982235          6.785206
 249         V                 3.009432          7.177068
 250         V                 3.039426          6.789088
 251         V                 3.081933          7.140482
 252         V                 3.085351          6.495238
 253         V                 3.119988          6.858996
 254         V                 3.140967          6.583181
 255         V                 3.157450          6.893112
 256         V                 3.181249          6.887343
 257         V                 3.213883          7.004125
 258         V                 3.263446          7.646080
 259         V                 3.284112          7.933140
 260         V                 3.317916          7.547104
 261         V                 3.356399          7.691036
 262         V                 3.477945          8.097170
 263         V                 3.581565          8.156669
 264         V                 3.604290          7.104178
 265         V                 3.718535          8.384611
 266         V                 3.828696          6.748733
 267         V                 3.841574          7.183967
 268         V                 3.853269          7.170130
 269         V                 3.898626          9.694291
 270         V                 3.911724          7.892342
 271         V                 3.979279          8.807613
 272         V                 4.006044          9.443627
 273         V                 4.015503          9.334510
 274         V                 4.082748          9.715495
 275         V                 4.109265          8.627586
 276         V                 4.145456          8.475895
 277         V                 4.230620          9.648819
 278         V                 4.270516          9.630229
 279         V                 4.434790          9.150339
 280         V                 5.024604          6.524421
 281         V                 5.147192          6.474590
 282         V                 5.148219          6.481164
 283         V                 5.154671          6.450576
 284         V                 5.156446          6.449700
 285         V                 5.160323          6.483256
 286         V                 5.164678          6.466586
 287         V                 5.174633          6.507536
 288         V                 5.183626          6.681743
 289         V                 5.188597          6.483906
 290         V                 5.193399          6.461250
 291         V                 5.195698          6.577681
 292         V                 5.204672          6.734846
 293         V                 5.216514          6.510132
 294         V                 5.219906          6.610826
 295         V                 5.222490          6.477670
 296         V                 5.224096          6.455063
 297         V                 5.236168          6.600806
 298         V                 5.236870          6.515874
 299         V                 5.241695          6.627079
 300         V                 5.244284          6.607521
 301         V                 5.259264          6.683268
 302         V                 5.266843          6.895795
 303         V                 5.270315          6.827004
 304         V                 5.281383          6.733327
 305         V                 5.284731          6.912730
 306         V                 5.286556          6.937802
 307         V                 5.296221          6.841049
 308         V                 5.302612          6.817318
 309         V                 5.307847          6.829743
 310         V                 5.318537          6.873112
 311         V                 5.354456          7.077098
 312         V                 5.371640          6.927900
 313         V                 5.386699          6.975418
 314         V                 5.397162          7.020322
 315         V                 5.404840          6.995881
 316         V                 5.408919          7.314058
 317         V                 5.429518          7.213775
 318         V                 5.435379          7.401216
 319         V                 5.441936          7.265296
 320         V                 5.453832          7.129700
 321         V                 5.464138          7.206721
 322         V                 5.492991          7.472493
 323         V                 5.496097          7.178717
 324         V                 5.553914          7.646463
 325         V                 5.620205          7.337647
 326         V                 5.692454          7.409946
 327         V                 5.740256          7.713976
 328         V                 5.755090          8.581198
 329         V                 5.768828          7.567122
 330         V                 5.777440          8.127869
 331         V                 5.858637          7.754609
 332         V                 5.899757          8.511203
 333         V                 6.117485          9.113359
 334         V                 6.172549         10.846160
 335         V                 6.208749          9.290649
 336         V                 6.254474          9.315566
 337         V                 6.259362          9.221235
 338         V                 6.278003          9.339240
 339         V                 6.321714          9.324205
 340         V                 6.333894          9.322612
 341         V                 6.345390          9.341331
 342         V                 6.351139          9.404018
 343         V                 6.365536          9.373285
 344         V                 6.386990          9.389706
 345         V                 6.392745          9.504112
 346         V                 6.413862          9.431294
 347         V                 6.419540          9.456123
 348         V                 6.462619          9.447716
 349         V                 6.504027          9.517732
 350         V                 6.521882          9.653659
 351         V                 6.554769          9.684220
 352         V                 6.577961          9.581699
 353         V                 6.588516          9.770076
 354         V                 6.618859          9.630156
 355         V                 6.646640         10.079189
 356         V                 6.654373          9.373932
 357         V                 6.696573          9.402594
 358         V                 6.705524          9.812830
 359         V                 6.739713          9.682859
 360         V                 6.751995          9.695862
 361         V                 6.772152          9.705652
 362         V                 6.800660          9.687367
 363         V                 6.815374          9.760644
 364         V                 6.829383          9.500225
 365         V                 6.845431         10.162303
 366         V                 6.878861         10.172785
 367         V                 6.913655         10.055952
 368         V                 6.930222          9.962180
 369         V                 6.951952         10.596794
 370         V                 6.969205         10.323565
 371         V                 6.978108         10.037804
 372         V                 6.984267         10.442921
 373         V                 6.991224         10.611859
 374         V                 7.048246          9.900788
 375         V                 7.056857          9.818292
 376         V                 7.120574         10.420841
 377         V                 7.405130         13.598100
 378         V                 7.523787         13.485198
 379         V                 7.626368         13.702542
 380         V                 8.359074         15.823205
 381         V                 8.366112         15.816145
 382         V                 8.487095         15.830809
 383         V                 8.783941         16.056758
 384         V                 9.130273         16.246875
 385         V                 9.371278         27.363639
 386         V                 9.546578         27.257504
 387         V                 9.584891         27.329876
 388         V                22.761412         38.970902
 389         V                29.498670         36.060324
 390         V                29.552394         36.099465
 391         V                29.635847         36.178177
 392         V                43.102817        108.434208
 393         V                43.241857        108.372223
 394         V                43.339150        108.551350
 395         V                43.401737        108.615623
 396         V                43.511244        108.708716
 397         V                43.525113        108.723803
 398         V                43.624518        108.824797
 399         V                43.696158        108.882029
 400         V                54.224849         39.952202
 401         V                70.392956         83.984175
 402         V                70.420267         84.034932
 403         V                70.476164         84.122179
 404         V               142.797525        242.472578
 405         V               142.851719        242.540153
 406         V               142.949872        242.662676
 407         V               202.738671        130.066257
 408         V               626.247614       1034.496747
 Total kinetic energy from orbitals= 1.164056443390D+03
 No NMR shielding tensors so no spin-rotation constants.
 Leave Link  601 at Thu Nov 23 15:45:05 2023, MaxMem=  2147483648 cpu:               7.6 elap:               4.4
 (Enter /home/pcmt/gaussian/g16.C.01/g16/l9999.exe)

 Test job not archived.
 1\1\GINC-U-0-8\SP\RBP86\Gen\H4O8Pa1S1(1-)\ROOT\23-Nov-2023\0\\#p BP86/
 GEN Pseudo=Read GFInput GFPrint IOP(6/7=3) Symm=(Loose) Int=(UltraFine
 ) Guess=(Harris) Scf=(NoVarAcc,MaxCycle=100,conver=8)\\pao_oh2_so4_h2o
 -bp86-cosmors-deftzvp-gp.com SGP in PCM calculation\\-1,1\Pa,0,0.52808
 16223,-0.2219442021,-0.1929736336\O,0,0.8817358418,0.9890091898,-1.577
 4651435\O,0,3.9919072414,-1.3538557519,1.7256644982\O,0,-0.7941776886,
 1.1206267517,0.8913155224\H,0,-0.9681370019,2.0389143697,0.6534377749\
 O,0,-1.0781830212,-1.3007964526,-1.7882774861\H,0,-1.6248449987,-2.080
 104103,-1.6248615784\O,0,-0.0764556973,-1.7694883691,1.1285531772\H,0,
 0.2815481493,-2.6509363552,1.298653891\O,0,2.4031231112,0.4467243145,1
 .2082947179\O,0,2.7309769074,-1.2658775305,-0.3806942206\S,0,3.5023439
 914,-0.4700191363,0.6707237626\O,0,4.561565326,0.3164267332,0.04268797
 45\H,0,-1.2496683066,-1.013484634,-2.6943292703\\Version=ES64L-G16RevC
 .01\State=1-A\HF=-1444.742276\RMSD=2.404e-09\Dipole=-5.2351054,-1.5761
 336,-2.4574033\Quadrupole=-13.9861143,9.8146102,4.1715041,5.736615,4.3
 124307,6.9016114\PG=C01 [X(H4O8Pa1S1)]\\@


 FLOATING POINT NUMBERS ARE LIKE SANDPILES:
 EVERY TIME THAT YOU MOVE ONE, YOU LOSE A LITTLE SAND 
 AND YOU PICK UP A LITTLE DIRT.
 Job cpu time:       0 days  0 hours 48 minutes 26.7 seconds.
 Elapsed time:       0 days  0 hours  7 minutes 10.7 seconds.
 File lengths (MBytes):  RWF=     89 Int=      0 D2E=      0 Chk=     11 Scr=      1
 Normal termination of Gaussian 16 at Thu Nov 23 15:45:15 2023.
