

 Parallel Execution: Process Information
 ==============================================================================
 Rank   Node Name                              NodeID   MyNodeRank  NodeMaster
    0   u-5-2.local                               0          0          0
    1   u-5-2.local                               0          1         -1
    2   u-5-2.local                               0          2         -1
    3   u-5-2.local                               0          3         -1
    4   u-5-2.local                               1          0          1
    5   u-5-2.local                               1          1         -1
    6   u-5-2.local                               1          2         -1
    7   u-5-2.local                               1          3         -1
 ==============================================================================


May use up to 15580MB of RAM as shared memory on node 0
May use up to 15625MB of RAM as shared memory on node 1

 *******************************************************************************
 *                                                                             *
 *  --------------------------------                                           *
 *   Amsterdam Modeling Suite (AMS)              2022.103                      *
 *  --------------------------------                                           *
 *                                               r104886 2022-06-17            *
 *                                                                             *
 *                                                                             *
 *                              =================                              *
 *                              |               |                              *
 *                              |     A M S     |                              *
 *                              |               |                              *
 *                              =================                              *
 *                                                                             *
 *                                                                             *
 *   Online information and documentation:  https://www.scm.com/support/       *
 *   E-mail:  support@scm.com   info@scm.com                                   *
 *                                                                             *
 *   Scientific publications using AMS results must be properly referenced     *
 *   See the User Manuals (or the web site) for recommended citations          *
 *   The terms and conditions of the End User License Agreement apply to       *
 *   the use of AMS, https://www.scm.com/license-terms/                        *
 *                                                                             *
 **********************  x86_64_linux_intel / intelmpi  ************************
 
 Licensed to: Dr. Val?rie Vallet / Laboratoire PhLAM UMR 8523 / Villeneuve d'Ascq Cedex / FRANCE 2023-02-21 11:49:39
 SCM User ID: u10325
  
 AMS 2022.103  RunTime: Feb23-2023 17:54:26  ShM Nodes: 2  Procs: 8

 AMS jobname: ams
 AMS jobid  : 1078063129

 Start   directory: /home/shaaban/ams/PhD/oxalate/pao_oh2_c2o4_h2o/gp/
 Results directory: /home/shaaban/ams/PhD/oxalate/pao_oh2_c2o4_h2o/gp/pao_oh2_c2o4_h2o.SR.b3lyp.tz2p.opt-freq.results/
 Scratch directory: /state/partition1/shaaban/929453.phlam-s-sakura/amstmp_ams_kid0.1078063129/


 Communication costs MPI_COMM_WORLD:      1.954 usec per message,   0.0081 usec per 8-byte item
 Communication costs for intra-node:      0.869 usec per message,   0.0036 usec per 8-byte item

 RNG seed: -702756218 1167588172 437674386 -1407788217 -634606039 -1544310162 465978125 -1384237348



                      ************************************************************************
                      *  ADF 2022.103  RunTime: Feb23-2023 17:54:26  ShM Nodes: 2  Procs: 8  *
                      ************************************************************************
  
       ***************************
       *  GEOMETRY OPTIMIZATION  *
       ***************************

Optimization Method                    Quasi Newton
Optimization Coordinates               Delocalized Coordinates
Optimize lattice                       F
 
 ------------------------------------------------------
 Convergence criteria (Hartree,Angstrom)
 ------------------------------------------------------
 Maximum gradient               0.000100000000
 Maximum rms gradient           0.000066666667
 Maximum step allowed           0.001000000000
 Maximum rms step allowed       0.000666666667
 Maximum energy change allowe   0.000015000000
 Maximum stress energy allowe   0.000500000000
 
Initial model Hessian                  Automatic Hessian
 
------------------------------------
Quasi-Newton Optimizer Parameters
------------------------------------
Hessian Update Method                  BFGS
Maximum number of steps                  250
First GDIIS cycle                          0
Maximum GDIIS vectors                      0
Trust radius (bohr)                        0.200000
Trust radius varies                        T
Constraints converged at all steps         T
Use projector                              T
 
 Rigid motions settings for: old optimizer
 Atomic rotations (x,y,z):     T T T
 Atomic translations (x,y,z):  T T T
 Tolerance:                   1.000000000000000E-006
 
--------
Geometry
--------
Formula: C2H4O8Pa
Atoms
  Index Symbol   x (angstrom)   y (angstrom)   z (angstrom)
      1     Pa     0.72875028     0.01447858    -0.55399169
      2      O     0.95751776     1.33172510    -2.26468569
      3      H     0.61551744     2.20260418    -2.47796845
      4      O    -0.34639057     1.09160549     0.53588121
      5      H    -0.64707283    -1.99067854     0.63200198
      6      O    -0.87137557    -1.48894050    -1.13887630
      7      H    -0.70686664    -2.18935723    -1.77760842
      8      O    -0.05876823    -1.75766362     1.38708816
      9      O     4.87117278    -0.55319427     0.78494827
     10      O     2.74887685     0.16677212     0.55019675
     11      O     2.23054769    -1.46871668    -1.36648289
     12      C     3.78303359    -0.58629849     0.25850627
     13      C     3.46741396    -1.60467374    -0.91190500
     14      O     4.27855861    -2.40097396    -1.31535431
     15      H    -1.50311070    -1.23531147    -0.46198411
 
Total System Charge            -1.00000
Bonding info available!
 
 
----------------
ADF Engine Input
----------------
 
 Basis
 Type TZ2P
 Core None
 End
 XC
 Hybrid B3LYP
 End
 NumericalQuality Good
 

 Title: *** (NO TITLE) ***

 Using automatic Hessian for delocalized coordinates.
 *** GO1_GOStep1 ***



 ======================
 RI Hartree-Fock Scheme
 ======================
  
 Fit Set Quality     : GOOD
 Threshold Quality   : GOOD
 Integration Quality : GOOD
 Response Quality    : DEFAULT
 Is Range Separated  :  F
 
 RIHartreeFock Dependency: number of modified vectors:           5
  
 Hartree-Fock exchange energy:   -544.042642654664     

 Energy gradients wrt nuclear displacements
 ==========================================

     Atom      Cartesian (a.u./angstrom)
                 X         Y         Z
 ----------------------------------------
     1 Pa   -0.089155 -0.041913 -0.136341
     2 O     0.006019  0.001272  0.006600
     3 H    -0.001497 -0.001334 -0.000360
     4 O    -0.002135 -0.000681  0.038646
     5 H    -0.033119  0.026881 -0.073406
     6 O     0.003021 -0.014009  0.081996
     7 H     0.044621  0.019396 -0.022160
     8 O     0.010922 -0.031999  0.087639
     9 O     0.003147  0.001307  0.004262
    10 O     0.000825  0.000437  0.012537
    11 O     0.012011 -0.004972  0.006145
    12 C     0.002927 -0.003937 -0.004585
    13 C    -0.010105  0.005242 -0.004035
    14 O     0.005278 -0.003035  0.000766
    15 H     0.047241  0.047346  0.002297
 ----------------------------------------
 Mulliken charges used for AMS results%charges...
 
----------------------------------------------------------------------
Geometry Convergence after Step   1       (Hartree/Angstrom,Angstrom)
----------------------------------------------------------------------
current energy                               -4.52779564 Hartree
energy change                      -4.52779564     0.00001500    F
constrained gradient max            0.13634486     0.00010000    F
constrained gradient rms            0.03675711     0.00006667    F
gradient max                        0.13634486
gradient rms                        0.03675711
cart. step max                      0.10324663     0.00100000    F
cart. step rms                      0.02773667     0.00066667    F
 
 
--------
Geometry
--------
Formula: C2H4O8Pa
Atoms
  Index Symbol   x (angstrom)   y (angstrom)   z (angstrom)
      1     Pa     0.73528605     0.01950454    -0.55631086
      2      O     0.96515753     1.34066474    -2.26592022
      3      H     0.62263957     2.21159982    -2.47912054
      4      O    -0.35154475     1.09955912     0.50535965
      5      H    -0.61352099    -2.06500575     0.73524861
      6      O    -0.89458460    -1.47751671    -1.18045034
      7      H    -0.78211222    -2.18724864    -1.81564929
      8      O     0.00091300    -1.74612934     1.39944948
      9      O     4.86883091    -0.55613217     0.79718010
     10      O     2.74937881     0.16687974     0.55438833
     11      O     2.23569231    -1.46282086    -1.36668748
     12      C     3.78379074    -0.58554544     0.26778355
     13      C     3.47241907    -1.60226412    -0.90580959
     14      O     4.28093179    -2.39887996    -1.30860831
     15      H    -1.52547282    -1.22528800    -0.50108731
 
Total System Charge            -1.00000
Bonding info available!
 
 *** GO1_GOStep2 ***



 ======================
 RI Hartree-Fock Scheme
 ======================
  
 Fit Set Quality     : GOOD
 Threshold Quality   : GOOD
 Integration Quality : GOOD
 Response Quality    : DEFAULT
 Is Range Separated  :  F
 
 RIHartreeFock Dependency: number of modified vectors:           5
  
 Hartree-Fock exchange energy:   -544.058676730548     

 Energy gradients wrt nuclear displacements
 ==========================================

     Atom      Cartesian (a.u./angstrom)
                 X         Y         Z
 ----------------------------------------
     1 Pa   -0.082542 -0.020770 -0.126861
     2 O     0.005253  0.001046  0.006536
     3 H    -0.001510 -0.000765 -0.000658
     4 O     0.003567 -0.005591  0.030830
     5 H    -0.001570  0.029360 -0.023366
     6 O    -0.002979 -0.020261  0.059340
     7 H     0.041766  0.019155 -0.020203
     8 O    -0.015361 -0.044057  0.056036
     9 O    -0.001115  0.000565  0.001619
    10 O     0.001065 -0.002001  0.011435
    11 O     0.008748 -0.005363  0.005125
    12 C     0.005766 -0.001639 -0.001208
    13 C    -0.003445  0.002108 -0.003728
    14 O     0.001457 -0.000119  0.001759
    15 H     0.040900  0.048330  0.003344
 ----------------------------------------
 Mulliken charges used for AMS results%charges...

 dE(predicted):    -0.13145E-01, dE(actual):    -0.14677E-01, Trust radius:    0.400000, all in a.u.
 
----------------------------------------------------------------------
Geometry Convergence after Step   2       (Hartree/Angstrom,Angstrom)
----------------------------------------------------------------------
current energy                               -4.54247249 Hartree
energy change                      -0.01467685     0.00001500    F
constrained gradient max            0.12686027     0.00010000    F
constrained gradient rms            0.03053569     0.00006667    F
gradient max                        0.12686027
gradient rms                        0.03053569
cart. step max                      0.18139079     0.00100000    F
cart. step rms                      0.04493926     0.00066667    F
 
 
--------
Geometry
--------
Formula: C2H4O8Pa
Atoms
  Index Symbol   x (angstrom)   y (angstrom)   z (angstrom)
      1     Pa     0.75938459     0.02927697    -0.55526464
      2      O     0.98304014     1.36292036    -2.26152198
      3      H     0.63592508     2.23291918    -2.47135745
      4      O    -0.35675706     1.12090030     0.43930113
      5      H    -0.57416669    -2.18733903     0.85963671
      6      O    -0.93800565    -1.47200408    -1.22864263
      7      H    -0.96350301    -2.20520781    -1.83898635
      8      O     0.07583331    -1.72446692     1.36658977
      9      O     4.88079112    -0.55471890     0.81840815
     10      O     2.76317473     0.17264635     0.56150576
     11      O     2.25652801    -1.44939014    -1.36163267
     12      C     3.79800143    -0.57947401     0.28478956
     13      C     3.49296311    -1.59619760    -0.89154503
     14      O     4.29736861    -2.39537414    -1.29461785
     15      H    -1.56277330    -1.22311354    -0.54689670
 
Total System Charge            -1.00000
Bonding info available!
 
 *** GO1_GOStep3 ***



 ======================
 RI Hartree-Fock Scheme
 ======================
  
 Fit Set Quality     : GOOD
 Threshold Quality   : GOOD
 Integration Quality : GOOD
 Response Quality    : DEFAULT
 Is Range Separated  :  F
 
 RIHartreeFock Dependency: number of modified vectors:           5
  
 Hartree-Fock exchange energy:   -544.076660863410     

 Energy gradients wrt nuclear displacements
 ==========================================

     Atom      Cartesian (a.u./angstrom)
                 X         Y         Z
 ----------------------------------------
     1 Pa   -0.062393  0.016074 -0.104767
     2 O     0.002842  0.002133  0.006047
     3 H    -0.001092 -0.000108 -0.001197
     4 O     0.011923 -0.014225  0.016342
     5 H     0.018043  0.032926  0.003752
     6 O    -0.013533 -0.025429  0.043201
     7 H     0.032916  0.016292 -0.014450
     8 O    -0.033651 -0.059020  0.039028
     9 O    -0.001558 -0.000834 -0.000186
    10 O     0.000118 -0.005604  0.008144
    11 O     0.001728 -0.005002  0.003542
    12 C     0.004139  0.002557  0.002234
    13 C     0.004639 -0.000307 -0.000766
    14 O    -0.001052  0.000839  0.001000
    15 H     0.036931  0.039708 -0.001926
 ----------------------------------------
 Mulliken charges used for AMS results%charges...

 dE(predicted):    -0.20092E-01, dE(actual):    -0.22528E-01, Trust radius:    0.800000, all in a.u.
 
----------------------------------------------------------------------
Geometry Convergence after Step   3       (Hartree/Angstrom,Angstrom)
----------------------------------------------------------------------
current energy                               -4.56500007 Hartree
energy change                      -0.02252758     0.00001500    F
constrained gradient max            0.10475645     0.00010000    F
constrained gradient rms            0.02613917     0.00006667    F
gradient max                        0.10475645
gradient rms                        0.02613917
cart. step max                      0.21318573     0.00100000    F
cart. step rms                      0.04957477     0.00066667    F
 
 
--------
Geometry
--------
Formula: C2H4O8Pa
Atoms
  Index Symbol   x (angstrom)   y (angstrom)   z (angstrom)
      1     Pa     0.78406102     0.03104128    -0.54731726
      2      O     1.00027312     1.37496400    -2.25234238
      3      H     0.64563729     2.24259116    -2.45802795
      4      O    -0.36995199     1.14140899     0.37005295
      5      H    -0.49704481    -2.29681572     0.98240252
      6      O    -0.98753816    -1.46645549    -1.28630504
      7      H    -1.17668874    -2.20002209    -1.86585150
      8      O     0.15440859    -1.69407382     1.31841227
      9      O     4.89482116    -0.55028826     0.84217435
     10      O     2.77871637     0.17783047     0.57180596
     11      O     2.28237146    -1.43783297    -1.35126903
     12      C     3.81422928    -0.57481119     0.30411844
     13      C     3.51576589    -1.59225770    -0.87379036
     14      O     4.31888020    -2.39212290    -1.27705920
     15      H    -1.61013627    -1.23177880    -0.59723800
 
Total System Charge            -1.00000
Bonding info available!
 
 *** GO1_GOStep4 ***



 ======================
 RI Hartree-Fock Scheme
 ======================
  
 Fit Set Quality     : GOOD
 Threshold Quality   : GOOD
 Integration Quality : GOOD
 Response Quality    : DEFAULT
 Is Range Separated  :  F
 
 RIHartreeFock Dependency: number of modified vectors:           5
  
 Hartree-Fock exchange energy:   -544.081620575136     

 Energy gradients wrt nuclear displacements
 ==========================================

     Atom      Cartesian (a.u./angstrom)
                 X         Y         Z
 ----------------------------------------
     1 Pa   -0.040804  0.039391 -0.088517
     2 O    -0.000290  0.004341  0.005506
     3 H    -0.000268  0.000032 -0.001607
     4 O     0.015222 -0.017353  0.006915
     5 H     0.012269  0.024348  0.003477
     6 O    -0.007878 -0.018494  0.030488
     7 H     0.018891  0.010448 -0.007287
     8 O    -0.027105 -0.058360  0.043275
     9 O    -0.001555 -0.001417 -0.001275
    10 O    -0.001075 -0.008173  0.005630
    11 O    -0.002328 -0.003472  0.003689
    12 C     0.002121  0.004726  0.004047
    13 C     0.008484 -0.002585  0.001158
    14 O    -0.002439  0.001473  0.000094
    15 H     0.026756  0.025095 -0.005594
 ----------------------------------------
 Mulliken charges used for AMS results%charges...
 Rebuilding optimization coordinates

 dE(predicted):    -0.25123E-01, dE(actual):    -0.19297E-01, Trust radius:    1.000000, all in a.u.
 
----------------------------------------------------------------------
Geometry Convergence after Step   4       (Hartree/Angstrom,Angstrom)
----------------------------------------------------------------------
current energy                               -4.58429714 Hartree
energy change                      -0.01929707     0.00001500    F
constrained gradient max            0.08849697     0.00010000    F
constrained gradient rms            0.02208610     0.00006667    F
gradient max                        0.08849697
gradient rms                        0.02208610
cart. step max                      0.21704916     0.00100000    F
cart. step rms                      0.05161327     0.00066667    F
 
 
--------
Geometry
--------
Formula: C2H4O8Pa
Atoms
  Index Symbol   x (angstrom)   y (angstrom)   z (angstrom)
      1     Pa     0.80486633     0.02290235    -0.52752599
      2      O     1.01422466     1.36727132    -2.23819445
      3      H     0.64732784     2.22986873    -2.44184817
      4      O    -0.39218626     1.15554816     0.30621310
      5      H    -0.37220651    -2.37933579     1.09048450
      6      O    -1.04604062    -1.45490602    -1.35298184
      7      H    -1.39373790    -2.15492489    -1.90395417
      8      O     0.22838406    -1.65896701     1.25823783
      9      O     4.91054643    -0.54226685     0.86507649
     10      O     2.79571697     0.18567406     0.58368991
     11      O     2.30724437    -1.43084579    -1.33506403
     12      C     3.83059477    -0.57137458     0.32492044
     13      C     3.53590810    -1.59230641    -0.85140405
     14      O     4.34048695    -2.39175876    -1.25402360
     15      H    -1.66332476    -1.25320156    -0.64386019
 
Total System Charge            -1.00000
Bonding info available!
 
 *** GO1_GOStep5 ***



 ======================
 RI Hartree-Fock Scheme
 ======================
  
 Fit Set Quality     : GOOD
 Threshold Quality   : GOOD
 Integration Quality : GOOD
 Response Quality    : DEFAULT
 Is Range Separated  :  F
 
 RIHartreeFock Dependency: number of modified vectors:           5
  
 Hartree-Fock exchange energy:   -544.082818243518     

 Energy gradients wrt nuclear displacements
 ==========================================

     Atom      Cartesian (a.u./angstrom)
                 X         Y         Z
 ----------------------------------------
     1 Pa   -0.020178  0.047565 -0.075603
     2 O    -0.003577  0.006286  0.005439
     3 H     0.000663  0.000019 -0.001902
     4 O     0.014030 -0.015600  0.001231
     5 H     0.005070  0.015334  0.002211
     6 O     0.011226 -0.006506  0.016763
     7 H     0.002005  0.006355  0.003069
     8 O    -0.017602 -0.052481  0.044550
     9 O    -0.000505 -0.000980 -0.001514
    10 O    -0.003423 -0.008696  0.003851
    11 O    -0.005065 -0.000563  0.004236
    12 C     0.000197  0.003901  0.004494
    13 C     0.008539 -0.004378  0.002670
    14 O    -0.002116  0.001440 -0.001123
    15 H     0.010735  0.008304 -0.008370
 ----------------------------------------
 Mulliken charges used for AMS results%charges...

 dE(predicted):    -0.18611E-01, dE(actual):    -0.14608E-01, Trust radius:    1.000000, all in a.u.
 
----------------------------------------------------------------------
Geometry Convergence after Step   5       (Hartree/Angstrom,Angstrom)
----------------------------------------------------------------------
current energy                               -4.59890537 Hartree
energy change                      -0.01460823     0.00001500    F
constrained gradient max            0.07557606     0.00010000    F
constrained gradient rms            0.01842524     0.00006667    F
gradient max                        0.07557606
gradient rms                        0.01842524
cart. step max                      0.21226178     0.00100000    F
cart. step rms                      0.05523692     0.00066667    F
 
 
--------
Geometry
--------
Formula: C2H4O8Pa
Atoms
  Index Symbol   x (angstrom)   y (angstrom)   z (angstrom)
      1     Pa     0.82260215     0.00688635    -0.49836733
      2      O     1.02635412     1.34506854    -2.21948975
      3      H     0.64194134     2.19973314    -2.42270490
      4      O    -0.42354876     1.15603072     0.24571429
      5      H    -0.20768313    -2.43321479     1.19560821
      6      O    -1.11568206    -1.43479141    -1.43007809
      7      H    -1.60599968    -2.07709974    -1.94845328
      8      O     0.29940617    -1.62255732     1.18484541
      9      O     4.92702352    -0.53244472     0.88692417
     10      O     2.81322526     0.19493105     0.59759894
     11      O     2.33004732    -1.42885288    -1.31465297
     12      C     3.84680718    -0.56834088     0.34672160
     13      C     3.55364699    -1.59546053    -0.82572244
     14      O     4.36096487    -2.39387285    -1.22681610
     15      H    -1.72130088    -1.28463771    -0.69136198
 
Total System Charge            -1.00000
Bonding info available!
 
 *** GO1_GOStep6 ***



 ======================
 RI Hartree-Fock Scheme
 ======================
  
 Fit Set Quality     : GOOD
 Threshold Quality   : GOOD
 Integration Quality : GOOD
 Response Quality    : DEFAULT
 Is Range Separated  :  F
 
 RIHartreeFock Dependency: number of modified vectors:           5
  
 Hartree-Fock exchange energy:   -544.086258330031     

 Energy gradients wrt nuclear displacements
 ==========================================

     Atom      Cartesian (a.u./angstrom)
                 X         Y         Z
 ----------------------------------------
     1 Pa   -0.002851  0.043376 -0.058519
     2 O    -0.006971  0.007315  0.006049
     3 H     0.001615  0.000044 -0.002115
     4 O     0.011933 -0.012451 -0.004255
     5 H    -0.001410  0.005873  0.000700
     6 O     0.035136  0.005381  0.001351
     7 H    -0.013856  0.005539  0.017863
     8 O    -0.005888 -0.038977  0.040002
     9 O     0.000118 -0.000090 -0.001789
    10 O    -0.007435 -0.007784  0.002413
    11 O    -0.008021  0.003346  0.004624
    12 C    -0.000309  0.001483  0.004576
    13 C     0.007657 -0.006572  0.003957
    14 O    -0.001766  0.001784 -0.002293
    15 H    -0.007949 -0.008267 -0.012565
 ----------------------------------------
 Mulliken charges used for AMS results%charges...

 dE(predicted):    -0.73978E-02, dE(actual):    -0.97830E-02, Trust radius:    1.000000, all in a.u.
 
----------------------------------------------------------------------
Geometry Convergence after Step   6       (Hartree/Angstrom,Angstrom)
----------------------------------------------------------------------
current energy                               -4.60868834 Hartree
energy change                      -0.00978297     0.00001500    F
constrained gradient max            0.05849023     0.00010000    F
constrained gradient rms            0.01594216     0.00006667    F
gradient max                        0.05849023
gradient rms                        0.01594216
cart. step max                      0.19335358     0.00100000    F
cart. step rms                      0.06039253     0.00066667    F
 
 
--------
Geometry
--------
Formula: C2H4O8Pa
Atoms
  Index Symbol   x (angstrom)   y (angstrom)   z (angstrom)
      1     Pa     0.83531920    -0.02125348    -0.44111803
      2      O     1.04290539     1.28529928    -2.19048358
      3      H     0.62759296     2.12367422    -2.39985270
      4      O    -0.46890652     1.13896130     0.21567217
      5      H    -0.01432955    -2.44442146     1.28192683
      6      O    -1.21491109    -1.38402854    -1.51366899
      7      H    -1.78629242    -1.96469868    -2.03562136
      8      O     0.35148965    -1.58034891     1.08440553
      9      O     4.95431578    -0.51203531     0.89387081
     10      O     2.84099466     0.21720623     0.61249853
     11      O     2.34630430    -1.43769167    -1.28335354
     12      C     3.86905544    -0.55879875     0.36313447
     13      C     3.56601431    -1.60104377    -0.79597719
     14      O     4.37826643    -2.39870231    -1.19283089
     15      H    -1.78001412    -1.33074120    -0.71883629
 
Total System Charge            -1.00000
Bonding info available!
 
 *** GO1_GOStep7 ***



 ======================
 RI Hartree-Fock Scheme
 ======================
  
 Fit Set Quality     : GOOD
 Threshold Quality   : GOOD
 Integration Quality : GOOD
 Response Quality    : DEFAULT
 Is Range Separated  :  F
 
 RIHartreeFock Dependency: number of modified vectors:           5
  
 Hartree-Fock exchange energy:   -544.093726087415     

 Energy gradients wrt nuclear displacements
 ==========================================

     Atom      Cartesian (a.u./angstrom)
                 X         Y         Z
 ----------------------------------------
     1 Pa    0.011289  0.008148 -0.022320
     2 O    -0.008752  0.005964  0.007083
     3 H     0.002402 -0.000087 -0.001958
     4 O     0.004735 -0.005240 -0.007220
     5 H    -0.005922 -0.002496 -0.001772
     6 O     0.052808  0.017106 -0.014884
     7 H    -0.024014 -0.002684  0.020678
     8 O     0.010129 -0.003577  0.015785
     9 O     0.000797  0.001661 -0.001593
    10 O    -0.012196 -0.002575  0.001294
    11 O    -0.010940  0.008377  0.003426
    12 C     0.000524 -0.003710  0.003608
    13 C     0.003855 -0.008523  0.004858
    14 O    -0.000943  0.002447 -0.003257
    15 H    -0.023773 -0.014811 -0.003729
 ----------------------------------------
 Mulliken charges used for AMS results%charges...
 Rebuilding optimization coordinates

 dE(predicted):    -0.64063E-02, dE(actual):    -0.80817E-02, Trust radius:    1.000000, all in a.u.
 
----------------------------------------------------------------------
Geometry Convergence after Step   7       (Hartree/Angstrom,Angstrom)
----------------------------------------------------------------------
current energy                               -4.61677004 Hartree
energy change                      -0.00808171     0.00001500    F
constrained gradient max            0.05280731     0.00010000    F
constrained gradient rms            0.01247920     0.00006667    F
gradient max                        0.05280731
gradient rms                        0.01247920
cart. step max                      0.06428448     0.00100000    F
cart. step rms                      0.02599813     0.00066667    F
 
 
--------
Geometry
--------
Formula: C2H4O8Pa
Atoms
  Index Symbol   x (angstrom)   y (angstrom)   z (angstrom)
      1     Pa     0.83419729    -0.03258806    -0.40159674
      2      O     1.06092967     1.23434778    -2.17952656
      3      H     0.62455209     2.05938973    -2.40023284
      4      O    -0.48655262     1.13427318     0.24375965
      5      H     0.03184379    -2.45162185     1.29137776
      6      O    -1.27008938    -1.33723068    -1.52901006
      7      H    -1.79804003    -1.91624868    -2.09663498
      8      O     0.33435135    -1.57611935     1.03607248
      9      O     4.97336222    -0.49123311     0.87641901
     10      O     2.86016986     0.23998559     0.61445472
     11      O     2.34463008    -1.44860175    -1.26438617
     12      C     3.88215331    -0.54292803     0.35767127
     13      C     3.56569144    -1.59770461    -0.78721906
     14      O     4.38146642    -2.39688563    -1.17803156
     15      H    -1.79086106    -1.34545756    -0.70335115
 
Total System Charge            -1.00000
Bonding info available!
 
 *** GO1_GOStep8 ***



 ======================
 RI Hartree-Fock Scheme
 ======================
  
 Fit Set Quality     : GOOD
 Threshold Quality   : GOOD
 Integration Quality : GOOD
 Response Quality    : DEFAULT
 Is Range Separated  :  F
 
 RIHartreeFock Dependency: number of modified vectors:           5
  
 Hartree-Fock exchange energy:   -544.098420919582     

 Energy gradients wrt nuclear displacements
 ==========================================

     Atom      Cartesian (a.u./angstrom)
                 X         Y         Z
 ----------------------------------------
     1 Pa    0.013614 -0.019505 -0.000325
     2 O    -0.006310  0.004176  0.006009
     3 H     0.002139 -0.000189 -0.001566
     4 O    -0.003519  0.000732 -0.004127
     5 H    -0.007222 -0.006526 -0.001913
     6 O     0.037293  0.014242 -0.013629
     7 H    -0.018230 -0.006331  0.008558
     8 O     0.017287  0.021171 -0.003822
     9 O     0.000850  0.002279 -0.001207
    10 O    -0.009678  0.000932  0.001211
    11 O    -0.008706  0.008110  0.001522
    12 C    -0.000178 -0.005346  0.002725
    13 C    -0.001182 -0.006727  0.003982
    14 O     0.000189  0.001974 -0.002962
    15 H    -0.016347 -0.008994  0.005545
 ----------------------------------------
 Mulliken charges used for AMS results%charges...

 dE(predicted):    -0.28779E-02, dE(actual):    -0.38744E-02, Trust radius:    1.000000, all in a.u.
 
----------------------------------------------------------------------
Geometry Convergence after Step   8       (Hartree/Angstrom,Angstrom)
----------------------------------------------------------------------
current energy                               -4.62064448 Hartree
energy change                      -0.00387443     0.00001500    F
constrained gradient max            0.03729055     0.00010000    F
constrained gradient rms            0.01002078     0.00006667    F
gradient max                        0.03729055
gradient rms                        0.01002078
cart. step max                      0.06059769     0.00100000    F
cart. step rms                      0.01713482     0.00066667    F
 
 
--------
Geometry
--------
Formula: C2H4O8Pa
Atoms
  Index Symbol   x (angstrom)   y (angstrom)   z (angstrom)
      1     Pa     0.82866909    -0.02442761    -0.39859037
      2      O     1.06584377     1.22477765    -2.18725234
      3      H     0.62714934     2.04727249    -2.41419886
      4      O    -0.47440826     1.14864484     0.27091143
      5      H    -0.00975802    -2.47897319     1.25940434
      6      O    -1.26520968    -1.32724666    -1.50670457
      7      H    -1.73744233    -1.92630019    -2.09602382
      8      O     0.29439700    -1.59340692     1.04578325
      9      O     4.97651296    -0.48267385     0.86171728
     10      O     2.86324377     0.24763726     0.60843138
     11      O     2.33657301    -1.45192673    -1.26015995
     12      C     3.88337742    -0.53323698     0.34699778
     13      C     3.56097589    -1.59204654    -0.79064872
     14      O     4.37558780    -2.39453521    -1.17760075
     15      H    -1.77770734    -1.33218142    -0.68230031
 
Total System Charge            -1.00000
Bonding info available!
 
 *** GO1_GOStep9 ***



 ======================
 RI Hartree-Fock Scheme
 ======================
  
 Fit Set Quality     : GOOD
 Threshold Quality   : GOOD
 Integration Quality : GOOD
 Response Quality    : DEFAULT
 Is Range Separated  :  F
 
 RIHartreeFock Dependency: number of modified vectors:           5
  
 Hartree-Fock exchange energy:   -544.095009724988     

 Energy gradients wrt nuclear displacements
 ==========================================

     Atom      Cartesian (a.u./angstrom)
                 X         Y         Z
 ----------------------------------------
     1 Pa    0.012958 -0.007093 -0.011417
     2 O    -0.004097  0.003945  0.004434
     3 H     0.001560 -0.000081 -0.001380
     4 O    -0.005650  0.001377 -0.000921
     5 H    -0.007412 -0.005415 -0.001496
     6 O     0.021011  0.004932 -0.005926
     7 H    -0.010784 -0.003437  0.003779
     8 O     0.013226  0.008688  0.005053
     9 O     0.000488  0.001666 -0.001021
    10 O    -0.005024 -0.000776  0.001447
    11 O    -0.005379  0.005092  0.000875
    12 C    -0.001652 -0.003187  0.002524
    13 C    -0.002531 -0.004534  0.003063
    14 O     0.000371  0.001555 -0.002082
    15 H    -0.007086 -0.002732  0.003067
 ----------------------------------------
 Mulliken charges used for AMS results%charges...

 dE(predicted):    -0.11461E-02, dE(actual):    -0.16937E-02, Trust radius:    1.000000, all in a.u.
 
----------------------------------------------------------------------
Geometry Convergence after Step   9       (Hartree/Angstrom,Angstrom)
----------------------------------------------------------------------
current energy                               -4.62233818 Hartree
energy change                      -0.00169370     0.00001500    F
constrained gradient max            0.02100868     0.00010000    F
constrained gradient rms            0.00607809     0.00006667    F
gradient max                        0.02100868
gradient rms                        0.00607809
cart. step max                      0.09028955     0.00100000    F
cart. step rms                      0.03658396     0.00066667    F
 
 
--------
Geometry
--------
Formula: C2H4O8Pa
Atoms
  Index Symbol   x (angstrom)   y (angstrom)   z (angstrom)
      1     Pa     0.81796794    -0.02290119    -0.35835099
      2      O     1.09489270     1.15409122    -2.19101446
      3      H     0.63144154     1.95698294    -2.44120816
      4      O    -0.46443753     1.16263428     0.33653217
      5      H    -0.02449768    -2.53165802     1.21685517
      6      O    -1.31224951    -1.26198345    -1.48550875
      7      H    -1.67062420    -1.87372158    -2.12755300
      8      O     0.22036966    -1.63274684     0.99631664
      9      O     4.99668895    -0.44394134     0.82610456
     10      O     2.87908765     0.28010458     0.60405998
     11      O     2.32375450    -1.46819382    -1.23119136
     12      C     3.89639329    -0.49798754     0.32646413
     13      C     3.55719331    -1.57643955    -0.78600308
     14      O     4.37341547    -2.38478141    -1.16078992
     15      H    -1.77159165    -1.32808130    -0.64494715
 
Total System Charge            -1.00000
Bonding info available!
 
 *** GO1_GOStep10 ***



 ======================
 RI Hartree-Fock Scheme
 ======================
  
 Fit Set Quality     : GOOD
 Threshold Quality   : GOOD
 Integration Quality : GOOD
 Response Quality    : DEFAULT
 Is Range Separated  :  F
 
 RIHartreeFock Dependency: number of modified vectors:           5
  
 Hartree-Fock exchange energy:   -544.102550666663     

 Energy gradients wrt nuclear displacements
 ==========================================

     Atom      Cartesian (a.u./angstrom)
                 X         Y         Z
 ----------------------------------------
     1 Pa    0.005636 -0.006897 -0.004606
     2 O     0.001703  0.001201  0.001958
     3 H     0.000381 -0.000289 -0.000490
     4 O    -0.008733  0.001882  0.002473
     5 H    -0.005908 -0.000243 -0.002215
     6 O    -0.010642 -0.018193  0.006893
     7 H     0.003328  0.006465 -0.001786
     8 O     0.011840  0.005699  0.000365
     9 O     0.000554  0.000352 -0.000006
    10 O     0.000796  0.000317  0.001741
    11 O    -0.001014  0.000212 -0.001977
    12 C    -0.002739 -0.000855  0.000526
    13 C    -0.005305 -0.000184  0.001321
    14 O     0.000707  0.000496 -0.000364
    15 H     0.009397  0.010036 -0.003833
 ----------------------------------------
 Mulliken charges used for AMS results%charges...

 dE(predicted):    -0.20551E-02, dE(actual):    -0.24360E-02, Trust radius:    1.000000, all in a.u.
 
----------------------------------------------------------------------
Geometry Convergence after Step  10       (Hartree/Angstrom,Angstrom)
----------------------------------------------------------------------
current energy                               -4.62477416 Hartree
energy change                      -0.00243598     0.00001500    F
constrained gradient max            0.01815669     0.00010000    F
constrained gradient rms            0.00518053     0.00006667    F
gradient max                        0.01815669
gradient rms                        0.00518053
cart. step max                      0.04751977     0.00100000    F
cart. step rms                      0.01975508     0.00066667    F
 
 
--------
Geometry
--------
Formula: C2H4O8Pa
Atoms
  Index Symbol   x (angstrom)   y (angstrom)   z (angstrom)
      1     Pa     0.81507751    -0.02320984    -0.33928006
      2      O     1.10012891     1.11677691    -2.19502107
      3      H     0.62325527     1.90946317    -2.45423460
      4      O    -0.44917233     1.17065719     0.36803889
      5      H    -0.03988852    -2.55827106     1.20125286
      6      O    -1.33428062    -1.21874782    -1.47984232
      7      H    -1.64212772    -1.83686536    -2.14186557
      8      O     0.17818911    -1.65597321     0.96819405
      9      O     5.00892484    -0.42116142     0.80876889
     10      O     2.88677350     0.29437021     0.60227445
     11      O     2.32033895    -1.47906946    -1.21202507
     12      C     3.90591232    -0.47906602     0.31583935
     13      C     3.56035365    -1.56950723    -0.78258811
     14      O     4.37679956    -2.38113745    -1.15113791
     15      H    -1.76248001    -1.33688166    -0.62860800
 
Total System Charge            -1.00000
Bonding info available!
 
 *** GO1_GOStep11 ***



 ======================
 RI Hartree-Fock Scheme
 ======================
  
 Fit Set Quality     : GOOD
 Threshold Quality   : GOOD
 Integration Quality : GOOD
 Response Quality    : DEFAULT
 Is Range Separated  :  F
 
 RIHartreeFock Dependency: number of modified vectors:           5
  
 Hartree-Fock exchange energy:   -544.101716445551     

 Energy gradients wrt nuclear displacements
 ==========================================

     Atom      Cartesian (a.u./angstrom)
                 X         Y         Z
 ----------------------------------------
     1 Pa    0.000702 -0.003766 -0.000829
     2 O     0.003943 -0.000037  0.001009
     3 H    -0.000260 -0.000165 -0.000157
     4 O    -0.007622 -0.000145  0.002129
     5 H    -0.005804  0.000175 -0.001915
     6 O    -0.012695 -0.023985  0.009112
     7 H     0.004561  0.008052 -0.005452
     8 O     0.011846  0.005237 -0.001482
     9 O     0.000187 -0.000565  0.000543
    10 O     0.001779  0.001020  0.002082
    11 O    -0.000499 -0.001882 -0.002977
    12 C    -0.001884  0.000385 -0.000809
    13 C    -0.004656  0.001675  0.000390
    14 O     0.000797 -0.000461  0.000415
    15 H     0.009606  0.014461 -0.002058
 ----------------------------------------
 Mulliken charges used for AMS results%charges...

 dE(predicted):    -0.51304E-03, dE(actual):    -0.81717E-03, Trust radius:    1.000000, all in a.u.
 
----------------------------------------------------------------------
Geometry Convergence after Step  11       (Hartree/Angstrom,Angstrom)
----------------------------------------------------------------------
current energy                               -4.62559133 Hartree
energy change                      -0.00081717     0.00001500    F
constrained gradient max            0.02394545     0.00010000    F
constrained gradient rms            0.00595217     0.00006667    F
gradient max                        0.02394545
gradient rms                        0.00595217
cart. step max                      0.11546363     0.00100000    F
cart. step rms                      0.04813660     0.00066667    F
 
 
--------
Geometry
--------
Formula: C2H4O8Pa
Atoms
  Index Symbol   x (angstrom)   y (angstrom)   z (angstrom)
      1     Pa     0.81460414    -0.02819866    -0.30403649
      2      O     1.08244015     1.03944213    -2.20733011
      3      H     0.57502304     1.81179865    -2.47312064
      4      O    -0.39391593     1.18984882     0.43523486
      5      H    -0.12905162    -2.60200984     1.16935587
      6      O    -1.37596164    -1.11121856    -1.46759764
      7      H    -1.55124065    -1.75677718    -2.15349474
      8      O     0.06272548    -1.70311735     0.90532537
      9      O     5.03979808    -0.37106967     0.76966039
     10      O     2.90471079     0.31828186     0.59647992
     11      O     2.32110359    -1.50713601    -1.16906921
     12      C     3.93173636    -0.44129995     0.29075579
     13      C     3.57637488    -1.55880574    -0.77717217
     14      O     4.39388658    -2.37499327    -1.13417169
     15      H    -1.70442882    -1.37336826    -0.60105373
 
Total System Charge            -1.00000
Bonding info available!
 
 *** GO1_GOStep12 ***



 ======================
 RI Hartree-Fock Scheme
 ======================
  
 Fit Set Quality     : GOOD
 Threshold Quality   : GOOD
 Integration Quality : GOOD
 Response Quality    : DEFAULT
 Is Range Separated  :  F
 
 RIHartreeFock Dependency: number of modified vectors:           5
  
 Hartree-Fock exchange energy:   -544.097620443733     

 Energy gradients wrt nuclear displacements
 ==========================================

     Atom      Cartesian (a.u./angstrom)
                 X         Y         Z
 ----------------------------------------
     1 Pa   -0.008493  0.004954  0.005677
     2 O     0.006694 -0.001301 -0.001494
     3 H    -0.001369  0.000187  0.000428
     4 O    -0.003763 -0.006033 -0.000241
     5 H    -0.005797  0.001341 -0.001752
     6 O    -0.004834 -0.029517  0.010485
     7 H     0.002047  0.010138 -0.008708
     8 O     0.010911  0.002098 -0.002014
     9 O    -0.000297 -0.002479  0.002039
    10 O     0.001421  0.002859  0.003426
    11 O    -0.000226 -0.005807 -0.004463
    12 C     0.001155  0.002510 -0.004218
    13 C    -0.001479  0.004367 -0.002163
    14 O     0.000714 -0.002250  0.002168
    15 H     0.003317  0.018934  0.000831
 ----------------------------------------
 Mulliken charges used for AMS results%charges...

 dE(predicted):    -0.18123E-02, dE(actual):    -0.24960E-02, Trust radius:    1.000000, all in a.u.
 
----------------------------------------------------------------------
Geometry Convergence after Step  12       (Hartree/Angstrom,Angstrom)
----------------------------------------------------------------------
current energy                               -4.62808730 Hartree
energy change                      -0.00249597     0.00001500    F
constrained gradient max            0.02946940     0.00010000    F
constrained gradient rms            0.00683365     0.00006667    F
gradient max                        0.02946940
gradient rms                        0.00683365
cart. step max                      0.19533158     0.00100000    F
cart. step rms                      0.06180845     0.00066667    F
 
 
--------
Geometry
--------
Formula: C2H4O8Pa
Atoms
  Index Symbol   x (angstrom)   y (angstrom)   z (angstrom)
      1     Pa     0.81113027    -0.03832749    -0.28426340
      2      O     1.01939981     0.98031509    -2.22220377
      3      H     0.48487067     1.73864739    -2.47600659
      4      O    -0.32779387     1.21314150     0.49112885
      5      H    -0.28107051    -2.62367561     1.12617495
      6      O    -1.41548453    -1.00067408    -1.45518686
      7      H    -1.35590907    -1.70677817    -2.10297618
      8      O    -0.08162468    -1.73132167     0.84604825
      9      O     5.06031287    -0.33597995     0.73188430
     10      O     2.91349654     0.32707500     0.58615902
     11      O     2.32004097    -1.53618154    -1.13707813
     12      C     3.94845272    -0.41984673     0.26578422
     13      C     3.58724602    -1.55891242    -0.77793696
     14      O     4.40635770    -2.37544760    -1.12895517
     15      H    -1.54162049    -1.40065675    -0.58280674
 
Total System Charge            -1.00000
Bonding info available!
 
 *** GO1_GOStep13 ***



 ======================
 RI Hartree-Fock Scheme
 ======================
  
 Fit Set Quality     : GOOD
 Threshold Quality   : GOOD
 Integration Quality : GOOD
 Response Quality    : DEFAULT
 Is Range Separated  :  F
 
 RIHartreeFock Dependency: number of modified vectors:           5
  
 Hartree-Fock exchange energy:   -544.094067814565     

 Energy gradients wrt nuclear displacements
 ==========================================

     Atom      Cartesian (a.u./angstrom)
                 X         Y         Z
 ----------------------------------------
     1 Pa   -0.014365  0.003013  0.008606
     2 O     0.005575 -0.000213 -0.005235
     3 H    -0.001585  0.000312  0.000925
     4 O    -0.003212 -0.007948 -0.001603
     5 H    -0.006301  0.001425 -0.002531
     6 O     0.006792 -0.015744  0.011242
     7 H    -0.002919  0.005739 -0.000419
     8 O     0.010688  0.001331  0.001926
     9 O    -0.000634 -0.003554  0.003219
    10 O     0.000488  0.004363  0.004999
    11 O     0.002073 -0.008218 -0.004655
    12 C     0.004070  0.003498 -0.006789
    13 C    -0.000163  0.005145 -0.005015
    14 O     0.001018 -0.003140  0.003621
    15 H    -0.001525  0.013991 -0.008291
 ----------------------------------------
 Mulliken charges used for AMS results%charges...
 Rebuilding optimization coordinates

 dE(predicted):    -0.33304E-02, dE(actual):    -0.42122E-02, Trust radius:    1.000000, all in a.u.
 
----------------------------------------------------------------------
Geometry Convergence after Step  13       (Hartree/Angstrom,Angstrom)
----------------------------------------------------------------------
current energy                               -4.63229951 Hartree
energy change                      -0.00421221     0.00001500    F
constrained gradient max            0.01570163     0.00010000    F
constrained gradient rms            0.00602927     0.00006667    F
gradient max                        0.01570163
gradient rms                        0.00602927
cart. step max                      0.21275515     0.00100000    F
cart. step rms                      0.06098583     0.00066667    F
 
 
--------
Geometry
--------
Formula: C2H4O8Pa
Atoms
  Index Symbol   x (angstrom)   y (angstrom)   z (angstrom)
      1     Pa     0.79834091    -0.04387920    -0.27983703
      2      O     0.93867115     0.94243607    -2.23676183
      3      H     0.38688361     1.68932800    -2.48413014
      4      O    -0.26005479     1.24974378     0.52947550
      5      H    -0.39344415    -2.65407091     1.07872025
      6      O    -1.43592317    -0.93098309    -1.44885330
      7      H    -1.14315392    -1.66111163    -2.00861463
      8      O    -0.20721233    -1.75762061     0.80081645
      9      O     5.06002555    -0.31759727     0.70849238
     10      O     2.90614681     0.32233038     0.57024250
     11      O     2.30783230    -1.55257627    -1.11092418
     12      C     3.94772108    -0.41223736     0.24834374
     13      C     3.58371589    -1.56554555    -0.77730716
     14      O     4.39841092    -2.38518799    -1.12339210
     15      H    -1.34015545    -1.39165141    -0.58650466
 
Total System Charge            -1.00000
Bonding info available!
 
 *** GO1_GOStep14 ***



 ======================
 RI Hartree-Fock Scheme
 ======================
  
 Fit Set Quality     : GOOD
 Threshold Quality   : GOOD
 Integration Quality : GOOD
 Response Quality    : DEFAULT
 Is Range Separated  :  F
 
 RIHartreeFock Dependency: number of modified vectors:           5
  
 Hartree-Fock exchange energy:   -544.093390775683     

 Energy gradients wrt nuclear displacements
 ==========================================

     Atom      Cartesian (a.u./angstrom)
                 X         Y         Z
 ----------------------------------------
     1 Pa   -0.020803 -0.004870  0.005700
     2 O     0.001021  0.002387 -0.008511
     3 H    -0.000581 -0.000722  0.001425
     4 O    -0.003466 -0.005676 -0.002168
     5 H    -0.005915  0.000532 -0.002266
     6 O    -0.006473  0.023772  0.002104
     7 H     0.002841 -0.008023  0.023357
     8 O     0.007067 -0.003336  0.009575
     9 O    -0.002588 -0.004390  0.003127
    10 O     0.001817  0.000708  0.003591
    11 O     0.005202 -0.007432 -0.001460
    12 C     0.004937  0.006388 -0.006552
    13 C     0.002380  0.002373 -0.009042
    14 O    -0.000969 -0.000735  0.006077
    15 H     0.015530 -0.000975 -0.024955
 ----------------------------------------
 Mulliken charges used for AMS results%charges...

 dE(predicted):    -0.38384E-02, dE(actual):     0.71979E-03, Trust radius:    0.209628, all in a.u.
 
----------------------------------------------------------------------
Geometry Convergence after Step  14       (Hartree/Angstrom,Angstrom)
----------------------------------------------------------------------
current energy                               -4.63157972 Hartree
energy change                       0.00071979     0.00001500    F
constrained gradient max            0.02495999     0.00010000    F
constrained gradient rms            0.00854252     0.00006667    F
gradient max                        0.02495999
gradient rms                        0.00854252
cart. step max                      0.07758407     0.00100000    F
cart. step rms                      0.02101508     0.00066667    F
 
 
--------
Geometry
--------
Formula: C2H4O8Pa
Atoms
  Index Symbol   x (angstrom)   y (angstrom)   z (angstrom)
      1     Pa     0.80936954    -0.03649612    -0.27808679
      2      O     0.94419408     0.95592515    -2.22854793
      3      H     0.39775418     1.70486750    -2.48129259
      4      O    -0.24276413     1.26546071     0.52907274
      5      H    -0.36367179    -2.64606067     1.08224151
      6      O    -1.41881028    -0.95127649    -1.45249759
      7      H    -1.22073799    -1.67709248    -2.06308304
      8      O    -0.18671831    -1.74805743     0.80955589
      9      O     5.06841187    -0.31701626     0.71419355
     10      O     2.91541170     0.32411716     0.56943947
     11      O     2.31207696    -1.54454773    -1.10362163
     12      C     3.95571295    -0.41186015     0.25400706
     13      C     3.58893862    -1.56580921    -0.76964708
     14      O     4.39867076    -2.38995519    -1.11742444
     15      H    -1.41003375    -1.43082182    -0.58454335
 
Total System Charge            -1.00000
Bonding info available!
 
 *** GO1_GOStep15 ***



 ======================
 RI Hartree-Fock Scheme
 ======================
  
 Fit Set Quality     : GOOD
 Threshold Quality   : GOOD
 Integration Quality : GOOD
 Response Quality    : DEFAULT
 Is Range Separated  :  F
 
 RIHartreeFock Dependency: number of modified vectors:           5
  
 Hartree-Fock exchange energy:   -544.087771504177     

 Energy gradients wrt nuclear displacements
 ==========================================

     Atom      Cartesian (a.u./angstrom)
                 X         Y         Z
 ----------------------------------------
     1 Pa   -0.011769  0.000589  0.005336
     2 O     0.001000  0.001689 -0.005474
     3 H    -0.000798 -0.000679  0.000993
     4 O    -0.002689 -0.005179 -0.002332
     5 H    -0.006145  0.003920 -0.003639
     6 O     0.002118  0.028929 -0.006443
     7 H     0.000436 -0.012133  0.007431
     8 O     0.008178 -0.005915  0.007782
     9 O    -0.002222 -0.004120  0.003106
    10 O     0.000765 -0.001340  0.001478
    11 O     0.001590 -0.005122 -0.000275
    12 C     0.003548  0.007261 -0.005567
    13 C     0.003663  0.002438 -0.007960
    14 O    -0.000587 -0.001295  0.005437
    15 H     0.002911 -0.009042  0.000127
 ----------------------------------------
 Mulliken charges used for AMS results%charges...

 dE(predicted):    -0.32109E-02, dE(actual):    -0.22527E-02, Trust radius:    0.209628, all in a.u.
 
----------------------------------------------------------------------
Geometry Convergence after Step  15       (Hartree/Angstrom,Angstrom)
----------------------------------------------------------------------
current energy                               -4.63383241 Hartree
energy change                      -0.00225269     0.00001500    F
constrained gradient max            0.02895575     0.00010000    F
constrained gradient rms            0.00653666     0.00006667    F
gradient max                        0.02895575
gradient rms                        0.00653666
cart. step max                      0.02636064     0.00100000    F
cart. step rms                      0.00930848     0.00066667    F
 
 
--------
Geometry
--------
Formula: C2H4O8Pa
Atoms
  Index Symbol   x (angstrom)   y (angstrom)   z (angstrom)
      1     Pa     0.81104069    -0.03270995    -0.27590199
      2      O     0.93805624     0.95462758    -2.22535741
      3      H     0.39838938     1.70700243    -2.48343444
      4      O    -0.22082670     1.28159462     0.53864488
      5      H    -0.34650794    -2.65107662     1.07723596
      6      O    -1.40894577    -0.96566438    -1.44843739
      7      H    -1.22997405    -1.66582187    -2.08944367
      8      O    -0.20130759    -1.74399503     0.81483047
      9      O     5.07264392    -0.31104789     0.70976106
     10      O     2.91807975     0.33056302     0.56523874
     11      O     2.30838813    -1.54307992    -1.09617615
     12      C     3.95689869    -0.41140290     0.25626581
     13      C     3.58600363    -1.56934707    -0.76144447
     14      O     4.39249436    -2.39509549    -1.11523674
     15      H    -1.42662833    -1.45316957    -0.58677889
 
Total System Charge            -1.00000
Bonding info available!
 
 *** GO1_GOStep16 ***



 ======================
 RI Hartree-Fock Scheme
 ======================
  
 Fit Set Quality     : GOOD
 Threshold Quality   : GOOD
 Integration Quality : GOOD
 Response Quality    : DEFAULT
 Is Range Separated  :  F
 
 RIHartreeFock Dependency: number of modified vectors:           5
  
 Hartree-Fock exchange energy:   -544.086969198208     

 Energy gradients wrt nuclear displacements
 ==========================================

     Atom      Cartesian (a.u./angstrom)
                 X         Y         Z
 ----------------------------------------
     1 Pa   -0.007423  0.002942  0.002248
     2 O     0.001321  0.000613 -0.003358
     3 H    -0.001264 -0.000191  0.000639
     4 O    -0.002443 -0.004147 -0.001750
     5 H    -0.006732  0.003435 -0.003210
     6 O     0.006311  0.018788 -0.005513
     7 H    -0.000971 -0.007035  0.005369
     8 O     0.007353 -0.007058  0.006940
     9 O     0.000161 -0.003165  0.003460
    10 O    -0.001454  0.000186  0.000815
    11 O    -0.000027 -0.003945 -0.000785
    12 C     0.002573  0.005307 -0.005176
    13 C     0.003229  0.003287 -0.005369
    14 O     0.000641 -0.002901  0.003465
    15 H    -0.001275 -0.006117  0.002226
 ----------------------------------------
 Mulliken charges used for AMS results%charges...

 dE(predicted):    -0.63013E-03, dE(actual):    -0.95925E-03, Trust radius:    0.419255, all in a.u.
 
----------------------------------------------------------------------
Geometry Convergence after Step  16       (Hartree/Angstrom,Angstrom)
----------------------------------------------------------------------
current energy                               -4.63479166 Hartree
energy change                      -0.00095925     0.00001500    F
constrained gradient max            0.01881024     0.00010000    F
constrained gradient rms            0.00483011     0.00006667    F
gradient max                        0.01881024
gradient rms                        0.00483011
cart. step max                      0.05970944     0.00100000    F
cart. step rms                      0.01976114     0.00066667    F
 
 
--------
Geometry
--------
Formula: C2H4O8Pa
Atoms
  Index Symbol   x (angstrom)   y (angstrom)   z (angstrom)
      1     Pa     0.80712097    -0.02338473    -0.26741043
      2      O     0.92448422     0.94562603    -2.21762491
      3      H     0.40227759     1.70397647    -2.49322307
      4      O    -0.17214800     1.32258884     0.56395658
      5      H    -0.28679849    -2.66062867     1.06516503
      6      O    -1.39970568    -0.98566809    -1.44585031
      7      H    -1.23512376    -1.64135132    -2.13367411
      8      O    -0.23045950    -1.73817097     0.81932214
      9      O     5.07217172    -0.30266753     0.69951567
     10      O     2.91738570     0.33928305     0.56008743
     11      O     2.29097524    -1.53864390    -1.07653236
     12      C     3.95201672    -0.41104023     0.25990641
     13      C     3.57056131    -1.57540821    -0.74576263
     14      O     4.36785759    -2.40469115    -1.11018451
     15      H    -1.43281122    -1.49844264    -0.59792515
 
Total System Charge            -1.00000
Bonding info available!
 
 *** GO1_GOStep17 ***



 ======================
 RI Hartree-Fock Scheme
 ======================
  
 Fit Set Quality     : GOOD
 Threshold Quality   : GOOD
 Integration Quality : GOOD
 Response Quality    : DEFAULT
 Is Range Separated  :  F
 
 RIHartreeFock Dependency: number of modified vectors:           5
  
 Hartree-Fock exchange energy:   -544.089491747862     

 Energy gradients wrt nuclear displacements
 ==========================================

     Atom      Cartesian (a.u./angstrom)
                 X         Y         Z
 ----------------------------------------
     1 Pa   -0.002395  0.003250 -0.002557
     2 O     0.001475 -0.001146  0.000846
     3 H    -0.001555 -0.000169  0.000298
     4 O    -0.001385 -0.001338 -0.000553
     5 H    -0.007214  0.002017 -0.002211
     6 O     0.009148  0.011686 -0.006204
     7 H    -0.001553 -0.003570  0.001772
     8 O     0.007132 -0.007164  0.005035
     9 O    -0.000810 -0.001934  0.002330
    10 O    -0.003071  0.000721 -0.001178
    11 O    -0.001641 -0.000816 -0.000475
    12 C     0.003480  0.003577 -0.002795
    13 C     0.004163  0.001940 -0.002750
    14 O    -0.000489 -0.002191  0.001817
    15 H    -0.005285 -0.004863  0.006625
 ----------------------------------------
 Mulliken charges used for AMS results%charges...

 dE(predicted):    -0.11692E-02, dE(actual):    -0.13426E-02, Trust radius:    0.838511, all in a.u.
 
----------------------------------------------------------------------
Geometry Convergence after Step  17       (Hartree/Angstrom,Angstrom)
----------------------------------------------------------------------
current energy                               -4.63613427 Hartree
energy change                      -0.00134261     0.00001500    F
constrained gradient max            0.01169431     0.00010000    F
constrained gradient rms            0.00391310     0.00006667    F
gradient max                        0.01169431
gradient rms                        0.00391310
cart. step max                      0.18866299     0.00100000    F
cart. step rms                      0.04356470     0.00066667    F
 
 
--------
Geometry
--------
Formula: C2H4O8Pa
Atoms
  Index Symbol   x (angstrom)   y (angstrom)   z (angstrom)
      1     Pa     0.78367303    -0.00811177    -0.25213433
      2      O     0.90509535     0.93229602    -2.20404515
      3      H     0.43165032     1.70805930    -2.51542824
      4      O    -0.10781922     1.38285691     0.61017368
      5      H    -0.09813550    -2.64026432     1.07961739
      6      O    -1.38726725    -1.03283798    -1.45178003
      7      H    -1.22947559    -1.58375859    -2.21970573
      8      O    -0.27840118    -1.72797471     0.84188938
      9      O     5.05497311    -0.30565648     0.68154548
     10      O     2.90177959     0.34604021     0.55999665
     11      O     2.24413746    -1.53025017    -1.04975421
     12      C     3.92444617    -0.42151874     0.26992859
     13      C     3.52314249    -1.58847867    -0.72164036
     14      O     4.30790953    -2.41832168    -1.11051210
     15      H    -1.42790389    -1.58070237    -0.63838525
 
Total System Charge            -1.00000
Bonding info available!
 
 *** GO1_GOStep18 ***



 ======================
 RI Hartree-Fock Scheme
 ======================
  
 Fit Set Quality     : GOOD
 Threshold Quality   : GOOD
 Integration Quality : GOOD
 Response Quality    : DEFAULT
 Is Range Separated  :  F
 
 RIHartreeFock Dependency: number of modified vectors:           5
  
 Hartree-Fock exchange energy:   -544.099700405841     

 Energy gradients wrt nuclear displacements
 ==========================================

     Atom      Cartesian (a.u./angstrom)
                 X         Y         Z
 ----------------------------------------
     1 Pa    0.001480 -0.000181 -0.011015
     2 O     0.002631 -0.003913  0.006963
     3 H    -0.001683 -0.000450  0.000008
     4 O     0.000951  0.002980  0.002357
     5 H    -0.004454 -0.002787  0.000751
     6 O     0.010895 -0.016023 -0.002359
     7 H    -0.002765  0.008597  0.001135
     8 O     0.003975 -0.004378  0.002944
     9 O    -0.000026  0.000132  0.000464
    10 O    -0.003720  0.002226 -0.004227
    11 O    -0.000913  0.004993 -0.000491
    12 C     0.001445 -0.000055  0.000806
    13 C     0.001086  0.000155  0.002415
    14 O    -0.001105 -0.000757 -0.001232
    15 H    -0.007797  0.009461  0.001482
 ----------------------------------------
 Mulliken charges used for AMS results%charges...

 dE(predicted):    -0.15727E-02, dE(actual):    -0.15533E-02, Trust radius:    1.000000, all in a.u.
 
----------------------------------------------------------------------
Geometry Convergence after Step  18       (Hartree/Angstrom,Angstrom)
----------------------------------------------------------------------
current energy                               -4.63768756 Hartree
energy change                      -0.00155330     0.00001500    F
constrained gradient max            0.01603444     0.00010000    F
constrained gradient rms            0.00465887     0.00006667    F
gradient max                        0.01603444
gradient rms                        0.00465887
cart. step max                      0.14775975     0.00100000    F
cart. step rms                      0.05326619     0.00066667    F
 
 
--------
Geometry
--------
Formula: C2H4O8Pa
Atoms
  Index Symbol   x (angstrom)   y (angstrom)   z (angstrom)
      1     Pa     0.79634041    -0.01671238    -0.23034648
      2      O     0.80811908     0.91671467    -2.17546946
      3      H     0.33238734     1.68979552    -2.49000839
      4      O     0.03994053     1.43167789     0.66002997
      5      H    -0.15341608    -2.56575480     1.12750744
      6      O    -1.36750082    -1.03305552    -1.46566673
      7      H    -1.19082188    -1.53591483    -2.27879393
      8      O    -0.42352068    -1.72346344     0.77331512
      9      O     5.08486690    -0.27906819     0.65138995
     10      O     2.91806126     0.33810406     0.54901625
     11      O     2.24257080    -1.54117090    -0.99832399
     12      C     3.94671982    -0.41517653     0.26221250
     13      C     3.53550471    -1.59935880    -0.70312164
     14      O     4.30848122    -2.43468862    -1.10661060
     15      H    -1.32992820    -1.70055116    -0.69536424
 
Total System Charge            -1.00000
Bonding info available!
 
 *** GO1_GOStep19 ***



 ======================
 RI Hartree-Fock Scheme
 ======================
  
 Fit Set Quality     : GOOD
 Threshold Quality   : GOOD
 Integration Quality : GOOD
 Response Quality    : DEFAULT
 Is Range Separated  :  F
 
 RIHartreeFock Dependency: number of modified vectors:           5
  
 Hartree-Fock exchange energy:   -544.089408201822     

 Energy gradients wrt nuclear displacements
 ==========================================

     Atom      Cartesian (a.u./angstrom)
                 X         Y         Z
 ----------------------------------------
     1 Pa    0.013658 -0.007402 -0.007562
     2 O    -0.001573 -0.005099  0.011902
     3 H    -0.002071  0.000430 -0.001207
     4 O     0.005610  0.003871 -0.000414
     5 H    -0.006286  0.011027 -0.005779
     6 O     0.004065  0.040522 -0.007385
     7 H     0.001071 -0.012486 -0.011726
     8 O     0.000298 -0.010452  0.002512
     9 O     0.004653  0.000697  0.001501
    10 O    -0.008164 -0.003454 -0.010356
    11 O    -0.008883  0.013454  0.003765
    12 C    -0.003873  0.003124  0.002141
    13 C     0.002326  0.003027  0.005771
    14 O     0.003104 -0.005500 -0.004098
    15 H    -0.003937 -0.031758  0.020935
 ----------------------------------------
 Mulliken charges used for AMS results%charges...

 dE(predicted):    -0.14718E-02, dE(actual):     0.14963E-02, Trust radius:    0.250000, all in a.u.
 
----------------------------------------------------------------------
Geometry Convergence after Step  19       (Hartree/Angstrom,Angstrom)
----------------------------------------------------------------------
current energy                               -4.63619122 Hartree
energy change                       0.00149635     0.00001500    F
constrained gradient max            0.04048454     0.00010000    F
constrained gradient rms            0.01045566     0.00006667    F
gradient max                        0.04048454
gradient rms                        0.01045566
cart. step max                      0.08814615     0.00100000    F
cart. step rms                      0.02655977     0.00066667    F
 
 
--------
Geometry
--------
Formula: C2H4O8Pa
Atoms
  Index Symbol   x (angstrom)   y (angstrom)   z (angstrom)
      1     Pa     0.77850392    -0.01628716    -0.23047722
      2      O     0.85457398     0.92007709    -2.18613759
      3      H     0.39594336     1.70189858    -2.50497686
      4      O    -0.04223606     1.40350946     0.65005905
      5      H    -0.06526992    -2.56214439     1.13280236
      6      O    -1.39043884    -1.04749738    -1.46255081
      7      H    -1.19567140    -1.53244437    -2.27267698
      8      O    -0.37172306    -1.72043272     0.79562064
      9      O     5.06404371    -0.29775742     0.65011643
     10      O     2.90530423     0.34287160     0.56587018
     11      O     2.22623714    -1.55037562    -1.01758635
     12      C     3.92478218    -0.42333793     0.26470345
     13      C     3.51225682    -1.59945771    -0.71093405
     14      O     4.29628102    -2.42498962    -1.11201458
     15      H    -1.34478267    -1.66225544    -0.68205190
 
Total System Charge            -1.00000
Bonding info available!
 
 *** GO1_GOStep20 ***



 ======================
 RI Hartree-Fock Scheme
 ======================
  
 Fit Set Quality     : GOOD
 Threshold Quality   : GOOD
 Integration Quality : GOOD
 Response Quality    : DEFAULT
 Is Range Separated  :  F
 
 RIHartreeFock Dependency: number of modified vectors:           5
  
 Hartree-Fock exchange energy:   -544.098542126911     

 Energy gradients wrt nuclear displacements
 ==========================================

     Atom      Cartesian (a.u./angstrom)
                 X         Y         Z
 ----------------------------------------
     1 Pa    0.002824 -0.011765 -0.002750
     2 O     0.001155 -0.003424  0.006766
     3 H    -0.001852  0.000475 -0.000917
     4 O     0.003360  0.003133  0.000999
     5 H    -0.002960  0.004466 -0.001274
     6 O     0.006191  0.002565 -0.002591
     7 H    -0.001217  0.000740 -0.005570
     8 O     0.001218 -0.002929 -0.001063
     9 O     0.001193  0.000455  0.000087
    10 O    -0.003484  0.003663 -0.004656
    11 O    -0.002436  0.006748 -0.000638
    12 C    -0.000259 -0.000409  0.001494
    13 C    -0.001138  0.001206  0.003788
    14 O     0.001232 -0.002084 -0.002297
    15 H    -0.003826 -0.002840  0.008623
 ----------------------------------------
 Mulliken charges used for AMS results%charges...
 Rebuilding optimization coordinates

 dE(predicted):    -0.22809E-02, dE(actual):    -0.23137E-02, Trust radius:    0.500000, all in a.u.
 
----------------------------------------------------------------------
Geometry Convergence after Step  20       (Hartree/Angstrom,Angstrom)
----------------------------------------------------------------------
current energy                               -4.63850489 Hartree
energy change                      -0.00231367     0.00001500    F
constrained gradient max            0.01177928     0.00010000    F
constrained gradient rms            0.00363330     0.00006667    F
gradient max                        0.01177928
gradient rms                        0.00363330
cart. step max                      0.06374267     0.00100000    F
cart. step rms                      0.01931240     0.00066667    F
 
 
--------
Geometry
--------
Formula: C2H4O8Pa
Atoms
  Index Symbol   x (angstrom)   y (angstrom)   z (angstrom)
      1     Pa     0.76805088    -0.00913863    -0.23415612
      2      O     0.87666331     0.93225974    -2.19966669
      3      H     0.42330336     1.71775026    -2.51400788
      4      O    -0.10597872     1.38826077     0.62765013
      5      H    -0.03859331    -2.58282260     1.12171675
      6      O    -1.40878895    -1.03588041    -1.46202808
      7      H    -1.17990996    -1.55667354    -2.23860374
      8      O    -0.32336160    -1.71856008     0.81408412
      9      O     5.05066046    -0.31431259     0.65318711
     10      O     2.89760921     0.33341658     0.57777137
     11      O     2.21760552    -1.55652216    -1.02514589
     12      C     3.91363779    -0.42790144     0.26041775
     13      C     3.50152468    -1.59703808    -0.72235153
     14      O     4.29032872    -2.42225750    -1.10978275
     15      H    -1.33494698    -1.61920335    -0.66931878
 
Total System Charge            -1.00000
Bonding info available!
 
 *** GO1_GOStep21 ***



 ======================
 RI Hartree-Fock Scheme
 ======================
  
 Fit Set Quality     : GOOD
 Threshold Quality   : GOOD
 Integration Quality : GOOD
 Response Quality    : DEFAULT
 Is Range Separated  :  F
 
 RIHartreeFock Dependency: number of modified vectors:           5
  
 Hartree-Fock exchange energy:   -544.103075018010     

 Energy gradients wrt nuclear displacements
 ==========================================

     Atom      Cartesian (a.u./angstrom)
                 X         Y         Z
 ----------------------------------------
     1 Pa   -0.006122 -0.011504  0.002871
     2 O     0.000520  0.000633  0.000212
     3 H    -0.000561 -0.001071 -0.000083
     4 O     0.002138  0.001302  0.000118
     5 H    -0.001442 -0.002022  0.001757
     6 O     0.003936 -0.000949 -0.000538
     7 H    -0.001564  0.000527 -0.000322
     8 O     0.002358  0.002489 -0.001311
     9 O    -0.002516 -0.000998 -0.000006
    10 O     0.003521  0.000584 -0.002289
    11 O     0.002994  0.002174  0.000244
    12 C    -0.000298  0.002591  0.000016
    13 C    -0.001356 -0.000824 -0.002433
    14 O    -0.001648  0.002231  0.002419
    15 H     0.000038  0.004838 -0.000655
 ----------------------------------------
 Mulliken charges used for AMS results%charges...

 dE(predicted):    -0.58204E-03, dE(actual):    -0.60046E-03, Trust radius:    0.500000, all in a.u.
 
----------------------------------------------------------------------
Geometry Convergence after Step  21       (Hartree/Angstrom,Angstrom)
----------------------------------------------------------------------
current energy                               -4.63910534 Hartree
energy change                      -0.00060046     0.00001500    F
constrained gradient max            0.01151935     0.00010000    F
constrained gradient rms            0.00266834     0.00006667    F
gradient max                        0.01151935
gradient rms                        0.00266834
cart. step max                      0.06241941     0.00100000    F
cart. step rms                      0.01420251     0.00066667    F
 
 
--------
Geometry
--------
Formula: C2H4O8Pa
Atoms
  Index Symbol   x (angstrom)   y (angstrom)   z (angstrom)
      1     Pa     0.75752073    -0.00254846    -0.23025098
      2      O     0.87296892     0.93569188    -2.19557150
      3      H     0.43778348     1.72810418    -2.51852840
      4      O    -0.09908330     1.40062484     0.63975833
      5      H     0.02382611    -2.55415051     1.13274315
      6      O    -1.40351348    -1.05252371    -1.46652108
      7      H    -1.16977798    -1.54989177    -2.25584104
      8      O    -0.33427507    -1.72240315     0.81458187
      9      O     5.04310969    -0.31998681     0.64817463
     10      O     2.88897462     0.33019993     0.58153394
     11      O     2.19943675    -1.55522235    -1.01770994
     12      C     3.90282028    -0.43268838     0.26145879
     13      C     3.48464381    -1.60074530    -0.71918516
     14      O     4.26853432    -2.42908630    -1.11383501
     15      H    -1.32516445    -1.64399713    -0.68104183
 
Total System Charge            -1.00000
Bonding info available!
 
 *** GO1_GOStep22 ***



 ======================
 RI Hartree-Fock Scheme
 ======================
  
 Fit Set Quality     : GOOD
 Threshold Quality   : GOOD
 Integration Quality : GOOD
 Response Quality    : DEFAULT
 Is Range Separated  :  F
 
 RIHartreeFock Dependency: number of modified vectors:           5
  
 Hartree-Fock exchange energy:   -544.101830094552     

 Energy gradients wrt nuclear displacements
 ==========================================

     Atom      Cartesian (a.u./angstrom)
                 X         Y         Z
 ----------------------------------------
     1 Pa   -0.005637 -0.011069  0.001996
     2 O     0.001083 -0.000129  0.000912
     3 H    -0.000738 -0.000707 -0.000287
     4 O     0.002947  0.001498  0.000455
     5 H    -0.000670  0.000912  0.001440
     6 O     0.004630 -0.004673 -0.001409
     7 H    -0.002103  0.002409 -0.000546
     8 O     0.001160 -0.001183 -0.000680
     9 O     0.000326 -0.000797  0.000602
    10 O     0.002582  0.000763 -0.002627
    11 O     0.002031  0.003013  0.000210
    12 C    -0.002689  0.002344 -0.000462
    13 C    -0.002687  0.001729 -0.000012
    14 O     0.000397 -0.000653  0.000420
    15 H    -0.000633  0.006543 -0.000013
 ----------------------------------------
 Mulliken charges used for AMS results%charges...

 dE(predicted):    -0.13662E-03, dE(actual):    -0.13371E-03, Trust radius:    0.500000, all in a.u.
 
----------------------------------------------------------------------
Geometry Convergence after Step  22       (Hartree/Angstrom,Angstrom)
----------------------------------------------------------------------
current energy                               -4.63923905 Hartree
energy change                      -0.00013371     0.00001500    F
constrained gradient max            0.01108570     0.00010000    F
constrained gradient rms            0.00270987     0.00006667    F
gradient max                        0.01108570
gradient rms                        0.00270987
cart. step max                      0.04002042     0.00100000    F
cart. step rms                      0.01131079     0.00066667    F
 
 
--------
Geometry
--------
Formula: C2H4O8Pa
Atoms
  Index Symbol   x (angstrom)   y (angstrom)   z (angstrom)
      1     Pa     0.74865159     0.00707480    -0.22865311
      2      O     0.87658721     0.94734556    -2.19517224
      3      H     0.45779557     1.74809232    -2.51993956
      4      O    -0.11632909     1.40608339     0.63872410
      5      H     0.06384653    -2.53490741     1.12739273
      6      O    -1.40260639    -1.06566118    -1.46617281
      7      H    -1.15306389    -1.56489185    -2.25020119
      8      O    -0.33143429    -1.72065379     0.81324971
      9      O     5.03579065    -0.32905743     0.64422043
     10      O     2.88163000     0.32470976     0.58797086
     11      O     2.18345567    -1.55645156    -1.01346079
     12      C     3.89405436    -0.43736836     0.25907720
     13      C     3.47041545    -1.60308216    -0.72163808
     14      O     4.24990883    -2.43624551    -1.11704180
     15      H    -1.31089778    -1.65360961    -0.67858969
 
Total System Charge            -1.00000
Bonding info available!
 
 *** GO1_GOStep23 ***



 ======================
 RI Hartree-Fock Scheme
 ======================
  
 Fit Set Quality     : GOOD
 Threshold Quality   : GOOD
 Integration Quality : GOOD
 Response Quality    : DEFAULT
 Is Range Separated  :  F
 
 RIHartreeFock Dependency: number of modified vectors:           5
  
 Hartree-Fock exchange energy:   -544.100289768721     

 Energy gradients wrt nuclear displacements
 ==========================================

     Atom      Cartesian (a.u./angstrom)
                 X         Y         Z
 ----------------------------------------
     1 Pa   -0.007046 -0.010787  0.004042
     2 O     0.001314 -0.000056 -0.000284
     3 H    -0.000748 -0.000139 -0.000475
     4 O     0.002923  0.000942  0.000077
     5 H    -0.001605  0.004721  0.000355
     6 O     0.003585 -0.003153 -0.000774
     7 H    -0.001714  0.001399 -0.000658
     8 O     0.002392 -0.004481 -0.000415
     9 O     0.001668 -0.001072  0.001430
    10 O     0.002216  0.000757 -0.001650
    11 O     0.001514  0.001994  0.000421
    12 C    -0.003349  0.002523 -0.001975
    13 C    -0.002447  0.003822  0.000122
    14 O     0.001279 -0.002613 -0.000033
    15 H     0.000020  0.006144 -0.000182
 ----------------------------------------
 Mulliken charges used for AMS results%charges...

 dE(predicted):    -0.12413E-03, dE(actual):    -0.18176E-03, Trust radius:    0.500000, all in a.u.
 
----------------------------------------------------------------------
Geometry Convergence after Step  23       (Hartree/Angstrom,Angstrom)
----------------------------------------------------------------------
current energy                               -4.63942082 Hartree
energy change                      -0.00018176     0.00001500    F
constrained gradient max            0.01080544     0.00010000    F
constrained gradient rms            0.00291725     0.00006667    F
gradient max                        0.01080544
gradient rms                        0.00291725
cart. step max                      0.05922044     0.00100000    F
cart. step rms                      0.02208064     0.00066667    F
 
 
--------
Geometry
--------
Formula: C2H4O8Pa
Atoms
  Index Symbol   x (angstrom)   y (angstrom)   z (angstrom)
      1     Pa     0.73522972     0.02944757    -0.22787318
      2      O     0.88562262     0.97704002    -2.19399263
      3      H     0.49568831     1.79277521    -2.51742914
      4      O    -0.15860772     1.41571307     0.62945151
      5      H     0.12306697    -2.50043834     1.11565549
      6      O    -1.39576890    -1.09527476    -1.46336605
      7      H    -1.11713920    -1.60500572    -2.23203217
      8      O    -0.32402764    -1.71034349     0.80969422
      9      O     5.02221501    -0.34946163     0.63725194
     10      O     2.86986977     0.31142705     0.60036609
[...]
    11     O      -0.052123  -0.166776  -0.019762
    12     C       0.086358   0.171563  -0.130243
    13     C       0.035467   0.105633  -0.207788
    14     O      -0.028544  -0.085911   0.038679
    15     H       0.212965  -0.073984  -0.035498
 
 Mode:    29      Frequency (cm-1):      517.4642     Intensity (km/mol):       82.9322
 Index  Atom      ---- Displacements (x/y/z) ----
     1    Pa       0.009879   0.005284  -0.027036
     2     O      -0.021122  -0.226416   0.350592
     3     H      -0.107227  -0.204367   0.520520
     4     O      -0.030852   0.029684   0.049501
     5     H       0.013618   0.057933  -0.018211
     6     O       0.048176   0.019893  -0.006454
     7     H      -0.443360  -0.376223  -0.167408
     8     O       0.048102   0.069077  -0.036428
     9     O      -0.060217  -0.040559  -0.039486
    10     O      -0.100547  -0.116095  -0.106592
    11     O       0.037916   0.135627   0.140936
    12     C      -0.044729  -0.029666  -0.072647
    13     C       0.017482   0.075922   0.032876
    14     O      -0.014645   0.045422   0.045179
    15     H       0.075741   0.083638   0.031842
 
 Mode:    30      Frequency (cm-1):      538.1928     Intensity (km/mol):      167.4209
 Index  Atom      ---- Displacements (x/y/z) ----
     1    Pa      -0.002648   0.000693   0.005926
     2     O       0.004772   0.019814  -0.044427
     3     H      -0.025513  -0.003131  -0.075447
     4     O       0.002961   0.008028   0.002615
     5     H       0.106160   0.094272   0.141983
     6     O       0.058428   0.026419  -0.030128
     7     H      -0.593180  -0.717620  -0.055898
     8     O       0.007735  -0.022201  -0.003690
     9     O      -0.020803  -0.008416  -0.016769
    10     O       0.003175   0.050697   0.037287
    11     O       0.032509  -0.005762  -0.001666
    12     C      -0.024479   0.007379   0.005608
    13     C       0.012445  -0.024586  -0.008769
    14     O       0.005404  -0.033045  -0.028429
    15     H      -0.231788   0.108659   0.020861
 
 Mode:    31      Frequency (cm-1):      558.4708     Intensity (km/mol):       12.7667
 Index  Atom      ---- Displacements (x/y/z) ----
     1    Pa      -0.000303   0.000889   0.003826
     2     O       0.000319   0.005125  -0.019752
     3     H       0.011814  -0.006609  -0.067197
     4     O      -0.004845   0.005052  -0.000284
     5     H       0.069700   0.078989   0.138837
     6     O       0.042612   0.015997  -0.021175
     7     H      -0.465077  -0.530356  -0.070578
     8     O       0.008017  -0.017908  -0.010347
     9     O       0.205083   0.103642   0.135710
    10     O       0.084272  -0.228401  -0.181641
    11     O      -0.240803  -0.096539  -0.173512
    12     C       0.198291  -0.086971   0.039269
    13     C      -0.200631   0.092957   0.057540
    14     O      -0.055087   0.220820   0.142661
    15     H      -0.147152   0.059315   0.006066
 
 Mode:    32      Frequency (cm-1):      777.9957     Intensity (km/mol):       69.8346
 Index  Atom      ---- Displacements (x/y/z) ----
     1    Pa       0.007409   0.002328   0.003980
     2     O      -0.001232   0.005413  -0.012100
     3     H       0.008652   0.012554  -0.004884
     4     O      -0.044533   0.061923   0.037449
     5     H      -0.016289  -0.007371   0.020275
     6     O      -0.007511  -0.000731   0.004924
     7     H       0.023769   0.031551   0.004905
     8     O      -0.008472  -0.008677   0.003705
     9     O       0.243987  -0.220776  -0.103509
    10     O      -0.447341   0.023935  -0.122822
    11     O       0.330385  -0.321400  -0.154552
    12     C       0.096338   0.260357   0.234703
    13     C       0.145155   0.241619   0.254051
    14     O      -0.349751   0.052144  -0.076447
    15     H      -0.075187  -0.069422  -0.033339
 
 Mode:    33      Frequency (cm-1):      825.8805     Intensity (km/mol):      436.5520
 Index  Atom      ---- Displacements (x/y/z) ----
     1    Pa       0.019251  -0.022944  -0.015458
     2     O      -0.001023   0.025953  -0.021239
     3     H       0.024740   0.006856  -0.109830
     4     O      -0.238708   0.351408   0.214213
     5     H      -0.062265  -0.070604  -0.062937
     6     O       0.017592  -0.005756   0.041435
     7     H       0.033008   0.102929  -0.037804
     8     O      -0.020841  -0.017320   0.006092
     9     O       0.018617  -0.001758   0.003355
    10     O      -0.007412   0.018444   0.013650
    11     O      -0.055857   0.028711   0.008894
    12     C       0.014171   0.008831   0.016194
    13     C      -0.008953  -0.034956  -0.038238
    14     O       0.043512  -0.016728   0.002846
    15     H      -0.596313  -0.546016  -0.256358
 
 Mode:    34      Frequency (cm-1):      849.0064     Intensity (km/mol):       20.1815
 Index  Atom      ---- Displacements (x/y/z) ----
     1    Pa      -0.001471   0.004722   0.000452
     2     O       0.002017  -0.003016   0.007544
     3     H      -0.011920  -0.006055   0.015912
     4     O       0.024823  -0.038198  -0.020813
     5     H      -0.047371  -0.032125  -0.019597
     6     O       0.013593   0.000067   0.026303
     7     H       0.002863   0.041007  -0.021287
     8     O      -0.000788  -0.000620  -0.007845
     9     O      -0.001885   0.093711  -0.097610
    10     O       0.066659   0.059763  -0.086455
    11     O       0.015680  -0.093205   0.080488
    12     C      -0.152409  -0.377812   0.395849
    13     C       0.148352   0.370962  -0.391526
    14     O      -0.068212  -0.060323   0.100326
    15     H      -0.381566  -0.340010  -0.160849
 
 Mode:    35      Frequency (cm-1):      851.4426     Intensity (km/mol):      343.6644
 Index  Atom      ---- Displacements (x/y/z) ----
     1    Pa       0.002238  -0.007618  -0.000429
     2     O      -0.003120   0.005006  -0.012138
     3     H       0.010828   0.007278  -0.022657
     4     O      -0.038934   0.058981   0.033013
     5     H       0.073987   0.059633   0.058661
     6     O      -0.024823   0.000138  -0.047626
     7     H      -0.005031  -0.073589   0.038370
     8     O       0.002266   0.000435   0.013548
     9     O       0.063960  -0.017080  -0.012681
    10     O      -0.072802   0.033826  -0.013870
    11     O      -0.071647   0.029890   0.013286
    12     C       0.016253   0.011221   0.095136
    13     C      -0.000228  -0.015378  -0.089910
    14     O       0.052377  -0.036165   0.005827
    15     H       0.687890   0.611886   0.289313
 
 Mode:    36      Frequency (cm-1):      869.8990     Intensity (km/mol):        9.2041
 Index  Atom      ---- Displacements (x/y/z) ----
     1    Pa      -0.000003   0.009321   0.002845
     2     O       0.000082  -0.016573   0.030605
     3     H      -0.005279  -0.019493   0.033714
     4     O       0.081900  -0.122304  -0.071550
     5     H      -0.056642  -0.034498  -0.051478
     6     O       0.031613   0.003656   0.044392
     7     H      -0.032281   0.034116  -0.046251
     8     O       0.006628   0.011254  -0.023081
     9     O       0.146256  -0.064125  -0.006732
    10     O      -0.200669   0.043877  -0.027296
    11     O      -0.158996   0.101658   0.033351
    12     C       0.059317   0.133001   0.127413
    13     C      -0.054518  -0.116462  -0.114581
    14     O       0.134679  -0.068393  -0.009842
    15     H      -0.620850  -0.552879  -0.262530
 
 Mode:    37      Frequency (cm-1):     1148.6980     Intensity (km/mol):       55.5464
 Index  Atom      ---- Displacements (x/y/z) ----
     1    Pa      -0.001110  -0.003593  -0.003043
     2     O       0.001625   0.003983   0.000878
     3     H      -0.024266   0.001523   0.025230
     4     O       0.004128   0.001341   0.002379
     5     H       0.015953  -0.013252  -0.065270
     6     O      -0.002157  -0.001687   0.001602
     7     H       0.061790   0.073917   0.006021
     8     O      -0.002650   0.007234   0.007435
     9     O       0.174602   0.044026   0.092367
    10     O      -0.232442   0.244661   0.129690
    11     O       0.360967  -0.006033   0.113039
    12     C       0.207356  -0.403586  -0.268886
    13     C      -0.514411  -0.127893  -0.269370
    14     O      -0.059892   0.151742   0.101373
    15     H      -0.018352   0.022913   0.018238
 
 Mode:    38      Frequency (cm-1):     1294.4655     Intensity (km/mol):      574.4561
 Index  Atom      ---- Displacements (x/y/z) ----
     1    Pa       0.000066   0.000536   0.000149
     2     O      -0.001267  -0.006940   0.013760
     3     H       0.005331  -0.013694  -0.004067
     4     O       0.010133  -0.015328  -0.009347
     5     H      -0.002420   0.009994   0.000743
     6     O       0.006208   0.003523   0.003472
     7     H      -0.023850  -0.012315  -0.009969
     8     O       0.007217   0.007877  -0.007009
     9     O       0.094958   0.040892   0.064967
    10     O      -0.253702   0.249371   0.126238
    11     O      -0.328093   0.018734  -0.092109
    12     C       0.150494  -0.482147  -0.353701
    13     C       0.460195   0.178639   0.296133
    14     O       0.009243  -0.074599  -0.056876
    15     H      -0.039501  -0.040632  -0.019310
 
 Mode:    39      Frequency (cm-1):     1623.7635     Intensity (km/mol):       53.0683
 Index  Atom      ---- Displacements (x/y/z) ----
     1    Pa      -0.000207   0.000130   0.000092
     2     O       0.000037   0.000113   0.000496
     3     H       0.000226  -0.000161  -0.000319
     4     O       0.000502  -0.000180  -0.000148
     5     H       0.017000   0.018638   0.034308
     6     O       0.035658  -0.054860   0.008767
     7     H      -0.110024   0.397357  -0.470958
     8     O       0.004169  -0.004683  -0.001194
     9     O      -0.000905  -0.000276  -0.000445
    10     O       0.000751  -0.000799  -0.000454
    11     O      -0.001475  -0.001230  -0.000403
    12     C       0.000552   0.001203   0.000937
    13     C      -0.001910   0.004323   0.002894
    14     O       0.002247  -0.003209  -0.001702
    15     H      -0.493923   0.522071   0.292254
 
 Mode:    40      Frequency (cm-1):     1744.4583     Intensity (km/mol):      152.2363
 Index  Atom      ---- Displacements (x/y/z) ----
     1    Pa       0.000376   0.001234   0.001076
     2     O      -0.000333  -0.000794  -0.000140
     3     H       0.003776  -0.001103  -0.006886
     4     O      -0.000854  -0.000216  -0.000453
     5     H      -0.004424   0.002285   0.012613
     6     O       0.003760  -0.003781   0.000808
     7     H      -0.026992   0.013239  -0.040828
     8     O       0.000982  -0.001886  -0.001441
     9     O       0.345838   0.002589   0.112505
    10     O       0.023162  -0.008205   0.000921
    11     O      -0.011473   0.010471   0.004328
    12     C      -0.561120   0.031082  -0.154555
    13     C       0.384044  -0.422893  -0.213863
    14     O      -0.229600   0.274893   0.145534
    15     H      -0.036838   0.034054   0.016019
 
 Mode:    41      Frequency (cm-1):     1767.2043     Intensity (km/mol):     1096.8198
 Index  Atom      ---- Displacements (x/y/z) ----
     1    Pa      -0.002496   0.001338   0.000105
     2     O      -0.000047  -0.003848   0.007115
     3     H       0.006937  -0.008526  -0.004266
     4     O       0.006387  -0.007851  -0.004426
     5     H      -0.012003   0.004221   0.007778
     6     O       0.005927  -0.000634   0.001876
     7     H      -0.032258   0.002634  -0.033512
     8     O       0.005234   0.003174  -0.003646
     9     O      -0.370756  -0.008303  -0.125135
    10     O      -0.041777   0.028954   0.010693
    11     O      -0.040364   0.010297  -0.005284
    12     C       0.579903  -0.009401   0.176969
    13     C       0.346393  -0.404958  -0.211342
    14     O      -0.218460   0.269582   0.144705
    15     H      -0.042675   0.004264   0.004207
 
 Mode:    42      Frequency (cm-1):     3364.6731     Intensity (km/mol):      319.6087
 Index  Atom      ---- Displacements (x/y/z) ----
     1    Pa       0.000012  -0.000057   0.000214
     2     O      -0.000152   0.000034  -0.000399
     3     H       0.000513   0.000486   0.000002
     4     O      -0.000065   0.000175  -0.000166
     5     H       0.001924  -0.005034  -0.000242
     6     O      -0.004581   0.029318  -0.052745
     7     H       0.056184  -0.035222  -0.073875
     8     O       0.002001   0.003184  -0.000049
     9     O       0.000055  -0.000027  -0.000028
    10     O       0.000117  -0.000032  -0.000138
    11     O      -0.000150  -0.000017  -0.000227
    12     C      -0.000258   0.000157   0.000113
    13     C       0.000110  -0.000123   0.000013
    14     O      -0.000015   0.000001  -0.000034
    15     H      -0.015407  -0.465411   0.877265
 
 Mode:    43      Frequency (cm-1):     3800.0638     Intensity (km/mol):       67.6129
 Index  Atom      ---- Displacements (x/y/z) ----
     1    Pa      -0.000033  -0.000021   0.000005
     2     O       0.000157  -0.000253   0.000007
     3     H      -0.001840   0.004647  -0.001573
     4     O      -0.000035   0.000073   0.000019
     5     H       0.005696  -0.010669   0.003657
     6     O       0.037177  -0.028014  -0.041887
     7     H      -0.607561   0.502344   0.606265
     8     O      -0.000143   0.000982  -0.000055
     9     O       0.000045  -0.000019  -0.000004
    10     O       0.000154  -0.000072  -0.000022
    11     O       0.000203  -0.000208  -0.000179
    12     C      -0.000132   0.000094   0.000061
    13     C      -0.000026   0.000077   0.000053
    14     O       0.000019  -0.000051  -0.000052
    15     H       0.016731  -0.056155   0.058480
 
 Mode:    44      Frequency (cm-1):     3849.9774     Intensity (km/mol):       38.8228
 Index  Atom      ---- Displacements (x/y/z) ----
     1    Pa       0.000018  -0.000018   0.000001
     2     O      -0.000006   0.000088  -0.000090
     3     H       0.000515  -0.000870   0.000334
     4     O      -0.000113   0.000120   0.000079
     5     H      -0.469144   0.815852  -0.331920
     6     O       0.000360  -0.000183  -0.000923
     7     H      -0.007140   0.006167   0.007470
     8     O       0.029183  -0.051201   0.021072
     9     O       0.000089  -0.000008   0.000035
    10     O       0.000151  -0.000028  -0.000012
    11     O       0.000246  -0.000070  -0.000073
    12     C      -0.000188   0.000076  -0.000012
    13     C      -0.000286   0.000171  -0.000010
    14     O       0.000086  -0.000109  -0.000030
    15     H       0.001276  -0.004278   0.005863
 
 Mode:    45      Frequency (cm-1):     3868.7337     Intensity (km/mol):       68.0788
 Index  Atom      ---- Displacements (x/y/z) ----
     1    Pa      -0.000021   0.000015   0.000008
     2     O      -0.022363   0.055204  -0.019766
     3     H       0.359635  -0.878551   0.307968
     4     O      -0.000125   0.000083   0.000227
     5     H       0.000740  -0.000869   0.000416
     6     O       0.000144  -0.000185  -0.000226
     7     H      -0.003086   0.002569   0.003248
     8     O      -0.000066   0.000022   0.000028
     9     O       0.000075  -0.000005   0.000014
    10     O       0.000159  -0.000058   0.000020
    11     O       0.000124  -0.000088  -0.000060
    12     C      -0.000171   0.000090   0.000015
    13     C      -0.000126   0.000057   0.000004
    14     O       0.000045  -0.000042  -0.000025
    15     H       0.000234  -0.000212   0.000392

PES point character: Geometry corresponds to a local minimum on the PES.




 ============================
 Statistical Thermal Analysis  ***  ideal gas assumed  ***
 ============================
  
 Pressure:                  1.000000 atm.
 Temperature:             298.150000 K



 Moments of Inertia [amu*bohr^2] and principal axis
 ==================================================

        1576.5202       3504.8163       3938.5392
 ------------------------------------------------
           0.9372          0.3008         -0.1768
          -0.3488          0.8228         -0.4488
           0.0105          0.4822          0.8760


 The rotational contribution to the molecular entropy includes
 a term, dependent on the symmetry number sigma. The results 
 reported below were computed using sigma = 1, determined from
 the point group symmetry of the input geometry (NOSYM). 
 If this is not the correct symmetry, try symmetrizing the molecule before
 running the calculation (note: linear molecules should be aligned along one
 of the Cartesian axes).
 Contributions from frequencies below 20 1/cm are not included in vibrational sums.
 Their contributions, if any, are reported separately.


     Temp                                                        Transl      Rotat     Vibrat     Total
     ----                                                        ------      -----     ------     -----

     298.15   Entropy (cal/mol-K):                               43.752     31.454     53.032    128.238
              Nuclear Internal Energy (kcal/mol):                 0.889      0.889     56.101     57.878
              Constant Volume Heat Capacity (cal/mol-K):          2.981      2.981     44.557     50.518
          (c) Constant Volume Heat Capacity (cal/mol-K):          2.981      2.981     39.665     45.626

       Summary of energy terms
                                                   hartree              eV         kcal/mol           kJ/mol
                                      --------------------     -----------       ----------      -----------
      Energy from Engine:               -4.640584827490168       -126.2767         -2912.01        -12183.85
      Nuclear Internal Energy:           0.092234760659517          2.5098            57.88           242.16
  (c) Nuclear Internal Energy:           0.089750497101530          2.4422            56.32           235.64
      Internal Energy U:                -4.548350066830650       -123.7669         -2854.13        -11941.69
      pV/n = RT:                         0.000944186013486          0.0257             0.59             2.48
      Enthalpy H:                       -4.547405880817164       -123.7412         -2853.54        -11939.21
      -T*S:                             -0.060930050765958         -1.6580           -38.23          -159.97
  (c) -T*S:                             -0.058333523071848         -1.5873           -36.60          -153.15
      Gibbs free energy:                -4.608335931583122       -125.3992         -2891.77        -12099.18
 
 
 
  (c) The properties marked with this symbol have been corrected using 'low vibrational frequency free rotor
      interpolation corrections'. For those terms all positive frequencies are used (also ones below 20 1/cm),
      but the contribution to the partition function of small vibrational frequencies is modified as described
      in the following paper:
      S. Grimme, 'Supramolecular Binding Thermodynamics by Dispersion-Corrected Density Functional Theory'
      (Chem. Eur. J. 2012, 18, 9955-9964)
      Configuration: Dampener Frequency          :   100.000 1/cm
                     Dampener Alpha              :     4.000
                     Averaging Moment of Inertia : 1.000E-44 kg m2

--------------
Atomic charges
--------------
  Index   Atom    Charge
      1     Pa    2.3569
      2      O   -0.6743
      3      H    0.0815
      4      O   -0.7591
      5      H    0.1085
      6      O   -0.4911
      7      H    0.2222
      8      O   -0.7324
      9      O   -0.5759
     10      O   -0.7577
     11      O   -0.7435
     12      C    0.6489
     13      C    0.6415
     14      O   -0.5741
     15      H    0.2487


Dipole moment vector    (Debye):   -11.50486899    1.33196252    0.28618273
              magnitude (Debye):    11.58525076


Final PES point is a local minimum. Geometry optimization successful!


AMS application finished. Exiting.
NORMAL TERMINATION
     Total cpu time:  140796.44
  Total system time:    3347.02
 Total elapsed time:  144153.09
