

 Parallel Execution: Process Information
 ==============================================================================
 Rank   Node Name                              NodeID   MyNodeRank  NodeMaster
    0   u-0-6.local                               0          0          0
    1   u-0-6.local                               0          1         -1
    2   u-0-6.local                               1          0          1
    3   u-0-6.local                               1          1         -1
    4   u-0-6.local                               2          0          2
    5   u-0-6.local                               2          1         -1
    6   u-0-6.local                               3          0          3
    7   u-0-6.local                               3          1         -1
 ==============================================================================


May use up to 31228MB of RAM as shared memory on node 0
May use up to 31250MB of RAM as shared memory on node 1
May use up to 31250MB of RAM as shared memory on node 2
May use up to 31250MB of RAM as shared memory on node 3

 *******************************************************************************
 *                                                                             *
 *  --------------------------------                                           *
 *   Amsterdam Modeling Suite (AMS)              2023.101                      *
 *  --------------------------------                                           *
 *                                               r111868 2023-03-31            *
 *                                                                             *
 *                                                                             *
 *                              =================                              *
 *                              |               |                              *
 *                              |     A M S     |                              *
 *                              |               |                              *
 *                              =================                              *
 *                                                                             *
 *                                                                             *
 *   Online information and documentation:  https://www.scm.com/support/       *
 *   E-mail:  support@scm.com   info@scm.com                                   *
 *                                                                             *
 *   Scientific publications using AMS results must be properly referenced     *
 *   See the User Manuals (or the web site) for recommended citations          *
 *   The terms and conditions of the End User License Agreement apply to       *
 *   the use of AMS, https://www.scm.com/license-terms/                        *
 *                                                                             *
 **********************  x86_64_linux_intel / intelmpi  ************************
 
 Licensed to: Dr. Val?rie Vallet / Laboratoire PhLAM UMR 8523 / Villeneuve d'Ascq Cedex / FRANCE 2023-12-11 15:27:25
 SCM User ID: u10325
  
 AMS 2023.101  RunTime: Jan15-2024 09:19:49  ShM Nodes: 4  Procs: 8

 AMS jobname: pao_oh2_N_h2o.SO.b3lyp.tz2p.sp
 AMS jobid  : 630024833

 Start   directory: /home/shaaban/ams/PhD/thiocyanate/bnN/pao_oh2_N_h2o/gp/SP-SR-SO/
 Results directory: /home/shaaban/ams/PhD/thiocyanate/bnN/pao_oh2_N_h2o/gp/SP-SR-SO/pao_oh2_N_h2o.SO.b3lyp.tz2p.sp.results/
 Scratch directory: /state/partition2/shaaban/999622.phlam-s-sakura/amstmp_pao_oh2_N_h2o.SO.b3lyp.tz2p.sp_kid0.630024833/


 Communication costs MPI_COMM_WORLD:      2.770 usec per message,   0.0090 usec per 8-byte item
 Communication costs for intra-node:      0.608 usec per message,   0.0024 usec per 8-byte item

 RNG seed: 1018185864 -519596656 373815494 1235826284 -890945677 755989476 1649690756 947340330



                      ************************************************************************
                      *  ADF 2023.101  RunTime: Jan15-2024 09:19:50  ShM Nodes: 4  Procs: 8  *
                      ************************************************************************
  

       ****************************
       * SINGLE POINT CALCULATION *
       ****************************
 
--------
Geometry
--------
Formula: CH4NO4PaS
Atoms
  Index Symbol   x (angstrom)   y (angstrom)   z (angstrom)
      1     Pa     0.22794905    -0.09123591    -0.41466172
      2      O     1.13018921     1.34837053    -1.65842194
      3      H     1.54624081     2.15581727    -1.96554531
      4      O    -0.45193777     0.88974003     0.99949511
      5      H    -0.15524668    -2.75179075     1.31573209
      6      O    -0.64175619    -1.24766021    -1.95655150
      7      H    -0.81152957    -1.56225747    -2.84780928
      8      O    -0.68089458    -1.94984390     1.20352888
      9      H    -0.79736616    -1.55941182     2.07927697
     10      N     2.16416576    -1.27592559     0.14001009
     11      C     3.17452468    -1.87095179     0.34950782
     12      S     4.51574154    -2.67256959     0.63951666
 
Total System Charge             0.00000
Bonding info available!
 
 
----------------
ADF Engine Input
----------------
 
 Basis
 Type TZ2P
 Core None
 End
 XC
 Hybrid B3LYP
 End
 Relativity
 Level Spin-Orbit
 End
 NumericalQuality Good
 

 Title: *** (NO TITLE) ***

 *** adf ***



 ===========================
 A T T A C H E D   F I L E S
 ===========================
  



 ===============================
 M O D E L   P A R A M E T E R S
 ===============================
  
 DENSITY FUNCTIONAL POTENTIAL (scf)
    Hybrid:                            B3LYP                                   == Not Default ==

 SPIN  (restricted / unrestr.)
    Molecule:                          Restricted                               
    Fragments:                         Restricted                               

 OTHER ASPECTS
    Relativistic Corrections:          Spin-Orbit (ZORA,MAPA)                  == Not Default ==

    Nuclear Charge Density Model:      Point Charge Nuclei                      
    Core Treatment:                    Frozen Orbital(s)                        

    Hyperfine or Zeeman Interaction:   ---                                      


 Fragment File(s)
 ----------------
 Pa:
         file : /home/shaaban/ams/PhD/thiocyanate/bnN/pao_oh2_N_h2o/gp/SP-SR-SO/pao_oh2_N_h2o.SO.b3lyp.tz2p.sp.results/t21.376DF1AB.Pa
         jobid: 0
         title: Protactinium (TZ2P, all electron)
 O:
         file : /home/shaaban/ams/PhD/thiocyanate/bnN/pao_oh2_N_h2o/gp/SP-SR-SO/pao_oh2_N_h2o.SO.b3lyp.tz2p.sp.results/t21.6BA271D4.O
         jobid: 0
         title: Oxygen (TZ2P)
 H:
         file : /home/shaaban/ams/PhD/thiocyanate/bnN/pao_oh2_N_h2o/gp/SP-SR-SO/pao_oh2_N_h2o.SO.b3lyp.tz2p.sp.results/t21.1FC863BF.H
         jobid: 0
         title: Hydrogen (TZ2P)
 N:
         file : /home/shaaban/ams/PhD/thiocyanate/bnN/pao_oh2_N_h2o/gp/SP-SR-SO/pao_oh2_N_h2o.SO.b3lyp.tz2p.sp.results/t21.1EC1AF8B.N
         jobid: 0
         title: Nitrogen (TZ2P)
 C:
         file : /home/shaaban/ams/PhD/thiocyanate/bnN/pao_oh2_N_h2o/gp/SP-SR-SO/pao_oh2_N_h2o.SO.b3lyp.tz2p.sp.results/t21.24C4801F.C
         jobid: 0
         title: Carbon (TZ2P)
 S:
         file : /home/shaaban/ams/PhD/thiocyanate/bnN/pao_oh2_N_h2o/gp/SP-SR-SO/pao_oh2_N_h2o.SO.b3lyp.tz2p.sp.results/t21.1D38E0E5.S
         jobid: 0
         title: Sulphur (TZ2P)



 ===============
 G E O M E T R Y  ***  3D  Molecule  ***
 ===============
  

 ATOMS
 =====                            X Y Z                    CHARGE
                                (Angstrom)             Nucl     +Core       At.Mass
                       --------------------------    ----------------       -------
    1  Pa              0.2279   -0.0912   -0.4147     91.00     91.00      231.0359
    2  O               1.1302    1.3484   -1.6584      8.00      8.00       15.9949
    3  H               1.5462    2.1558   -1.9655      1.00      1.00        1.0078
    4  O              -0.4519    0.8897    0.9995      8.00      8.00       15.9949
    5  H              -0.1552   -2.7518    1.3157      1.00      1.00        1.0078
    6  O              -0.6418   -1.2477   -1.9566      8.00      8.00       15.9949
    7  H              -0.8115   -1.5623   -2.8478      1.00      1.00        1.0078
    8  O              -0.6809   -1.9498    1.2035      8.00      8.00       15.9949
    9  H              -0.7974   -1.5594    2.0793      1.00      1.00        1.0078
   10  N               2.1642   -1.2759    0.1400      7.00      7.00       14.0031
   11  C               3.1745   -1.8710    0.3495      6.00      6.00       12.0000
   12  S               4.5157   -2.6726    0.6395     16.00     16.00       31.9721


 FRAGMENTS
 =========                                     Atoms in this Fragment     Cart. coord.s (Angstrom)
                                               -------------------------------------------------------
    1  Pa                                                1  Pa           0.2279   -0.0912   -0.4147
    2  O                                                 2  O            1.1302    1.3484   -1.6584
    3  O                                                 4  O           -0.4519    0.8897    0.9995
    4  O                                                 6  O           -0.6418   -1.2477   -1.9566
    5  O                                                 8  O           -0.6809   -1.9498    1.2035
    6  H                                                 3  H            1.5462    2.1558   -1.9655
    7  H                                                 5  H           -0.1552   -2.7518    1.3157
    8  H                                                 7  H           -0.8115   -1.5623   -2.8478
    9  H                                                 9  H           -0.7974   -1.5594    2.0793
   10  N                                                10  N            2.1642   -1.2759    0.1400
   11  C                                                11  C            3.1745   -1.8710    0.3495
   12  S                                                12  S            4.5157   -2.6726    0.6395


 Interatomic Distance Matrix (Angstrom)
 --------------------------------------

   1)     0.000
   2)     2.106   0.000
   3)     3.032   0.959   0.000
   4)     1.851   3.127   3.793   0.000
   5)     3.197   5.226   6.144   3.667   0.000
   6)     2.115   3.157   4.046   3.653   3.634   0.000
   7)     3.027   3.695   4.490   4.576   4.380   0.960   0.000
   8)     2.627   4.727   5.644   2.856   0.965   3.237   4.072   0.000
   9)     3.070   5.113   5.971   2.699   1.555   4.051   4.927   0.966   0.000
  10)     2.337   3.345   4.073   3.503   2.990   3.503   4.227   3.111   3.551   0.000
  11)     3.526   4.310   4.922   4.604   3.577   4.502   5.119   3.950   4.343   1.191
          0.000
  12)     5.115   5.737   6.238   6.124   4.720   5.947   6.463   5.277   5.616   2.780
          1.589   0.000

 Min. Distance =    0.9589
 Max. Distance =    6.4633



 =====================================
 S Y M M E T R Y ,   E L E C T R O N S
 =====================================
  
 Symmetry: NOSYM

 Double Group Irreducible Representations (spinor symmetry)
 -----------------------------------------------------------
 A1/2

 Symmetry is NOT used when fitting density


 Configuration of Valence Electrons
 ==================================
 ( determined in the SCF procedure )

 Total:   156

 Net Charge: 0 (Nuclei minus Electrons)

 Aufbau principle for MO occupations will be applied through SCF cycle no.     150
 Thereafter, the program will assign electrons to MOs that are spatially
 similar to the occupied MOs in a "reference" cycle ("KeepOrbitals").
 The reference cycle is always the PREVIOUS cycle: it will evolve with
 the SCF procedure.
1
 ***************************************************************************************************



                                      ****************************************
                                      *  B U I L D : (Fragments, Functions)  *
                                      ****************************************
  



 =======
 S F O s  ***  (Symmetrized Fragment Orbitals)  ***
 =======
  
 SFOs are linear combinations of (valence) Fragment Orbitals (FOs), such that the SFOs transform as the
 irreducible representations of the (molecular) symmetry group. Each SFO is therefore characterized by
 an irrep of the molecule and by a few (or only one) generating FOs.
 The SFOs constitute a symmetry-adapted basis for the Fock matrix. The MO eigenvector coefficients in
 this basis provide a direct interpretation of the MOs in terms of Frontier Orbital Theory.

 The SFOs are combined with auxiliary Core Functions (CFs) to ensure orthogonalization on the (frozen)
 Core Orbitals (COs). The Core-orthogonalized SFOs (CSFOs) constitute the true Fock basis.

 The FOs, and hence also the (C)SFOs are combinations of the elementary basis functions (BAS). The basis
 functions that participate in the description of the SFOs depend on the irrep. The indices of the
 involved functions are printed below for each irrep.
 (The complete list of primitive basis functions is printed in another section)

 Total nr. of (C)SFOs (summation over all irreps) :   369

 NOTE: a (C)SFO that is defined as a combination of more than one FO is usually NOT normalized.

 NOTE: the (C)SFOs are single group symmetry adapted orbitals.



                                       === A ===
 Nr. of SFOs :  369
 Cartesian basis functions that participate in this irrep (total number =   425) :
      1     2     3     4     5     6     7     8     9    10
     11    12    13    14    15    16    17    20    23    26
     29    32    35    38    41    44    47    50   157    18
     21    24    27    30    33    36    39    42    45    48
     51   158    19    22    25    28    31    34    37    40
     43    46    49    52   159    53    59    65    71    77
     83    89    95   101    54    60    66    72    78    84
     90    96   102    55    61    67    73    79    85    91
     97   103    56    62    68    74    80    86    92    98
    104    57    63    69    75    81    87    93    99   105
     58    64    70    76    82    88    94   100   106   107
    117   127   137   147   108   118   128   138   148   109
    119   129   139   149   110   120   130   140   150   111
    121   131   141   151   112   122   132   142   152   113
    123   133   143   153   114   124   134   144   154   115
    125   135   145   155   116   126   136   146   156   160
    161   162   163   164   165   168   171   166   169   172
    167   170   173   174   175   176   177   178   179   180
    181   182   183   184   185   186   187   188   189   190
    191   192   193   194   195   198   201   196   199   202
    197   200   203   204   205   206   207   208   209   210
    211   212   213   214   215   216   217   218   219   220
    221   222   223   224   225   228   231   226   229   232
    227   230   233   234   235   236   237   238   239   240
    241   242   243   244   245   246   247   248   249   250
    251   252   253   254   255   258   261   256   259   262
    257   260   263   264   265   266   267   268   269   270
    271   272   273   274   275   276   277   278   279   280
    281   282   283   284   285   286   287   288   289   290
    291   292   293   294   295   296   297   298   299   300
    301   302   303   304   305   306   307   308   309   310
    311   312   313   314   315   316   317   318   319   320
    321   322   323   324   325   326   327   328   329   330
    331   332   333   336   339   334   337   340   335   338
    341   342   343   344   345   346   347   348   349   350
    351   352   353   354   355   356   357   358   359   360
    361   362   363   366   369   364   367   370   365   368
    371   372   373   374   375   376   377   378   379   380
    381   382   383   384   385   386   387   388   389   390
    391   398   399   400   392   395   401   404   407   393
    396   402   405   408   394   397   403   406   409   410
    411   412   413   414   415   416   417   418   419   420
    421   422   423   424   425

    SFO  (index         Fragment          Generating    Expansion in Fragment Orbitals
  indx  incl.CFs)   Occup   Orb.Energy   FragmentType  Coeff.   Orbital     on Fragment
 --------------------------------------------------------------------------------------
     1       1      2.000   -4140.144 au  Pa            1.00      1 S               1
                        ( -112659.040 eV)
     2       2      2.000    -772.390 au  Pa            1.00      2 S               1
                        (  -21017.794 eV)
     3       3      2.000    -195.003 au  Pa            1.00      3 S               1
                        (   -5306.298 eV)
     4       4      2.000     -49.664 au  Pa            1.00      4 S               1
                        (   -1351.436 eV)
     5       5      2.000     -11.057 au  Pa            1.00      5 S               1
                        (    -300.888 eV)
     6       6      2.000      -1.766 au  Pa            1.00      6 S               1
                        (     -48.049 eV)
     7       7      2.000      -0.167 au  Pa            1.00      7 S               1
                        (      -4.550 eV)
     8       8       --         0.031 au  Pa            1.00      8 S               1
                        (       0.841 eV)
     9       9       --         0.336 au  Pa            1.00      9 S               1
                        (       9.133 eV)
    10      10       --         1.674 au  Pa            1.00     10 S               1
                        (      45.549 eV)
    11      11       --         8.680 au  Pa            1.00     11 S               1
                        (     236.196 eV)
    12      12       --        46.308 au  Pa            1.00     12 S               1
                        (    1260.118 eV)
    13      13       --      1052.293 au  Pa            1.00     13 S               1
                        (   28634.347 eV)
    14      14       --      5423.866 au  Pa            1.00     14 S               1
                        (  147590.909 eV)
    15      15       --     16326.809 au  Pa            1.00     15 S               1
                        (  444275.077 eV)
    16      16       --     46434.730 au  Pa            1.00     16 S               1
                        ( 1263553.301 eV)
    17      17      2.000    -644.804 au  Pa            1.00      1 P:x             1
                        (  -17546.004 eV)
    18      18      2.000    -159.382 au  Pa            1.00      2 P:x             1
                        (   -4336.995 eV)
    19      19      2.000     -38.001 au  Pa            1.00      3 P:x             1
                        (   -1034.059 eV)
    20      20      2.000      -7.452 au  Pa            1.00      4 P:x             1
                        (    -202.774 eV)
    21      21      2.000      -0.880 au  Pa            1.00      5 P:x             1
                        (     -23.949 eV)
    22      22       --        -0.008 au  Pa            1.00      6 P:x             1
                        (      -0.215 eV)
    23      23       --         0.404 au  Pa            1.00      7 P:x             1
                        (      10.994 eV)
    24      24       --         1.850 au  Pa            1.00      8 P:x             1
                        (      50.342 eV)
    25      25       --         7.570 au  Pa            1.00      9 P:x             1
                        (     205.994 eV)
    26      26       --        35.931 au  Pa            1.00     10 P:x             1
                        (     977.731 eV)
    27      27       --       178.469 au  Pa            1.00     11 P:x             1
                        (    4856.387 eV)
    28      28       --      1509.400 au  Pa            1.00     12 P:x             1
                        (   41072.871 eV)
    29      29       --     10783.504 au  Pa            1.00     13 P:x             1
                        (  293434.081 eV)
    30      30      2.000    -644.804 au  Pa            1.00      1 P:y             1
                        (  -17546.004 eV)
    31      31      2.000    -159.382 au  Pa            1.00      2 P:y             1
                        (   -4336.995 eV)
    32      32      2.000     -38.001 au  Pa            1.00      3 P:y             1
                        (   -1034.059 eV)
    33      33      2.000      -7.452 au  Pa            1.00      4 P:y             1
                        (    -202.774 eV)
    34      34      2.000      -0.880 au  Pa            1.00      5 P:y             1
                        (     -23.949 eV)
    35      35       --        -0.008 au  Pa            1.00      6 P:y             1
                        (      -0.215 eV)
    36      36       --         0.404 au  Pa            1.00      7 P:y             1
                        (      10.994 eV)
    37      37       --         1.850 au  Pa            1.00      8 P:y             1
                        (      50.342 eV)
    38      38       --         7.570 au  Pa            1.00      9 P:y             1
                        (     205.994 eV)
    39      39       --        35.931 au  Pa            1.00     10 P:y             1
                        (     977.731 eV)
    40      40       --       178.469 au  Pa            1.00     11 P:y             1
                        (    4856.387 eV)
    41      41       --      1509.400 au  Pa            1.00     12 P:y             1
                        (   41072.871 eV)
    42      42       --     10783.504 au  Pa            1.00     13 P:y             1
                        (  293434.081 eV)
    43      43      2.000    -644.804 au  Pa            1.00      1 P:z             1
                        (  -17546.004 eV)
    44      44      2.000    -159.382 au  Pa            1.00      2 P:z             1
                        (   -4336.995 eV)
    45      45      2.000     -38.001 au  Pa            1.00      3 P:z             1
                        (   -1034.059 eV)
    46      46      2.000      -7.452 au  Pa            1.00      4 P:z             1
                        (    -202.774 eV)
    47      47      2.000      -0.880 au  Pa            1.00      5 P:z             1
                        (     -23.949 eV)
    48      48       --        -0.008 au  Pa            1.00      6 P:z             1
                        (      -0.215 eV)
    49      49       --         0.404 au  Pa            1.00      7 P:z             1
                        (      10.994 eV)
    50      50       --         1.850 au  Pa            1.00      8 P:z             1
                        (      50.342 eV)
    51      51       --         7.570 au  Pa            1.00      9 P:z             1
                        (     205.994 eV)
    52      52       --        35.931 au  Pa            1.00     10 P:z             1
                        (     977.731 eV)
    53      53       --       178.469 au  Pa            1.00     11 P:z             1
                        (    4856.387 eV)
    54      54       --      1509.400 au  Pa            1.00     12 P:z             1
                        (   41072.871 eV)
    55      55       --     10783.504 au  Pa            1.00     13 P:z             1
                        (  293434.081 eV)
    56      56      2.000    -127.750 au  Pa            1.00      1 D:z2            1
                        (   -3476.261 eV)
    57      57      2.000     -25.974 au  Pa            1.00      2 D:z2            1
                        (    -706.779 eV)
    58      58      2.000      -3.548 au  Pa            1.00      3 D:z2            1
                        (     -96.540 eV)
    59      59      0.200      -0.066 au  Pa            1.00      4 D:z2            1
                        (      -1.808 eV)
    60      60       --         0.084 au  Pa            1.00      5 D:z2            1
                        (       2.281 eV)
    61      61       --         0.569 au  Pa            1.00      6 D:z2            1
                        (      15.477 eV)
    62      62       --         3.594 au  Pa            1.00      7 D:z2            1
                        (      97.805 eV)
    63      63       --        24.986 au  Pa            1.00      8 D:z2            1
                        (     679.903 eV)
    64      64       --       204.782 au  Pa            1.00      9 D:z2            1
                        (    5572.393 eV)
    65      65      2.000    -127.750 au  Pa            1.00      1 D:x2-y2         1
                        (   -3476.261 eV)
    66      66      2.000     -25.974 au  Pa            1.00      2 D:x2-y2         1
                        (    -706.779 eV)
    67      67      2.000      -3.548 au  Pa            1.00      3 D:x2-y2         1
                        (     -96.540 eV)
    68      68      0.200      -0.066 au  Pa            1.00      4 D:x2-y2         1
                        (      -1.808 eV)
    69      69       --         0.084 au  Pa            1.00      5 D:x2-y2         1
                        (       2.281 eV)
    70      70       --         0.569 au  Pa            1.00      6 D:x2-y2         1
                        (      15.477 eV)
    71      71       --         3.594 au  Pa            1.00      7 D:x2-y2         1
                        (      97.805 eV)
    72      72       --        24.986 au  Pa            1.00      8 D:x2-y2         1
                        (     679.903 eV)
    73      73       --       204.782 au  Pa            1.00      9 D:x2-y2         1
                        (    5572.393 eV)
    74      74      2.000    -127.750 au  Pa            1.00      1 D:xy            1
                        (   -3476.261 eV)
    75      75      2.000     -25.974 au  Pa            1.00      2 D:xy            1
                        (    -706.779 eV)
    76      76      2.000      -3.548 au  Pa            1.00      3 D:xy            1
                        (     -96.540 eV)
    77      77      0.200      -0.066 au  Pa            1.00      4 D:xy            1
                        (      -1.808 eV)
    78      78       --         0.084 au  Pa            1.00      5 D:xy            1
                        (       2.281 eV)
    79      79       --         0.569 au  Pa            1.00      6 D:xy            1
                        (      15.477 eV)
    80      80       --         3.594 au  Pa            1.00      7 D:xy            1
                        (      97.805 eV)
    81      81       --        24.986 au  Pa            1.00      8 D:xy            1
                        (     679.903 eV)
    82      82       --       204.782 au  Pa            1.00      9 D:xy            1
                        (    5572.393 eV)
    83      83      2.000    -127.750 au  Pa            1.00      1 D:xz            1
                        (   -3476.261 eV)
    84      84      2.000     -25.974 au  Pa            1.00      2 D:xz            1
                        (    -706.779 eV)
    85      85      2.000      -3.548 au  Pa            1.00      3 D:xz            1
                        (     -96.540 eV)
    86      86      0.200      -0.066 au  Pa            1.00      4 D:xz            1
                        (      -1.808 eV)
    87      87       --         0.084 au  Pa            1.00      5 D:xz            1
                        (       2.281 eV)
    88      88       --         0.569 au  Pa            1.00      6 D:xz            1
                        (      15.477 eV)
    89      89       --         3.594 au  Pa            1.00      7 D:xz            1
                        (      97.805 eV)
    90      90       --        24.986 au  Pa            1.00      8 D:xz            1
                        (     679.903 eV)
    91      91       --       204.782 au  Pa            1.00      9 D:xz            1
                        (    5572.393 eV)
    92      92      2.000    -127.750 au  Pa            1.00      1 D:yz            1
                        (   -3476.261 eV)
    93      93      2.000     -25.974 au  Pa            1.00      2 D:yz            1
                        (    -706.779 eV)
    94      94      2.000      -3.548 au  Pa            1.00      3 D:yz            1
                        (     -96.540 eV)
    95      95      0.200      -0.066 au  Pa            1.00      4 D:yz            1
                        (      -1.808 eV)
    96      96       --         0.084 au  Pa            1.00      5 D:yz            1
                        (       2.281 eV)
    97      97       --         0.569 au  Pa            1.00      6 D:yz            1
                        (      15.477 eV)
    98      98       --         3.594 au  Pa            1.00      7 D:yz            1
                        (      97.805 eV)
    99      99       --        24.986 au  Pa            1.00      8 D:yz            1
                        (     679.903 eV)
   100     100       --       204.782 au  Pa            1.00      9 D:yz            1
                        (    5572.393 eV)
   101     101      2.000     -13.085 au  Pa            1.00      1 F:z3            1
                        (    -356.050 eV)
   102     102      0.286      -0.042 au  Pa            1.00      2 F:z3            1
                        (      -1.139 eV)
   103     103       --         0.419 au  Pa            1.00      3 F:z3            1
                        (      11.400 eV)
   104     104       --         2.553 au  Pa            1.00      4 F:z3            1
                        (      69.470 eV)
   105     105       --        21.603 au  Pa            1.00      5 F:z3            1
                        (     587.835 eV)
   106     106      2.000     -13.085 au  Pa            1.00      1 F:z             1
                        (    -356.050 eV)
   107     107      0.286      -0.042 au  Pa            1.00      2 F:z             1
                        (      -1.139 eV)
   108     108       --         0.419 au  Pa            1.00      3 F:z             1
                        (      11.400 eV)
   109     109       --         2.553 au  Pa            1.00      4 F:z             1
                        (      69.470 eV)
   110     110       --        21.603 au  Pa            1.00      5 F:z             1
                        (     587.835 eV)
   111     111      2.000     -13.085 au  Pa            1.00      1 F:xyz           1
                        (    -356.050 eV)
   112     112      0.286      -0.042 au  Pa            1.00      2 F:xyz           1
                        (      -1.139 eV)
   113     113       --         0.419 au  Pa            1.00      3 F:xyz           1
                        (      11.400 eV)
   114     114       --         2.553 au  Pa            1.00      4 F:xyz           1
                        (      69.470 eV)
   115     115       --        21.603 au  Pa            1.00      5 F:xyz           1
                        (     587.835 eV)
   116     116      2.000     -13.085 au  Pa            1.00      1 F:z2x           1
                        (    -356.050 eV)
   117     117      0.286      -0.042 au  Pa            1.00      2 F:z2x           1
                        (      -1.139 eV)
   118     118       --         0.419 au  Pa            1.00      3 F:z2x           1
                        (      11.400 eV)
   119     119       --         2.553 au  Pa            1.00      4 F:z2x           1
                        (      69.470 eV)
   120     120       --        21.603 au  Pa            1.00      5 F:z2x           1
                        (     587.835 eV)
   121     121      2.000     -13.085 au  Pa            1.00      1 F:z2y           1
                        (    -356.050 eV)
   122     122      0.286      -0.042 au  Pa            1.00      2 F:z2y           1
                        (      -1.139 eV)
   123     123       --         0.419 au  Pa            1.00      3 F:z2y           1
                        (      11.400 eV)
   124     124       --         2.553 au  Pa            1.00      4 F:z2y           1
                        (      69.470 eV)
   125     125       --        21.603 au  Pa            1.00      5 F:z2y           1
                        (     587.835 eV)
   126     126      2.000     -13.085 au  Pa            1.00      1 F:x             1
                        (    -356.050 eV)
   127     127      0.286      -0.042 au  Pa            1.00      2 F:x             1
                        (      -1.139 eV)
   128     128       --         0.419 au  Pa            1.00      3 F:x             1
                        (      11.400 eV)
   129     129       --         2.553 au  Pa            1.00      4 F:x             1
                        (      69.470 eV)
   130     130       --        21.603 au  Pa            1.00      5 F:x             1
                        (     587.835 eV)
   131     131      2.000     -13.085 au  Pa            1.00      1 F:y             1
                        (    -356.050 eV)
   132     132      0.286      -0.042 au  Pa            1.00      2 F:y             1
                        (      -1.139 eV)
   133     133       --         0.419 au  Pa            1.00      3 F:y             1
                        (      11.400 eV)
   134     134       --         2.553 au  Pa            1.00      4 F:y             1
                        (      69.470 eV)
   135     135       --        21.603 au  Pa            1.00      5 F:y             1
                        (     587.835 eV)
   136     136      2.000     -19.315 au  O             1.00      1 S               2
                        (    -525.599 eV)
   137     137      2.000      -0.972 au  O             1.00      2 S               2
                        (     -26.457 eV)
   138     138       --         0.838 au  O             1.00      3 S               2
                        (      22.795 eV)
   139     139       --        13.598 au  O             1.00      4 S               2
                        (     370.019 eV)
   140     140       --       122.184 au  O             1.00      5 S               2
                        (    3324.790 eV)
   141     141      1.333      -0.361 au  O             1.00      1 P:x             2
                        (      -9.818 eV)
   142     142       --         0.380 au  O             1.00      2 P:x             2
                        (      10.337 eV)
   143     143       --         3.931 au  O             1.00      3 P:x             2
                        (     106.958 eV)
   144     144      1.333      -0.361 au  O             1.00      1 P:y             2
                        (      -9.818 eV)
   145     145       --         0.380 au  O             1.00      2 P:y             2
                        (      10.337 eV)
   146     146       --         3.931 au  O             1.00      3 P:y             2
                        (     106.958 eV)
   147     147      1.333      -0.361 au  O             1.00      1 P:z             2
                        (      -9.818 eV)
   148     148       --         0.380 au  O             1.00      2 P:z             2
                        (      10.337 eV)
   149     149       --         3.931 au  O             1.00      3 P:z             2
                        (     106.958 eV)
   150     150       --         1.117 au  O             1.00      1 D:z2            2
                        (      30.399 eV)
   151     151       --         1.117 au  O             1.00      1 D:x2-y2         2
                        (      30.399 eV)
   152     152       --         1.117 au  O             1.00      1 D:xy            2
                        (      30.399 eV)
   153     153       --         1.117 au  O             1.00      1 D:xz            2
                        (      30.399 eV)
   154     154       --         1.117 au  O             1.00      1 D:yz            2
                        (      30.399 eV)
   155     155       --         3.432 au  O             1.00      1 F:z3            2
                        (      93.382 eV)
   156     156       --         3.432 au  O             1.00      1 F:z             2
                        (      93.382 eV)
   157     157       --         3.432 au  O             1.00      1 F:xyz           2
                        (      93.382 eV)
   158     158       --         3.432 au  O             1.00      1 F:z2x           2
                        (      93.382 eV)
   159     159       --         3.432 au  O             1.00      1 F:z2y           2
                        (      93.382 eV)
   160     160       --         3.432 au  O             1.00      1 F:x             2
                        (      93.382 eV)
   161     161       --         3.432 au  O             1.00      1 F:y             2
                        (      93.382 eV)
   162     162      2.000     -19.315 au  O             1.00      1 S               3
                        (    -525.599 eV)
   163     163      2.000      -0.972 au  O             1.00      2 S               3
                        (     -26.457 eV)
   164     164       --         0.838 au  O             1.00      3 S               3
                        (      22.795 eV)
   165     165       --        13.598 au  O             1.00      4 S               3
                        (     370.019 eV)
   166     166       --       122.184 au  O             1.00      5 S               3
                        (    3324.790 eV)
   167     167      1.333      -0.361 au  O             1.00      1 P:x             3
                        (      -9.818 eV)
   168     168       --         0.380 au  O             1.00      2 P:x             3
                        (      10.337 eV)
   169     169       --         3.931 au  O             1.00      3 P:x             3
                        (     106.958 eV)
   170     170      1.333      -0.361 au  O             1.00      1 P:y             3
                        (      -9.818 eV)
   171     171       --         0.380 au  O             1.00      2 P:y             3
                        (      10.337 eV)
   172     172       --         3.931 au  O             1.00      3 P:y             3
                        (     106.958 eV)
   173     173      1.333      -0.361 au  O             1.00      1 P:z             3
                        (      -9.818 eV)
   174     174       --         0.380 au  O             1.00      2 P:z             3
                        (      10.337 eV)
   175     175       --         3.931 au  O             1.00      3 P:z             3
                        (     106.958 eV)
   176     176       --         1.117 au  O             1.00      1 D:z2            3
                        (      30.399 eV)
   177     177       --         1.117 au  O             1.00      1 D:x2-y2         3
                        (      30.399 eV)
   178     178       --         1.117 au  O             1.00      1 D:xy            3
                        (      30.399 eV)
   179     179       --         1.117 au  O             1.00      1 D:xz            3
                        (      30.399 eV)
   180     180       --         1.117 au  O             1.00      1 D:yz            3
                        (      30.399 eV)
   181     181       --         3.432 au  O             1.00      1 F:z3            3
                        (      93.382 eV)
   182     182       --         3.432 au  O             1.00      1 F:z             3
                        (      93.382 eV)
   183     183       --         3.432 au  O             1.00      1 F:xyz           3
                        (      93.382 eV)
   184     184       --         3.432 au  O             1.00      1 F:z2x           3
                        (      93.382 eV)
   185     185       --         3.432 au  O             1.00      1 F:z2y           3
                        (      93.382 eV)
   186     186       --         3.432 au  O             1.00      1 F:x             3
                        (      93.382 eV)
   187     187       --         3.432 au  O             1.00      1 F:y             3
                        (      93.382 eV)
   188     188      2.000     -19.315 au  O             1.00      1 S               4
                        (    -525.599 eV)
   189     189      2.000      -0.972 au  O             1.00      2 S               4
                        (     -26.457 eV)
   190     190       --         0.838 au  O             1.00      3 S               4
                        (      22.795 eV)
   191     191       --        13.598 au  O             1.00      4 S               4
                        (     370.019 eV)
   192     192       --       122.184 au  O             1.00      5 S               4
                        (    3324.790 eV)
   193     193      1.333      -0.361 au  O             1.00      1 P:x             4
                        (      -9.818 eV)
   194     194       --         0.380 au  O             1.00      2 P:x             4
                        (      10.337 eV)
   195     195       --         3.931 au  O             1.00      3 P:x             4
                        (     106.958 eV)
   196     196      1.333      -0.361 au  O             1.00      1 P:y             4
                        (      -9.818 eV)
   197     197       --         0.380 au  O             1.00      2 P:y             4
                        (      10.337 eV)
   198     198       --         3.931 au  O             1.00      3 P:y             4
                        (     106.958 eV)
   199     199      1.333      -0.361 au  O             1.00      1 P:z             4
                        (      -9.818 eV)
   200     200       --         0.380 au  O             1.00      2 P:z             4
                        (      10.337 eV)
   201     201       --         3.931 au  O             1.00      3 P:z             4
                        (     106.958 eV)
   202     202       --         1.117 au  O             1.00      1 D:z2            4
                        (      30.399 eV)
   203     203       --         1.117 au  O             1.00      1 D:x2-y2         4
                        (      30.399 eV)
   204     204       --         1.117 au  O             1.00      1 D:xy            4
                        (      30.399 eV)
   205     205       --         1.117 au  O             1.00      1 D:xz            4
                        (      30.399 eV)
   206     206       --         1.117 au  O             1.00      1 D:yz            4
                        (      30.399 eV)
   207     207       --         3.432 au  O             1.00      1 F:z3            4
                        (      93.382 eV)
   208     208       --         3.432 au  O             1.00      1 F:z             4
                        (      93.382 eV)
   209     209       --         3.432 au  O             1.00      1 F:xyz           4
                        (      93.382 eV)
   210     210       --         3.432 au  O             1.00      1 F:z2x           4
                        (      93.382 eV)
   211     211       --         3.432 au  O             1.00      1 F:z2y           4
                        (      93.382 eV)
   212     212       --         3.432 au  O             1.00      1 F:x             4
                        (      93.382 eV)
   213     213       --         3.432 au  O             1.00      1 F:y             4
                        (      93.382 eV)
   214     214      2.000     -19.315 au  O             1.00      1 S               5
                        (    -525.599 eV)
   215     215      2.000      -0.972 au  O             1.00      2 S               5
                        (     -26.457 eV)
   216     216       --         0.838 au  O             1.00      3 S               5
                        (      22.795 eV)
   217     217       --        13.598 au  O             1.00      4 S               5
                        (     370.019 eV)
   218     218       --       122.184 au  O             1.00      5 S               5
                        (    3324.790 eV)
   219     219      1.333      -0.361 au  O             1.00      1 P:x             5
                        (      -9.818 eV)
   220     220       --         0.380 au  O             1.00      2 P:x             5
                        (      10.337 eV)
   221     221       --         3.931 au  O             1.00      3 P:x             5
                        (     106.958 eV)
   222     222      1.333      -0.361 au  O             1.00      1 P:y             5
                        (      -9.818 eV)
   223     223       --         0.380 au  O             1.00      2 P:y             5
                        (      10.337 eV)
   224     224       --         3.931 au  O             1.00      3 P:y             5
                        (     106.958 eV)
   225     225      1.333      -0.361 au  O             1.00      1 P:z             5
                        (      -9.818 eV)
   226     226       --         0.380 au  O             1.00      2 P:z             5
                        (      10.337 eV)
   227     227       --         3.931 au  O             1.00      3 P:z             5
                        (     106.958 eV)
   228     228       --         1.117 au  O             1.00      1 D:z2            5
                        (      30.399 eV)
   229     229       --         1.117 au  O             1.00      1 D:x2-y2         5
                        (      30.399 eV)
   230     230       --         1.117 au  O             1.00      1 D:xy            5
                        (      30.399 eV)
   231     231       --         1.117 au  O             1.00      1 D:xz            5
                        (      30.399 eV)
   232     232       --         1.117 au  O             1.00      1 D:yz            5
                        (      30.399 eV)
   233     233       --         3.432 au  O             1.00      1 F:z3            5
                        (      93.382 eV)
   234     234       --         3.432 au  O             1.00      1 F:z             5
                        (      93.382 eV)
   235     235       --         3.432 au  O             1.00      1 F:xyz           5
                        (      93.382 eV)
   236     236       --         3.432 au  O             1.00      1 F:z2x           5
                        (      93.382 eV)
   237     237       --         3.432 au  O             1.00      1 F:z2y           5
                        (      93.382 eV)
   238     238       --         3.432 au  O             1.00      1 F:x             5
                        (      93.382 eV)
   239     239       --         3.432 au  O             1.00      1 F:y             5
                        (      93.382 eV)
   240     240      1.000      -0.244 au  H             1.00      1 S               6
                        (      -6.641 eV)
   241     241       --         0.104 au  H             1.00      2 S               6
                        (       2.836 eV)
   242     242       --         1.564 au  H             1.00      3 S               6
                        (      42.560 eV)
   243     243       --         0.436 au  H             1.00      1 P:x             6
                        (      11.864 eV)
   244     244       --         0.436 au  H             1.00      1 P:y             6
                        (      11.864 eV)
   245     245       --         0.436 au  H             1.00      1 P:z             6
                        (      11.864 eV)
   246     246       --         2.617 au  H             1.00      1 D:z2            6
                        (      71.221 eV)
   247     247       --         2.617 au  H             1.00      1 D:x2-y2         6
                        (      71.221 eV)
   248     248       --         2.617 au  H             1.00      1 D:xy            6
                        (      71.221 eV)
   249     249       --         2.617 au  H             1.00      1 D:xz            6
                        (      71.221 eV)
   250     250       --         2.617 au  H             1.00      1 D:yz            6
                        (      71.221 eV)
   251     251      1.000      -0.244 au  H             1.00      1 S               7
                        (      -6.641 eV)
   252     252       --         0.104 au  H             1.00      2 S               7
                        (       2.836 eV)
   253     253       --         1.564 au  H             1.00      3 S               7
                        (      42.560 eV)
   254     254       --         0.436 au  H             1.00      1 P:x             7
                        (      11.864 eV)
   255     255       --         0.436 au  H             1.00      1 P:y             7
                        (      11.864 eV)
   256     256       --         0.436 au  H             1.00      1 P:z             7
                        (      11.864 eV)
   257     257       --         2.617 au  H             1.00      1 D:z2            7
                        (      71.221 eV)
   258     258       --         2.617 au  H             1.00      1 D:x2-y2         7
                        (      71.221 eV)
   259     259       --         2.617 au  H             1.00      1 D:xy            7
                        (      71.221 eV)
   260     260       --         2.617 au  H             1.00      1 D:xz            7
                        (      71.221 eV)
   261     261       --         2.617 au  H             1.00      1 D:yz            7
                        (      71.221 eV)
   262     262      1.000      -0.244 au  H             1.00      1 S               8
                        (      -6.641 eV)
   263     263       --         0.104 au  H             1.00      2 S               8
                        (       2.836 eV)
   264     264       --         1.564 au  H             1.00      3 S               8
                        (      42.560 eV)
   265     265       --         0.436 au  H             1.00      1 P:x             8
                        (      11.864 eV)
   266     266       --         0.436 au  H             1.00      1 P:y             8
                        (      11.864 eV)
   267     267       --         0.436 au  H             1.00      1 P:z             8
                        (      11.864 eV)
   268     268       --         2.617 au  H             1.00      1 D:z2            8
                        (      71.221 eV)
   269     269       --         2.617 au  H             1.00      1 D:x2-y2         8
                        (      71.221 eV)
   270     270       --         2.617 au  H             1.00      1 D:xy            8
                        (      71.221 eV)
   271     271       --         2.617 au  H             1.00      1 D:xz            8
                        (      71.221 eV)
   272     272       --         2.617 au  H             1.00      1 D:yz            8
                        (      71.221 eV)
   273     273      1.000      -0.244 au  H             1.00      1 S               9
                        (      -6.641 eV)
   274     274       --         0.104 au  H             1.00      2 S               9
                        (       2.836 eV)
   275     275       --         1.564 au  H             1.00      3 S               9
                        (      42.560 eV)
   276     276       --         0.436 au  H             1.00      1 P:x             9
                        (      11.864 eV)
   277     277       --         0.436 au  H             1.00      1 P:y             9
                        (      11.864 eV)
   278     278       --         0.436 au  H             1.00      1 P:z             9
                        (      11.864 eV)
   279     279       --         2.617 au  H             1.00      1 D:z2            9
                        (      71.221 eV)
   280     280       --         2.617 au  H             1.00      1 D:x2-y2         9
                        (      71.221 eV)
   281     281       --         2.617 au  H             1.00      1 D:xy            9
                        (      71.221 eV)
   282     282       --         2.617 au  H             1.00      1 D:xz            9
                        (      71.221 eV)
   283     283       --         2.617 au  H             1.00      1 D:yz            9
                        (      71.221 eV)
   284     284      2.000     -14.492 au  N             1.00      1 S              10
                        (    -394.357 eV)
   285     285      2.000      -0.758 au  N             1.00      2 S              10
                        (     -20.628 eV)
   286     286       --         0.552 au  N             1.00      3 S              10
                        (      15.032 eV)
   287     287       --         6.986 au  N             1.00      4 S              10
                        (     190.090 eV)
   288     288       --        63.878 au  N             1.00      5 S              10
                        (    1738.204 eV)
   289     289      1.000      -0.269 au  N             1.00      1 P:x            10
                        (      -7.330 eV)
   290     290       --         0.311 au  N             1.00      2 P:x            10
                        (       8.459 eV)
   291     291       --         3.372 au  N             1.00      3 P:x            10
                        (      91.752 eV)
   292     292      1.000      -0.269 au  N             1.00      1 P:y            10
                        (      -7.330 eV)
   293     293       --         0.311 au  N             1.00      2 P:y            10
                        (       8.459 eV)
   294     294       --         3.372 au  N             1.00      3 P:y            10
                        (      91.752 eV)
   295     295      1.000      -0.269 au  N             1.00      1 P:z            10
                        (      -7.330 eV)
   296     296       --         0.311 au  N             1.00      2 P:z            10
                        (       8.459 eV)
   297     297       --         3.372 au  N             1.00      3 P:z            10
                        (      91.752 eV)
   298     298       --         1.300 au  N             1.00      1 D:z2           10
                        (      35.363 eV)
   299     299       --         1.300 au  N             1.00      1 D:x2-y2        10
                        (      35.363 eV)
   300     300       --         1.300 au  N             1.00      1 D:xy           10
                        (      35.363 eV)
   301     301       --         1.300 au  N             1.00      1 D:xz           10
                        (      35.363 eV)
   302     302       --         1.300 au  N             1.00      1 D:yz           10
                        (      35.363 eV)
   303     303       --         4.087 au  N             1.00      1 F:z3           10
                        (     111.225 eV)
   304     304       --         4.087 au  N             1.00      1 F:z            10
                        (     111.225 eV)
   305     305       --         4.087 au  N             1.00      1 F:xyz          10
                        (     111.225 eV)
   306     306       --         4.087 au  N             1.00      1 F:z2x          10
                        (     111.225 eV)
   307     307       --         4.087 au  N             1.00      1 F:z2y          10
                        (     111.225 eV)
   308     308       --         4.087 au  N             1.00      1 F:x            10
                        (     111.225 eV)
   309     309       --         4.087 au  N             1.00      1 F:y            10
                        (     111.225 eV)
   310     310      2.000     -10.350 au  C             1.00      1 S              11
                        (    -281.645 eV)
   311     311      2.000      -0.564 au  C             1.00      2 S              11
                        (     -15.357 eV)
   312     312       --         0.402 au  C             1.00      3 S              11
                        (      10.927 eV)
   313     313       --         5.502 au  C             1.00      4 S              11
                        (     149.716 eV)
   314     314       --        50.237 au  C             1.00      5 S              11
                        (    1367.023 eV)
   315     315      0.667      -0.188 au  C             1.00      1 P:x            11
                        (      -5.107 eV)
   316     316       --         0.191 au  C             1.00      2 P:x            11
                        (       5.205 eV)
   317     317       --         2.088 au  C             1.00      3 P:x            11
                        (      56.818 eV)
   318     318      0.667      -0.188 au  C             1.00      1 P:y            11
                        (      -5.107 eV)
   319     319       --         0.191 au  C             1.00      2 P:y            11
                        (       5.205 eV)
   320     320       --         2.088 au  C             1.00      3 P:y            11
                        (      56.818 eV)
   321     321      0.667      -0.188 au  C             1.00      1 P:z            11
                        (      -5.107 eV)
   322     322       --         0.191 au  C             1.00      2 P:z            11
                        (       5.205 eV)
   323     323       --         2.088 au  C             1.00      3 P:z            11
                        (      56.818 eV)
   324     324       --         1.292 au  C             1.00      1 D:z2           11
                        (      35.151 eV)
   325     325       --         1.292 au  C             1.00      1 D:x2-y2        11
                        (      35.151 eV)
   326     326       --         1.292 au  C             1.00      1 D:xy           11
                        (      35.151 eV)
   327     327       --         1.292 au  C             1.00      1 D:xz           11
                        (      35.151 eV)
   328     328       --         1.292 au  C             1.00      1 D:yz           11
                        (      35.151 eV)
   329     329       --         4.084 au  C             1.00      1 F:z3           11
                        (     111.127 eV)
   330     330       --         4.084 au  C             1.00      1 F:z            11
                        (     111.127 eV)
   331     331       --         4.084 au  C             1.00      1 F:xyz          11
                        (     111.127 eV)
   332     332       --         4.084 au  C             1.00      1 F:z2x          11
                        (     111.127 eV)
   333     333       --         4.084 au  C             1.00      1 F:z2y          11
                        (     111.127 eV)
   334     334       --         4.084 au  C             1.00      1 F:x            11
                        (     111.127 eV)
   335     335       --         4.084 au  C             1.00      1 F:y            11
                        (     111.127 eV)
   336     336      2.000     -89.200 au  S             1.00      1 S              12
                        (   -2427.259 eV)
   337     337      2.000      -8.042 au  S             1.00      2 S              12
                        (    -218.844 eV)
   338     338      2.000      -0.695 au  S             1.00      3 S              12
                        (     -18.914 eV)
   339     339       --         0.217 au  S             1.00      4 S              12
                        (       5.908 eV)
   340     340       --         2.090 au  S             1.00      5 S              12
                        (      56.875 eV)
   341     341       --        12.721 au  S             1.00      6 S              12
                        (     346.165 eV)
   342     342       --       192.681 au  S             1.00      7 S              12
                        (    5243.115 eV)
   343     343      2.000      -5.951 au  S             1.00      1 P:x            12
                        (    -161.937 eV)
   344     344      1.333      -0.271 au  S             1.00      2 P:x            12
                        (      -7.386 eV)
   345     345       --         0.147 au  S             1.00      3 P:x            12
                        (       3.991 eV)
   346     346       --         1.258 au  S             1.00      4 P:x            12
                        (      34.241 eV)
   347     347       --        13.143 au  S             1.00      5 P:x            12
                        (     357.653 eV)
   348     348      2.000      -5.951 au  S             1.00      1 P:y            12
                        (    -161.937 eV)
   349     349      1.333      -0.271 au  S             1.00      2 P:y            12
                        (      -7.386 eV)
   350     350       --         0.147 au  S             1.00      3 P:y            12
                        (       3.991 eV)
   351     351       --         1.258 au  S             1.00      4 P:y            12
                        (      34.241 eV)
   352     352       --        13.143 au  S             1.00      5 P:y            12
                        (     357.653 eV)
   353     353      2.000      -5.951 au  S             1.00      1 P:z            12
                        (    -161.937 eV)
   354     354      1.333      -0.271 au  S             1.00      2 P:z            12
                        (      -7.386 eV)
   355     355       --         0.147 au  S             1.00      3 P:z            12
                        (       3.991 eV)
   356     356       --         1.258 au  S             1.00      4 P:z            12
                        (      34.241 eV)
   357     357       --        13.143 au  S             1.00      5 P:z            12
                        (     357.653 eV)
   358     358       --         0.481 au  S             1.00      1 D:z2           12
                        (      13.094 eV)
   359     359       --         0.481 au  S             1.00      1 D:x2-y2        12
                        (      13.094 eV)
   360     360       --         0.481 au  S             1.00      1 D:xy           12
                        (      13.094 eV)
   361     361       --         0.481 au  S             1.00      1 D:xz           12
                        (      13.094 eV)
   362     362       --         0.481 au  S             1.00      1 D:yz           12
                        (      13.094 eV)
   363     363       --         1.329 au  S             1.00      1 F:z3           12
                        (      36.153 eV)
   364     364       --         1.329 au  S             1.00      1 F:z            12
                        (      36.153 eV)
   365     365       --         1.329 au  S             1.00      1 F:xyz          12
                        (      36.153 eV)
   366     366       --         1.329 au  S             1.00      1 F:z2x          12
                        (      36.153 eV)
   367     367       --         1.329 au  S             1.00      1 F:z2y          12
                        (      36.153 eV)
   368     368       --         1.329 au  S             1.00      1 F:x            12
                        (      36.153 eV)
   369     369       --         1.329 au  S             1.00      1 F:y            12
                        (      36.153 eV)



 ================================
 (Slater-type)  F U N C T I O N S  ***  (Basis and Fit)  ***
 ================================
  

 Atom Type    1  (Pa)
 ==============

 Valence Basis Sets:  43
 -----------------------
   1 S 1028.000000
   1 S  240.000000
   1 S  107.000000
   2 S  131.500000
   2 S   46.500000
   3 S   59.100000
   3 S   25.450000
   4 S   15.550000
   4 S   11.050000
   5 S   10.200000
   5 S    7.100000
   6 S    4.950000
   6 S    3.250000
   7 S    2.350000
   7 S    1.550000
   7 S    1.020000
   2 P  240.000000
   2 P   84.000000
   2 P   43.600000
   3 P   24.750000
   3 P   17.850000
   4 P   17.650000
   4 P   12.100000
   5 P    8.500000
   5 P    5.900000
   6 P    4.400000
   6 P    3.000000
   6 P    2.100000
   3 D   33.750000
   3 D   21.750000
   4 D   15.300000
   4 D   10.450000
   5 D    7.150000
   5 D    4.600000
   6 D    3.000000
   6 D    1.700000
   6 D    0.980000
   4 F   17.100000
   4 F    9.350000
   5 F    5.850000
   5 F    3.150000
   5 F    1.550000
   7 P    1.550000

 Charge Fitting Sets (for the computation of the Coulomb Potential):  87
 -----------------------------------------------------------------------
   1 S 2056.000000
   1 S 1549.519000
   1 S 1167.806000
   1 S  880.126000
   1 S  663.313000
   1 S  499.911000
   1 S  376.761000
   1 S  283.949000
   1 S  214.000000
   1 S  127.280000
   2 S  140.220000
   2 S   93.850000
   3 S   92.230000
   3 S   65.710000
   4 S   61.900000
   4 S   45.910000
   5 S   42.420000
   5 S   32.370000
   6 S   29.610000
   6 S   23.090000
   7 S   21.000000
   7 S   16.670000
   8 S   15.120000
   8 S   12.170000
   9 S   11.020000
   9 S    8.970000
  10 S    8.120000
  10 S    6.680000
  11 S    6.050000
  11 S    5.020000
  12 S    4.550000
  12 S    3.800000
  12 S    3.180000
  13 S    2.880000
  13 S    2.420000
  13 S    2.040000
   2 P  150.600000
   3 P  125.870000
   4 P  103.260000
   5 P   84.350000
   6 P   68.960000
   7 P   56.560000
   7 P   40.600000
   8 P   33.430000
   8 P   24.490000
   9 P   20.250000
   9 P   15.090000
  10 P   12.530000
  10 P    9.470000
  11 P    7.900000
  11 P    6.040000
  12 P    5.060000
  12 P    3.910000
  13 P    3.290000
  13 P    2.570000
   3 D  128.750000
   4 D   91.090000
   5 D   65.210000
   6 D   47.270000
   7 D   34.690000
   8 D   25.740000
   9 D   19.290000
   9 D   13.060000
  10 D    9.880000
  10 D    6.820000
  11 D    5.210000
  11 D    3.650000
  12 D    2.810000
  12 D    2.000000
   4 F  116.350000
   5 F   72.360000
   6 F   46.140000
   7 F   30.070000
   8 F   19.970000
   9 F   13.480000
  10 F    9.240000
  10 F    5.790000
  11 F    4.020000
  11 F    2.570000
   5 G   52.950000
   6 G   31.380000
   7 G   19.110000
   8 G   11.920000
   9 G    7.580000
  10 G    4.910000
  11 G    3.230000
  11 G    1.960000

 Atom Type    2  (O)
 ==============

 Valence Basis Sets:  10
 -----------------------
   1 S    9.800000
   1 S    6.800000
   2 S    7.580000
   2 S    2.880000
   2 S    1.720000
   2 P    4.080000
   2 P    2.080000
   2 P    1.120000
   3 D    2.000000
   4 F    3.000000

 Charge Fitting Sets (for the computation of the Coulomb Potential):  22
 -----------------------------------------------------------------------
   1 S   19.600000
   2 S   22.600000
   2 S   15.680000
   2 S   10.890000
   2 S    7.560000
   3 S    7.690000
   3 S    5.650000
   3 S    4.150000
   3 S    3.050000
   3 S    2.240000
   2 P   12.860000
   2 P    7.680000
   3 P    6.780000
   3 P    4.390000
   3 P    2.840000
   3 D    8.800000
   3 D    5.580000
   3 D    3.530000
   3 D    2.240000
   4 F    6.200000
   4 F    3.700000
   5 G    4.500000

 Atom Type    3  (H)
 ==============

 Valence Basis Sets:   5
 -----------------------
   1 S    0.690000
   1 S    0.920000
   1 S    1.580000
   2 P    1.250000
   3 D    2.500000

 Charge Fitting Sets (for the computation of the Coulomb Potential):  11
 -----------------------------------------------------------------------
   1 S    3.160000
   1 S    2.090000
   1 S    1.380000
   2 S    1.500000
   2 P    4.000000
   2 P    2.650000
   2 P    1.750000
   3 D    4.000000
   3 D    2.500000
   4 F    3.000000
   5 G    4.000000

 Atom Type    4  (N)
 ==============

 Valence Basis Sets:  10
 -----------------------
   1 S    8.740000
   1 S    5.900000
   2 S    5.150000
   2 S    2.500000
   2 S    1.500000
   2 P    3.680000
   2 P    1.880000
   2 P    1.000000
   3 D    2.200000
   4 F    3.300000

 Charge Fitting Sets (for the computation of the Coulomb Potential):  22
 -----------------------------------------------------------------------
   1 S   17.480000
   2 S   20.150000
   2 S   13.990000
   2 S    9.710000
   2 S    6.740000
   3 S    6.860000
   3 S    5.040000
   3 S    3.700000
   3 S    2.720000
   3 S    2.000000
   2 P   11.320000
   2 P    6.730000
   3 P    5.920000
   3 P    3.820000
   3 P    2.460000
   3 D    8.100000
   3 D    5.080000
   3 D    3.190000
   3 D    2.000000
   4 F    5.800000
   4 F    3.600000
   5 G    4.500000

 Atom Type    5  (C)
 ==============

 Valence Basis Sets:  10
 -----------------------
   1 S    7.680000
   1 S    5.000000
   2 S    1.280000
   2 S    2.100000
   2 S    4.600000
   2 P    0.820000
   2 P    1.480000
   2 P    2.940000
   3 D    2.200000
   4 F    3.300000

 Charge Fitting Sets (for the computation of the Coulomb Potential):  22
 -----------------------------------------------------------------------
   1 S   15.360000
   2 S   17.530000
   2 S   12.070000
   2 S    8.310000
   2 S    5.730000
   3 S    5.780000
   3 S    4.220000
   3 S    3.080000
   3 S    2.250000
   3 S    1.640000
   2 P    9.880000
   2 P    5.800000
   3 P    5.050000
   3 P    3.230000
   3 P    2.060000
   3 D    7.200000
   3 D    4.400000
   3 D    2.690000
   3 D    1.640000
   4 F    5.400000
   4 F    3.550000
   5 G    4.500000

 Atom Type    6  (S)
 ==============

 Valence Basis Sets:  14
 -----------------------
   1 S   19.400000
   1 S   14.350000
   2 S    5.900000
   2 S    4.250000
   2 P    8.050000
   2 P    4.550000
   3 S    3.450000
   3 S    2.250000
   3 S    1.500000
   3 P    2.650000
   3 P    1.600000
   3 P    1.000000
   3 D    2.100000
   4 F    2.100000

 Charge Fitting Sets (for the computation of the Coulomb Potential):  30
 -----------------------------------------------------------------------
   1 S   38.800000
   1 S   23.350000
   2 S   26.020000
   2 S   17.570000
   3 S   17.420000
   3 S   12.500000
   3 S    8.980000
   4 S    8.520000
   4 S    6.360000
   4 S    4.750000
   5 S    4.420000
   5 S    3.390000
   5 S    2.600000
   5 S    2.000000
   2 P   27.450000
   3 P   20.250000
   4 P   14.920000
   4 P    8.780000
   5 P    6.520000
   5 P    4.040000
   5 P    2.500000
   3 D   20.900000
   4 D   14.560000
   4 D    8.130000
   5 D    5.740000
   5 D    3.390000
   5 D    2.000000
   4 F    5.000000
   4 F    3.000000
   5 G    3.620000


 BAS: List of all Elementary Cartesian Basis Functions
 =====================================================

 The numbering in the list below (to the right of the function characteristics) is referred
 to in print-outs of MO eigenvectors and Mulliken populations in the BAS representation
 (as contrasted to the SFO representation).

 Notes:
 1. The functions are characterized by a polynomial prefactor (powers of x,y,z and r) and
    an exponential decay factor alpha.
 2. Since the basis sets are specific for an atom TYPE, the individual functions occur on
    all atoms of that type.
 3. The word 'Core' in the left margin signals that it is a Core Function (CF) : not a
    degree of freedom in the valence set, but only used to ensure orthogonalization of
    the other valence basis functions on the frozen Core Orbitals.


 (power of) X  Y  Z  R     Alpha  on Atom
            ==========     =====     ==========

 Pa                                   1
                                  ---------------------------------------------------------------------------
            0  0  0  0  1028.000      1
            0  0  0  0   240.000      2
            0  0  0  0   107.000      3
            0  0  0  1   131.500      4
            0  0  0  1    46.500      5
            0  0  0  2    59.100      6
            0  0  0  2    25.450      7
            0  0  0  3    15.550      8
            0  0  0  3    11.050      9
            0  0  0  4    10.200     10
            0  0  0  4     7.100     11
            0  0  0  5     4.950     12
            0  0  0  5     3.250     13
            0  0  0  6     2.350     14
            0  0  0  6     1.550     15
            0  0  0  6     1.020     16
            1  0  0  0   240.000     17
            0  1  0  0   240.000     18
            0  0  1  0   240.000     19
            1  0  0  0    84.000     20
            0  1  0  0    84.000     21
            0  0  1  0    84.000     22
            1  0  0  0    43.600     23
            0  1  0  0    43.600     24
            0  0  1  0    43.600     25
            1  0  0  1    24.750     26
            0  1  0  1    24.750     27
            0  0  1  1    24.750     28
            1  0  0  1    17.850     29
            0  1  0  1    17.850     30
            0  0  1  1    17.850     31
            1  0  0  2    17.650     32
            0  1  0  2    17.650     33
            0  0  1  2    17.650     34
            1  0  0  2    12.100     35
            0  1  0  2    12.100     36
            0  0  1  2    12.100     37
            1  0  0  3     8.500     38
            0  1  0  3     8.500     39
            0  0  1  3     8.500     40
            1  0  0  3     5.900     41
            0  1  0  3     5.900     42
            0  0  1  3     5.900     43
            1  0  0  4     4.400     44
            0  1  0  4     4.400     45
            0  0  1  4     4.400     46
            1  0  0  4     3.000     47
            0  1  0  4     3.000     48
            0  0  1  4     3.000     49
            1  0  0  4     2.100     50
            0  1  0  4     2.100     51
            0  0  1  4     2.100     52
            2  0  0  0    33.750     53
            1  1  0  0    33.750     54
            1  0  1  0    33.750     55
            0  2  0  0    33.750     56
            0  1  1  0    33.750     57
            0  0  2  0    33.750     58
            2  0  0  0    21.750     59
            1  1  0  0    21.750     60
            1  0  1  0    21.750     61
            0  2  0  0    21.750     62
            0  1  1  0    21.750     63
            0  0  2  0    21.750     64
            2  0  0  1    15.300     65
            1  1  0  1    15.300     66
            1  0  1  1    15.300     67
            0  2  0  1    15.300     68
            0  1  1  1    15.300     69
            0  0  2  1    15.300     70
            2  0  0  1    10.450     71
            1  1  0  1    10.450     72
            1  0  1  1    10.450     73
            0  2  0  1    10.450     74
            0  1  1  1    10.450     75
            0  0  2  1    10.450     76
            2  0  0  2     7.150     77
            1  1  0  2     7.150     78
            1  0  1  2     7.150     79
            0  2  0  2     7.150     80
            0  1  1  2     7.150     81
            0  0  2  2     7.150     82
            2  0  0  2     4.600     83
            1  1  0  2     4.600     84
            1  0  1  2     4.600     85
            0  2  0  2     4.600     86
            0  1  1  2     4.600     87
            0  0  2  2     4.600     88
            2  0  0  3     3.000     89
            1  1  0  3     3.000     90
            1  0  1  3     3.000     91
            0  2  0  3     3.000     92
            0  1  1  3     3.000     93
            0  0  2  3     3.000     94
            2  0  0  3     1.700     95
            1  1  0  3     1.700     96
            1  0  1  3     1.700     97
            0  2  0  3     1.700     98
            0  1  1  3     1.700     99
            0  0  2  3     1.700    100
            2  0  0  3     0.980    101
            1  1  0  3     0.980    102
            1  0  1  3     0.980    103
            0  2  0  3     0.980    104
            0  1  1  3     0.980    105
            0  0  2  3     0.980    106
            3  0  0  0    17.100    107
            2  1  0  0    17.100    108
            2  0  1  0    17.100    109
            1  2  0  0    17.100    110
            1  1  1  0    17.100    111
            1  0  2  0    17.100    112
            0  3  0  0    17.100    113
            0  2  1  0    17.100    114
            0  1  2  0    17.100    115
            0  0  3  0    17.100    116
            3  0  0  0     9.350    117
            2  1  0  0     9.350    118
            2  0  1  0     9.350    119
            1  2  0  0     9.350    120
            1  1  1  0     9.350    121
            1  0  2  0     9.350    122
            0  3  0  0     9.350    123
            0  2  1  0     9.350    124
            0  1  2  0     9.350    125
            0  0  3  0     9.350    126
            3  0  0  1     5.850    127
            2  1  0  1     5.850    128
            2  0  1  1     5.850    129
            1  2  0  1     5.850    130
            1  1  1  1     5.850    131
            1  0  2  1     5.850    132
            0  3  0  1     5.850    133
            0  2  1  1     5.850    134
            0  1  2  1     5.850    135
            0  0  3  1     5.850    136
            3  0  0  1     3.150    137
            2  1  0  1     3.150    138
            2  0  1  1     3.150    139
            1  2  0  1     3.150    140
            1  1  1  1     3.150    141
            1  0  2  1     3.150    142
            0  3  0  1     3.150    143
            0  2  1  1     3.150    144
            0  1  2  1     3.150    145
            0  0  3  1     3.150    146
            3  0  0  1     1.550    147
            2  1  0  1     1.550    148
            2  0  1  1     1.550    149
            1  2  0  1     1.550    150
            1  1  1  1     1.550    151
            1  0  2  1     1.550    152
            0  3  0  1     1.550    153
            0  2  1  1     1.550    154
            0  1  2  1     1.550    155
            0  0  3  1     1.550    156
            1  0  0  5     1.550    157
            0  1  0  5     1.550    158
            0  0  1  5     1.550    159

 O                                    2    3    4    5
                                  ---------------------------------------------------------------------------
            0  0  0  0     9.800    160  190  220  250
            0  0  0  0     6.800    161  191  221  251
            0  0  0  1     7.580    162  192  222  252
            0  0  0  1     2.880    163  193  223  253
            0  0  0  1     1.720    164  194  224  254
            1  0  0  0     4.080    165  195  225  255
            0  1  0  0     4.080    166  196  226  256
            0  0  1  0     4.080    167  197  227  257
            1  0  0  0     2.080    168  198  228  258
            0  1  0  0     2.080    169  199  229  259
            0  0  1  0     2.080    170  200  230  260
            1  0  0  0     1.120    171  201  231  261
            0  1  0  0     1.120    172  202  232  262
            0  0  1  0     1.120    173  203  233  263
            2  0  0  0     2.000    174  204  234  264
            1  1  0  0     2.000    175  205  235  265
            1  0  1  0     2.000    176  206  236  266
            0  2  0  0     2.000    177  207  237  267
            0  1  1  0     2.000    178  208  238  268
            0  0  2  0     2.000    179  209  239  269
            3  0  0  0     3.000    180  210  240  270
            2  1  0  0     3.000    181  211  241  271
            2  0  1  0     3.000    182  212  242  272
            1  2  0  0     3.000    183  213  243  273
            1  1  1  0     3.000    184  214  244  274
            1  0  2  0     3.000    185  215  245  275
            0  3  0  0     3.000    186  216  246  276
[...]
     446       74.6022         0.000       
     445       74.6022         0.000       
     444       74.0094         0.000       
     443       74.0094         0.000       
     442       73.5199         0.000       
     441       73.5199         0.000       
     440       73.2454         0.000       
     439       73.2454         0.000       
     438       72.5456         0.000       
     437       72.5456         0.000       
     436       72.3782         0.000       
     435       72.3782         0.000       
     434       71.3466         0.000       
     433       71.3466         0.000       
     432       70.8528         0.000       
     431       70.8528         0.000       
     430       70.6561         0.000       
     429       70.6561         0.000       
     428       69.4555         0.000       
     427       69.4555         0.000       
     426       69.0429         0.000       
     425       69.0429         0.000       
     424       68.7883         0.000       
     423       68.7883         0.000       
     422       64.5106         0.000       
     421       64.5106         0.000       
     420       63.1601         0.000       
     419       63.1601         0.000       
     418       62.4876         0.000       
     417       62.4876         0.000       
     416       61.0773         0.000       
     415       61.0773         0.000       
     414       58.8832         0.000       
     413       58.8832         0.000       
     412       57.6851         0.000       
     411       57.6851         0.000       
     410       55.0503         0.000       
     409       55.0503         0.000       
     408       53.7932         0.000       
     407       53.7932         0.000       
     406       53.5403         0.000       
     405       53.5403         0.000       
     404       52.1032         0.000       
     403       52.1032         0.000       
     402       51.6325         0.000       
     401       51.6325         0.000       
     400       51.3923         0.000       
     399       51.3923         0.000       
     398       51.3040         0.000       
     397       51.3040         0.000       
     396       50.8476         0.000       
     395       50.8476         0.000       
     394       49.7449         0.000       
     393       49.7449         0.000       
     392       49.5717         0.000       
     391       49.5717         0.000       
     390       48.9310         0.000       
     389       48.9310         0.000       
     388       48.2230         0.000       
     387       48.2230         0.000       
     386       47.7389         0.000       
     385       47.7389         0.000       
     384       47.2756         0.000       
     383       47.2756         0.000       
     382       46.7074         0.000       
     381       46.7074         0.000       
     380       46.0294         0.000       
     379       46.0294         0.000       
     378       45.1266         0.000       
     377       45.1266         0.000       
     376       44.5268         0.000       
     375       44.5268         0.000       
     374       43.3743         0.000       
     373       43.3743         0.000       
     372       42.3443         0.000       
     371       42.3443         0.000       
     370       40.7482         0.000       
     369       40.7482         0.000       
     368       39.7057         0.000       
     367       39.7057         0.000       
     366       39.2675         0.000       
     365       39.2675         0.000       
     364       39.1660         0.000       
     363       39.1660         0.000       
     362       38.6882         0.000       
     361       38.6882         0.000       
     360       37.7719         0.000       
     359       37.7719         0.000       
     358       37.7673         0.000       
     357       37.7673         0.000       
     356       37.3826         0.000       
     355       37.3826         0.000       
     354       37.0172         0.000       
     353       37.0172         0.000       
     352       36.7915         0.000       
     351       36.7915         0.000       
     350       36.7503         0.000       
     349       36.7503         0.000       
     348       36.6845         0.000       
     347       36.6845         0.000       
     346       36.5870         0.000       
     345       36.5870         0.000       
     344       35.7826         0.000       
     343       35.7826         0.000       
     342       35.4740         0.000       
     341       35.4740         0.000       
     340       34.8817         0.000       
     339       34.8817         0.000       
     338       34.6128         0.000       
     337       34.6128         0.000       
     336       33.9414         0.000       
     335       33.9414         0.000       
     334       33.7311         0.000       
     333       33.7311         0.000       
     332       33.2659         0.000       
     331       33.2659         0.000       
     330       32.8068         0.000       
     329       32.8068         0.000       
     328       31.4360         0.000       
     327       31.4360         0.000       
     326       30.9529         0.000       
     325       30.9529         0.000       
     324       30.6764         0.000       
     323       30.6764         0.000       
     322       30.2551         0.000       
     321       30.2551         0.000       
     320       29.4983         0.000       
     319       29.4983         0.000       
     318       29.2752         0.000       
     317       29.2752         0.000       
     316       28.6544         0.000       
     315       28.6544         0.000       
     314       27.6203         0.000       
     313       27.6203         0.000       
     312       27.0198         0.000       
     311       27.0198         0.000       
     310       26.7215         0.000       
     309       26.7215         0.000       
     308       25.3203         0.000       
     307       25.3203         0.000       
     306       24.7535         0.000       
     305       24.7535         0.000       
     304       24.4101         0.000       
     303       24.4101         0.000       
     302       23.8680         0.000       
     301       23.8680         0.000       
     300       22.6458         0.000       
     299       22.6458         0.000       
     298       21.4937         0.000       
     297       21.4937         0.000       
     296       20.9731         0.000       
     295       20.9731         0.000       
     294       20.6406         0.000       
     293       20.6406         0.000       
     292       20.0989         0.000       
     291       20.0989         0.000       
     290       19.6568         0.000       
     289       19.6568         0.000       
     288       19.2682         0.000       
     287       19.2682         0.000       
     286       19.0179         0.000       
     285       19.0179         0.000       
     284       17.6480         0.000       
     283       17.6480         0.000       
     282       17.0397         0.000       
     281       17.0397         0.000       
     280       16.4734         0.000       
     279       16.4734         0.000       
     278       16.3792         0.000       
     277       16.3792         0.000       
     276       16.2403         0.000       
     275       16.2403         0.000       
     274       15.9367         0.000       
     273       15.9367         0.000       
     272       15.6080         0.000       
     271       15.6080         0.000       
     270       15.5022         0.000       
     269       15.5022         0.000       
     268       15.3485         0.000       
     267       15.3485         0.000       
     266       15.1467         0.000       
     265       15.1467         0.000       
     264       14.9566         0.000       
     263       14.9566         0.000       
     262       14.7018         0.000       
     261       14.7018         0.000       
     260       14.6561         0.000       
     259       14.6561         0.000       
     258       14.6122         0.000       
     257       14.6122         0.000       
     256       14.5092         0.000       
     255       14.5092         0.000       
     254       14.3651         0.000       
     253       14.3651         0.000       
     252       13.8378         0.000       
     251       13.8378         0.000       
     250       13.6414         0.000       
     249       13.6414         0.000       
     248       13.3315         0.000       
     247       13.3315         0.000       
     246       12.7956         0.000       
     245       12.7956         0.000       
     244       12.6184         0.000       
     243       12.6184         0.000       
     242       11.9195         0.000       
     241       11.9195         0.000       
     240       11.5185         0.000       
     239       11.5185         0.000       
     238       11.0542         0.000       
     237       11.0542         0.000       
     236       10.4438         0.000       
     235       10.4438         0.000       
     234        9.2917         0.000       
     233        9.2917         0.000       
     232        9.0347         0.000       
     231        9.0347         0.000       
     230        8.8934         0.000       
     229        8.8934         0.000       
     228        8.2539         0.000       
     227        8.2539         0.000       
     226        7.7097         0.000       
     225        7.7097         0.000       
     224        7.1452         0.000       
     223        7.1452         0.000       
     222        6.9098         0.000       
     221        6.9098         0.000       
     220        5.9661         0.000       
     219        5.9661         0.000       
     218        5.5127         0.000       
     217        5.5127         0.000       
     216        4.9964         0.000       
     215        4.9964         0.000       
     214        4.9694         0.000       
     213        4.9694         0.000       
     212        4.7289         0.000       
     211        4.7289         0.000       
     210        4.4141         0.000       
     209        4.4141         0.000       
     208        4.0305         0.000       
     207        4.0305         0.000       
     206        3.7095         0.000       
     205        3.7095         0.000       
     204        3.4870         0.000       
     203        3.4870         0.000       
     202        3.1615         0.000       
     201        3.1615         0.000       
     200        2.7851         0.000       
     199        2.7851         0.000       
     198        2.3942         0.000       
     197        2.3942         0.000       
     196        2.2381         0.000       
     195        2.2381         0.000       
     194        2.1888         0.000       
     193        2.1888         0.000       
     192        2.0460         0.000       
     191        2.0460         0.000       
     190        1.9971         0.000       
     189        1.9971         0.000       
     188        1.5599         0.000       
     187        1.5599         0.000       
     186        1.4719         0.000       
     185        1.4719         0.000       
     184        1.0603         0.000       
     183        1.0603         0.000       
     182        0.8929         0.000       
     181        0.8929         0.000       
     180        0.3980         0.000       
     179        0.3980         0.000       
     178        0.2731         0.000       
     177        0.2731         0.000       
     176       -0.0252         0.000       
     175       -0.0252         0.000       
     174       -0.4397         0.000       
     173       -0.4397         0.000       
     172       -0.8245         0.000       
     171       -0.8245         0.000       
     170       -1.0034         0.000       
     169       -1.0034         0.000       
     168       -1.4325         0.000       
     167       -1.4325         0.000       
     166       -1.6758         0.000       
     165       -1.6758         0.000       
     164       -1.8250         0.000       
     163       -1.8250         0.000       
     162       -2.0401         0.000       
     161       -2.0401         0.000       
     160       -2.2931         0.000       
     159       -2.2931         0.000       
     158       -2.4318         0.000       
     157       -2.4318         0.000 < LUMO
     156       -6.5080         1.000 < HOMO
     155       -6.5080         1.000       
     154       -6.5959         1.000       
     153       -6.5959         1.000       
     152       -8.0751         1.000       
     151       -8.0751         1.000       
     150       -8.7328         1.000       
     149       -8.7328         1.000       
     148       -9.0328         1.000       
     147       -9.0328         1.000       
     146       -9.1841         1.000       
     145       -9.1841         1.000       
     144       -9.4566         1.000       
     143       -9.4566         1.000       
     142       -9.7242         1.000       
     141       -9.7242         1.000       
     140      -10.0049         1.000       
     139      -10.0049         1.000       
     138      -10.4153         1.000       
     137      -10.4153         1.000       
     136      -10.4903         1.000       
     135      -10.4903         1.000       
     134      -11.0223         1.000       
     133      -11.0223         1.000       
     132      -11.2775         1.000       
     131      -11.2775         1.000       
     130      -12.6275         1.000       
     129      -12.6275         1.000       
     128      -12.8517         1.000       
     127      -12.8517         1.000       
     126      -13.4545         1.000       
     125      -13.4545         1.000       
     124      -13.7432         1.000       
     123      -13.7432         1.000       
     122      -16.6254         1.000       
     121      -16.6254         1.000       
     120      -20.1786         1.000       
     119      -20.1786         1.000       
     118      -20.5564         1.000       
     117      -20.5564         1.000       
     116      -22.6523         1.000       
     115      -22.6523         1.000       
     114      -24.8431         1.000       
     113      -24.8431         1.000       
     112      -25.7243         1.000       
     111      -25.7243         1.000       
     110      -26.9469         1.000       
     109      -26.9469         1.000       
     108      -27.7848         1.000       
     107      -27.7848         1.000       
     106      -29.7419         1.000       
     105      -29.7419         1.000       
     104      -32.1653         1.000       
     103      -32.1653         1.000       
     102      -49.5603         1.000       
     101      -49.5603         1.000       
     100      -95.9755         1.000       
      99      -95.9755         1.000       
      98      -96.0341         1.000       
      97      -96.0341         1.000       
      96      -96.1140         1.000       
      95      -96.1140         1.000       
      94     -103.3887         1.000       
      93     -103.3887         1.000       
      92     -103.4977         1.000       
      91     -103.4977         1.000       
      90     -159.0727         1.000       
      89     -159.0727         1.000       
      88     -159.1763         1.000       
      87     -159.1763         1.000       
      86     -160.3684         1.000       
      85     -160.3684         1.000       
      84     -192.8870         1.000       
      83     -192.8870         1.000       
      82     -193.0532         1.000       
      81     -193.0532         1.000       
      80     -216.4583         1.000       
      79     -216.4583         1.000       
      78     -241.2653         1.000       
      77     -241.2653         1.000       
      76     -279.0833         1.000       
      75     -279.0833         1.000       
      74     -303.3825         1.000       
      73     -303.3825         1.000       
      72     -353.7883         1.000       
      71     -353.7883         1.000       
      70     -353.8467         1.000       
      69     -353.8467         1.000       
      68     -353.9554         1.000       
      67     -353.9554         1.000       
      66     -354.0807         1.000       
      65     -354.0807         1.000       
      64     -363.5492         1.000       
      63     -363.5492         1.000       
      62     -363.6531         1.000       
      61     -363.6531         1.000       
      60     -363.8119         1.000       
      59     -363.8119         1.000       
      58     -389.5839         1.000       
      57     -389.5839         1.000       
      56     -520.2600         1.000       
      55     -520.2600         1.000       
      54     -520.7866         1.000       
      53     -520.7866         1.000       
      52     -521.0414         1.000       
      51     -521.0414         1.000       
      50     -523.0605         1.000       
      49     -523.0605         1.000       
      48     -693.0656         1.000       
      47     -693.0656         1.000       
      46     -693.1788         1.000       
      45     -693.1788         1.000       
      44     -693.3375         1.000       
      43     -693.3375         1.000       
      42     -732.4010         1.000       
      41     -732.4010         1.000       
      40     -732.6062         1.000       
      39     -732.6062         1.000       
      38     -982.3538         1.000       
      37     -982.3538         1.000       
      36     -982.5653         1.000       
      35     -982.5653         1.000       
      34    -1189.2297         1.000       
      33    -1189.2297         1.000       
      32    -1352.3856         1.000       
      31    -1352.3856         1.000       
      30    -2424.6992         1.000       
      29    -2424.6992         1.000       
      28    -3409.3222         1.000       
      27    -3409.3222         1.000       
      26    -3409.3720         1.000       
      25    -3409.3720         1.000       
      24    -3409.4481         1.000       
      23    -3409.4481         1.000       
      22    -3576.1263         1.000       
      21    -3576.1263         1.000       
      20    -3576.2159         1.000       
      19    -3576.2159         1.000       
      18    -4130.0118         1.000       
      17    -4130.0118         1.000       
      16    -4130.1350         1.000       
      15    -4130.1350         1.000       
      14    -4925.8570         1.000       
      13    -4925.8570         1.000       
      12    -5302.6558         1.000       
      11    -5302.6558         1.000       
      10   -16648.3412         1.000       
       9   -16648.3412         1.000       
       8   -16648.3607         1.000       
       7   -16648.3607         1.000       
       6   -20126.0231         1.000       
       5   -20126.0231         1.000       
       4   -20999.6098         1.000       
       3   -20999.6098         1.000       
       2  -112594.9326         1.000       
       1  -112594.9326         1.000       

AMS application finished. Exiting.
NORMAL TERMINATION
     Total cpu time:    1077.27
  Total system time:    2445.28
 Total elapsed time:    3727.99
 WARNING: total system time is high compared to CPU time. 
 Make sure the machine is not oversubscribed and has enough memory, SCM_TMPDIR p
 oints to a fast file system, and the network is fast enough.
