
 Working directory              : /state/partition2/shaaban/999393.phlam-s-sakura/molpro.yp4nVZLnFd/
 Global scratch directory       : /state/partition2/shaaban/999393.phlam-s-sakura/molpro.yp4nVZLnFd/
 Wavefunction directory         : /home/shaaban/wfu/
 Main file repository           : /state/partition2/shaaban/999393.phlam-s-sakura/molpro.yp4nVZLnFd/

 id        : lill

 Nodes      nprocs
 u-0-0.local    8
 GA implementation: MPI file
 GA implementation (serial work in mppx): MPI file

 Using customized tuning parameters: mindgm=1; mindgv=20; mindgc=4; mindgr=1; noblas=0; minvec=7
 default implementation of scratch files=sf  


 Variables initialized (1040), CPU time= 0.01 sec
 ***,Pa(OH)4(F)- MP2 and CCSD(T)
 memory,2500, m;
 file, 1, pa_oh4_f.ccsd-tx.int, new;
 file, 2, pa_oh4_f.ccsd-tx.wfu, new;
 
 gprint, basis;
 gprint, orbital=10;
 
 nosym;
 
 geomtyp=xyz;
 
 geometry={
 Including file /home/shaaban/molpro/PhD/fluoride/gp/pa_oh4_f/pa_oh4_f-B22-gp.xyz
 }
 
 charge=0;
 
                                                                                 ! Select X2C SR Hamiltonian
 SET,DKHO=101
 
                                                                                 ! Calculation with VTZ basis set
 basis={
 Pa=cc-pVTZ-X2C;
 O=aug-cc-pVTZ-X2C;
 H=aug-cc-pVTZ-X2C;
 F=aug-cc-pVTZ-X2C;
 }
 
 
                                                                                 ! Hartree-Fock calculation
 {hf;}
 
                                                                                 ! MP2 and CCSD(T) calculation
 {ccsd(t);}
 
                                                                  ! Save HF energy and CCSD(T) correlation energy for VTZ basis set
 energy_hf(1) = energr(1);
 corr_mp2(1) = EMP2-energr(1);
 corr_ccsdt(1) = ENERGT(1)-energr(1);
 
 Commands initialized (846), CPU time= 0.01 sec, 717 directives.
 Default parameters read. Elapsed time= 2.07 sec

 Checking input...
 Passed
1


                                         ***  PROGRAM SYSTEM MOLPRO  ***
                                       Copyright, TTI GmbH Stuttgart, 2015
                                    Version 2023.2 linked Fri Sep 22 09:27:09 2023


 **********************************************************************************************************************************
 LABEL *   Pa(OH)4(F)- MP2 and CCSD(T)                                                                                                                                   
  64 bit mpp version                                                                     DATE: 11-Jan-24          TIME: 17:04:14  
 **********************************************************************************************************************************

 SHA1:             3c61bfe44d37c8635c785372c339f5cbdd4e4b59
 **********************************************************************************************************************************

 Memory per process:      2500 MW
 Total memory per node:  20000 MW

 GA preallocation disabled
 GA check disabled

 Variable memory set to 2500.0 MW



 Permanent file  1  pa_oh4_f.ccsd-tx.int             assigned.  Implementation=df  
 Permanent file  2  pa_oh4_f.ccsd-tx.wfu             assigned.  Implementation=df  



 **********************************************************************************************************************************
 DATASETS  * FILE   NREC   LENGTH (MB)   RECORD NAMES
              1       1        0.06       500   
                                          VAR  

              2       1        0.06       500   
                                          VAR  

 PROGRAMS   *        TOTAL      FILE
 CPU TIMES  *         0.28      0.01
 REAL TIME  *         2.65 SEC
 DISK USED  *         0.16 MB (local),        1.32 MB (total)
 **********************************************************************************************************************************


 SETTING GEOMTYP        =    XYZ
 ZSYMEL=NOSYM


 Geometry recognized as XYZ

 SETTING CHARGE         =      0.0000000D+00                                  
 SETTING DKHO           =       101.00000000                                  
 SETTING BASIS          =    PA=CC-PVTZ-X2C,O=AUG-CC-PVTZ-X2C,H=AUG-CC-PVTZ-X2C,F=AUG-CC-PVTZ-X2C


 Recomputing integrals since basis changed


 Using spherical harmonics

 Library entry PA     S cc-pVTZ-X2C          selected for orbital group  1
 Library entry PA     P cc-pVTZ-X2C          selected for orbital group  1
 Library entry PA     D cc-pVTZ-X2C          selected for orbital group  1
 Library entry PA     F cc-pVTZ-X2C          selected for orbital group  1
 Library entry PA     G cc-pVTZ-X2C          selected for orbital group  1
 Library entry PA     H cc-pVTZ-X2C          selected for orbital group  1
 Library entry F      S aug-cc-pVTZ-X2C      selected for orbital group  2
 Library entry F      P aug-cc-pVTZ-X2C      selected for orbital group  2
 Library entry F      D aug-cc-pVTZ-X2C      selected for orbital group  2
 Library entry F      F aug-cc-pVTZ-X2C      selected for orbital group  2
 Library entry H      S aug-cc-pVTZ-X2C      selected for orbital group  3
 Library entry H      P aug-cc-pVTZ-X2C      selected for orbital group  3
 Library entry H      D aug-cc-pVTZ-X2C      selected for orbital group  3
 Library entry O      S aug-cc-pVTZ-X2C      selected for orbital group  4
 Library entry O      P aug-cc-pVTZ-X2C      selected for orbital group  4
 Library entry O      D aug-cc-pVTZ-X2C      selected for orbital group  4
 Library entry O      F aug-cc-pVTZ-X2C      selected for orbital group  4


 PROGRAM * SEWARD (Integral evaluation for generally contracted gaussian basis sets)     Author: Roland Lindh, 1990

 Geometry written to block  1 of record 700


 Point group  C1  



 ATOMIC COORDINATES

 NR  ATOM    CHARGE       X              Y              Z

   1  PA     91.00    0.653873047   -0.140146402    0.067600932
   2  F       9.00    2.109368804    2.667105728   -2.287352782
   3  H       1.00   -3.712644657    3.501455827    0.887606133
   4  O       8.00   -2.492238505    2.166217217    0.802709163
   5  H       1.00    4.884440572   -0.439389363    3.719150693
   6  O       8.00    0.352244762   -2.567494424   -3.055034813
   7  H       1.00    0.297367077   -3.542536106   -4.579265689
   8  O       8.00   -0.701798984   -2.924942995    2.527865382
   9  H       1.00   -1.845690867   -4.073158867    3.340172078
  10  O       8.00    3.972906041    0.144698078    2.263670946

 Bond lengths in Bohr (Angstrom)

 1-2  3.942707117  1-3  5.744575892  1-4  3.969598865  1-5  5.596522455  1-6  3.966591992
     ( 2.086390756)     ( 3.039898648)     ( 2.100621256)     ( 2.961552144)     ( 2.099030087)

  1- 7  5.770331152   1- 8  3.955482257   1- 9  5.694394500   1-10  3.989967405   3- 4  1.810928165
       ( 3.053527745)       ( 2.093151069)       ( 3.013343799)       ( 2.111399823)       ( 0.958301915)

  5-10  1.813966547   6- 7  1.810247941   8- 9  1.812934223
       ( 0.959909758)       ( 0.957941957)       ( 0.959363476)

 Bond angles

  1- 3- 4    9.47976552   1- 4- 3  166.21121548   1- 5-10   22.98595914   1- 6- 7  174.13562037

  1- 7- 6    4.02752305   1- 8- 9  160.19282468   1- 9- 8   13.61393363   1-10- 5  146.78775283

  2-1-3   85.09555666   2-1-4   89.39870849   2-1-5   98.55310908   2-1-6   89.63192789

  2- 1- 7   87.80114263   2- 1- 8  177.87764247   2- 1- 9  175.62186803   2- 1-10   88.32864817

  3-1-4    4.30901900   3-1-5  121.02077113   3-1-6  116.26341950   3-1-7  116.21701642

  3- 1- 8   95.56653637   3- 1- 9   91.26917613   3- 1-10  120.56215617   4- 1- 5  120.62061050

  4-1-6  116.17166609   4-1-7  116.27920332   4-1-8   91.27396954   4-1-9   86.96035809

  4- 1-10  121.05605041   5- 1- 6  122.57523029   5- 1- 7  122.72517691   5- 1- 8   79.37438919

  5- 1- 9   85.40637642   5- 1-10   10.22628804   6- 1- 7    1.83685658   6- 1- 8   91.87710029

  6- 1- 9   89.79280342   6- 1-10  122.69959087   7- 1- 8   93.70336670   7- 1- 9   91.62963166

  7- 1-10  122.46097027   8- 1- 9    6.19324169   8- 1-10   89.60007664   9- 1-10   95.63169794


 BASIS DATA

   Nr Sym  Nuc  Type         Exponents   Contraction coefficients

    1.1 A     1  1s    57606659.000000     0.002669    0.000875   -0.001011   -0.000162    0.000138   -0.000062
                                           0.000029    0.000051   -0.000067   -0.000085    0.000000
    2.1 A              15333099.000000     0.001763    0.000577   -0.000669   -0.000107    0.000091   -0.000041
                                           0.000019    0.000034   -0.000045   -0.000056    0.000000
    3.1 A               5244434.800000     0.005688    0.001860   -0.002159   -0.000346    0.000294   -0.000133
                                           0.000061    0.000110   -0.000144   -0.000182    0.000000
    4.1 A               1993947.300000     0.005833    0.001897   -0.002226   -0.000357    0.000304   -0.000137
                                           0.000063    0.000114   -0.000148   -0.000188    0.000000
    5.1 A                831464.670000     0.012471    0.004046   -0.004768   -0.000766    0.000651   -0.000294
                                           0.000135    0.000243   -0.000318   -0.000402    0.000000
    6.1 A                367473.800000     0.015337    0.004923   -0.005922   -0.000954    0.000810   -0.000366
                                           0.000168    0.000303   -0.000396   -0.000502    0.000000
    7.1 A                170948.980000     0.027802    0.008860   -0.010807   -0.001745    0.001481   -0.000669
                                           0.000307    0.000553   -0.000723   -0.000913    0.000000
    8.1 A                 82498.208000     0.037893    0.011845   -0.014983   -0.002432    0.002060   -0.000931
                                           0.000428    0.000771   -0.001008   -0.001281    0.000000
    9.1 A                 41068.557000     0.063446    0.019489   -0.025472   -0.004156    0.003514   -0.001588
                                           0.000730    0.001312   -0.001713   -0.002158    0.000000
   10.1 A                 20931.097000     0.090970    0.026964   -0.037612   -0.006192    0.005220   -0.002360
                                           0.001084    0.001959   -0.002562   -0.003271    0.000000
   11.1 A                 10881.858000     0.141353    0.040137   -0.060450   -0.010069    0.008456   -0.003823
                                           0.001756    0.003150   -0.004109   -0.005142    0.000000
                           5751.850200     0.192150    0.050328   -0.087023   -0.014758    0.012320   -0.005570
                                           0.002559    0.004641   -0.006081   -0.007843    0.000000
                           3085.413800     0.245625    0.057494   -0.119370   -0.020746    0.017180   -0.007769
                                           0.003568    0.006365   -0.008281   -0.010186    0.000000
                           1676.302600     0.236828    0.048791   -0.122988   -0.021795    0.017936   -0.008112
                                           0.003728    0.006861   -0.009046   -0.012129    0.000000
                            920.364860     0.144288    0.051386   -0.045258   -0.005640    0.005268   -0.002373
                                           0.001085    0.001652   -0.001974   -0.001042    0.000000
                            507.302700    -0.025759    0.115725    0.203246    0.056561   -0.041187    0.018724
                                          -0.008598   -0.014902    0.019190    0.021482    0.000000
                            285.301180    -0.127248    0.207489    0.548666    0.172341   -0.122683    0.055908
                                          -0.025737   -0.047910    0.063712    0.088054    0.000000
                            162.083520    -0.106345    0.166212    0.606264    0.222723   -0.155054    0.070944
                                          -0.032607   -0.056240    0.072273    0.078654    0.000000
                             92.502257    -0.075897    0.111536    0.036795   -0.036386    0.019294   -0.009062
                                           0.004086    0.001475    0.001168    0.030443    0.000000
                             54.996696    -0.159518    0.199400   -0.676887   -0.645265    0.447335   -0.211910
                                           0.098395    0.193270   -0.267108   -0.419400    0.000000
                             32.498055    -0.126680    0.162427   -0.590845   -0.685716    0.477369   -0.227312
                                           0.105023    0.171409   -0.214999   -0.161690    0.000000
                             19.139224    -0.031866    0.038627   -0.102127    0.187644   -0.152132    0.072681
                                          -0.032972   -0.027495    0.028200   -0.136514    0.000000
                             11.382710     0.001867    0.000895    0.103491    0.862021   -0.976205    0.547811
                                          -0.263192   -0.581563    0.872312    1.708580    0.000000
                              6.786052     0.000710   -0.001446    0.057992    0.445035   -0.716251    0.417708
                                          -0.198179   -0.257965    0.233684   -0.803168    0.000000
                              4.149622     0.000624    0.000224    0.007493    0.066545    0.448492   -0.350229
                                           0.170540    0.219139   -0.310498    1.111350    0.000000
                              2.398648    -0.000456    0.000036    0.000333    0.014140    0.872214   -0.849732
                                           0.456257    1.306370   -2.312230   -7.677220    0.000000
                              1.389239     0.000090    0.000196   -0.000539    0.002102    0.319316   -0.431871
                                           0.230358    0.273179    0.312923   10.897300    0.000000
                              0.799685    -0.000092   -0.000045    0.000120    0.000488    0.047531    0.436228
                                          -0.277578   -1.772950    4.829150   -2.756210    0.000000
                              0.427327     0.000032    0.000027   -0.000069   -0.000720    0.030738    0.715435
                                          -0.561943   -0.897998   -3.625440   -6.603630    0.000000
                              0.220940    -0.000014   -0.000008    0.000023   -0.000086    0.010089    0.233487
                                          -0.326569    1.531090   -1.220420    6.760400    0.000000
                              0.086038     0.000004    0.000003   -0.000008   -0.000060    0.001152    0.063336
                                           0.301677    1.025940    2.677810   -2.145480    0.000000
                              0.041219    -0.000002   -0.000001    0.000004   -0.000044    0.001537    0.118995
                                           0.692734   -0.772162   -0.536170   -1.021350    0.000000
                              0.018781     0.000001    0.000000   -0.000001   -0.000024    0.000590    0.043903
                                           0.253879   -0.484754   -0.805222    1.252960    1.000000
   12.1 A     1  2px   52575799.000000     0.000013
                       15301659.000000     0.000017
                        4822461.600000     0.000052
                        1632045.600000     0.000107
                         584338.640000     0.000256
                         219508.320000     0.000572
                          86085.039000     0.001336
                          35172.956000     0.003129
                          14975.745000     0.007503
                           6652.821900     0.017986
                           3084.270200     0.042103
                           1489.211300     0.090969
                            745.288670     0.167976
                            384.521300     0.234709
                            203.927220     0.220200
                            110.523340     0.174708
                             61.345569     0.190642
                             34.404375     0.137246
                             19.094147     0.033402
                             10.684628    -0.000867
                              5.931463    -0.000935
                              3.230992    -0.000009
                              1.730655     0.000164
                              0.869483     0.000022
                              0.440589     0.000009
                              0.215859    -0.000000
                              0.091015     0.000001
                              0.040174    -0.000000
                              0.017215     0.000000
   13.1 A     1  2py   52575799.000000     0.000013
                       15301659.000000     0.000017
                        4822461.600000     0.000052
                        1632045.600000     0.000107
                         584338.640000     0.000256
                         219508.320000     0.000572
                          86085.039000     0.001336
                          35172.956000     0.003129
                          14975.745000     0.007503
                           6652.821900     0.017986
                           3084.270200     0.042103
                           1489.211300     0.090969
                            745.288670     0.167976
                            384.521300     0.234709
                            203.927220     0.220200
                            110.523340     0.174708
                             61.345569     0.190642
                             34.404375     0.137246
                             19.094147     0.033402
                             10.684628    -0.000867
                              5.931463    -0.000935
                              3.230992    -0.000009
                              1.730655     0.000164
                              0.869483     0.000022
                              0.440589     0.000009
                              0.215859    -0.000000
                              0.091015     0.000001
                              0.040174    -0.000000
                              0.017215     0.000000
   14.1 A     1  2pz   52575799.000000     0.000013
                       15301659.000000     0.000017
                        4822461.600000     0.000052
                        1632045.600000     0.000107
                         584338.640000     0.000256
                         219508.320000     0.000572
                          86085.039000     0.001336
                          35172.956000     0.003129
                          14975.745000     0.007503
                           6652.821900     0.017986
                           3084.270200     0.042103
                           1489.211300     0.090969
                            745.288670     0.167976
                            384.521300     0.234709
                            203.927220     0.220200
                            110.523340     0.174708
                             61.345569     0.190642
                             34.404375     0.137246
                             19.094147     0.033402
                             10.684628    -0.000867
                              5.931463    -0.000935
                              3.230992    -0.000009
                              1.730655     0.000164
                              0.869483     0.000022
                              0.440589     0.000009
                              0.215859    -0.000000
                              0.091015     0.000001
                              0.040174    -0.000000
                              0.017215     0.000000
   15.1 A     1  2px   52575799.000000    -0.000015
                       15301659.000000    -0.000020
                        4822461.600000    -0.000063
                        1632045.600000    -0.000128
                         584338.640000    -0.000307
                         219508.320000    -0.000688
                          86085.039000    -0.001611
                          35172.956000    -0.003789
                          14975.745000    -0.009145
                           6652.821900    -0.022135
                           3084.270200    -0.052666
                           1489.211300    -0.116756
                            745.288670    -0.223673
                            384.521300    -0.322150
                            203.927220    -0.236330
                            110.523340     0.145050
                             61.345569     0.527334
                             34.404375     0.400957
                             19.094147     0.019469
                             10.684628    -0.122609
                              5.931463    -0.050931
                              3.230992    -0.002720
                              1.730655     0.002231
                              0.869483     0.000423
                              0.440589     0.000084
                              0.215859     0.000018
                              0.091015     0.000006
                              0.040174    -0.000002
                              0.017215     0.000001
   16.1 A     1  2py   52575799.000000    -0.000015
                       15301659.000000    -0.000020
                        4822461.600000    -0.000063
                        1632045.600000    -0.000128
                         584338.640000    -0.000307
                         219508.320000    -0.000688
                          86085.039000    -0.001611
                          35172.956000    -0.003789
                          14975.745000    -0.009145
                           6652.821900    -0.022135
                           3084.270200    -0.052666
                           1489.211300    -0.116756
                            745.288670    -0.223673
                            384.521300    -0.322150
                            203.927220    -0.236330
                            110.523340     0.145050
                             61.345569     0.527334
                             34.404375     0.400957
                             19.094147     0.019469
                             10.684628    -0.122609
                              5.931463    -0.050931
                              3.230992    -0.002720
                              1.730655     0.002231
                              0.869483     0.000423
                              0.440589     0.000084
                              0.215859     0.000018
                              0.091015     0.000006
                              0.040174    -0.000002
                              0.017215     0.000001
   17.1 A     1  2pz   52575799.000000    -0.000015
                       15301659.000000    -0.000020
                        4822461.600000    -0.000063
                        1632045.600000    -0.000128
                         584338.640000    -0.000307
                         219508.320000    -0.000688
                          86085.039000    -0.001611
                          35172.956000    -0.003789
                          14975.745000    -0.009145
                           6652.821900    -0.022135
                           3084.270200    -0.052666
                           1489.211300    -0.116756
                            745.288670    -0.223673
                            384.521300    -0.322150
                            203.927220    -0.236330
                            110.523340     0.145050
                             61.345569     0.527334
                             34.404375     0.400957
                             19.094147     0.019469
                             10.684628    -0.122609
                              5.931463    -0.050931
                              3.230992    -0.002720
                              1.730655     0.002231
                              0.869483     0.000423
                              0.440589     0.000084
                              0.215859     0.000018
                              0.091015     0.000006
                              0.040174    -0.000002
                              0.017215     0.000001
   18.1 A     1  2px   52575799.000000     0.000002
                       15301659.000000     0.000002
                        4822461.600000     0.000007
                        1632045.600000     0.000015
                         584338.640000     0.000036
                         219508.320000     0.000081
                          86085.039000     0.000191
                          35172.956000     0.000452
                          14975.745000     0.001103
                           6652.821900     0.002719
                           3084.270200     0.006655
                           1489.211300     0.015415
                            745.288670     0.031304
                            384.521300     0.047289
                            203.927220     0.017930
                            110.523340    -0.123036
                             61.345569    -0.327485
                             34.404375    -0.190153
                             19.094147     0.365341
                             10.684628     0.614487
                              5.931463     0.253665
                              3.230992     0.025247
                              1.730655     0.001457
                              0.869483    -0.000189
                              0.440589     0.000178
                              0.215859    -0.000001
                              0.091015     0.000034
                              0.040174    -0.000010
                              0.017215     0.000003
   19.1 A     1  2py   52575799.000000     0.000002
                       15301659.000000     0.000002
                        4822461.600000     0.000007
                        1632045.600000     0.000015
                         584338.640000     0.000036
                         219508.320000     0.000081
                          86085.039000     0.000191
                          35172.956000     0.000452
                          14975.745000     0.001103
                           6652.821900     0.002719
                           3084.270200     0.006655
                           1489.211300     0.015415
                            745.288670     0.031304
                            384.521300     0.047289
                            203.927220     0.017930
                            110.523340    -0.123036
                             61.345569    -0.327485
                             34.404375    -0.190153
                             19.094147     0.365341
                             10.684628     0.614487
                              5.931463     0.253665
                              3.230992     0.025247
                              1.730655     0.001457
                              0.869483    -0.000189
                              0.440589     0.000178
                              0.215859    -0.000001
                              0.091015     0.000034
                              0.040174    -0.000010
                              0.017215     0.000003
   20.1 A     1  2pz   52575799.000000     0.000002
                       15301659.000000     0.000002
                        4822461.600000     0.000007
                        1632045.600000     0.000015
                         584338.640000     0.000036
                         219508.320000     0.000081
                          86085.039000     0.000191
                          35172.956000     0.000452
                          14975.745000     0.001103
                           6652.821900     0.002719
                           3084.270200     0.006655
                           1489.211300     0.015415
                            745.288670     0.031304
                            384.521300     0.047289
                            203.927220     0.017930
                            110.523340    -0.123036
                             61.345569    -0.327485
                             34.404375    -0.190153
                             19.094147     0.365341
                             10.684628     0.614487
                              5.931463     0.253665
                              3.230992     0.025247
                              1.730655     0.001457
                              0.869483    -0.000189
                              0.440589     0.000178
                              0.215859    -0.000001
                              0.091015     0.000034
                              0.040174    -0.000010
                              0.017215     0.000003
   21.1 A     1  2px   52575799.000000    -0.000002
                       15301659.000000    -0.000003
                        4822461.600000    -0.000009
                        1632045.600000    -0.000018
                         584338.640000    -0.000043
                         219508.320000    -0.000097
                          86085.039000    -0.000228
                          35172.956000    -0.000537
                          14975.745000    -0.001302
                           6652.821900    -0.003177
                           3084.270200    -0.007652
                           1489.211300    -0.017311
                            745.288670    -0.034068
                            384.521300    -0.050256
                            203.927220    -0.027762
                            110.523340     0.078094
                             61.345569     0.225253
                             34.404375     0.124053
                             19.094147    -0.273486
                             10.684628    -0.553839
                              5.931463    -0.065277
                              3.230992     0.618524
                              1.730655     0.501044
                              0.869483     0.107343
                              0.440589     0.023201
                              0.215859     0.014691
                              0.091015     0.001511
                              0.040174     0.000132
                              0.017215    -0.000015
   22.1 A     1  2py   52575799.000000    -0.000002
                       15301659.000000    -0.000003
                        4822461.600000    -0.000009
                        1632045.600000    -0.000018
                         584338.640000    -0.000043
                         219508.320000    -0.000097
                          86085.039000    -0.000228
                          35172.956000    -0.000537
                          14975.745000    -0.001302
                           6652.821900    -0.003177
                           3084.270200    -0.007652
                           1489.211300    -0.017311
                            745.288670    -0.034068
                            384.521300    -0.050256
                            203.927220    -0.027762
                            110.523340     0.078094
                             61.345569     0.225253
                             34.404375     0.124053
                             19.094147    -0.273486
                             10.684628    -0.553839
                              5.931463    -0.065277
                              3.230992     0.618524
                              1.730655     0.501044
                              0.869483     0.107343
                              0.440589     0.023201
                              0.215859     0.014691
                              0.091015     0.001511
                              0.040174     0.000132
                              0.017215    -0.000015
   23.1 A     1  2pz   52575799.000000    -0.000002
                       15301659.000000    -0.000003
                        4822461.600000    -0.000009
                        1632045.600000    -0.000018
                         584338.640000    -0.000043
                         219508.320000    -0.000097
                          86085.039000    -0.000228
                          35172.956000    -0.000537
                          14975.745000    -0.001302
                           6652.821900    -0.003177
                           3084.270200    -0.007652
                           1489.211300    -0.017311
                            745.288670    -0.034068
                            384.521300    -0.050256
                            203.927220    -0.027762
                            110.523340     0.078094
                             61.345569     0.225253
                             34.404375     0.124053
                             19.094147    -0.273486
                             10.684628    -0.553839
                              5.931463    -0.065277
                              3.230992     0.618524
                              1.730655     0.501044
                              0.869483     0.107343
                              0.440589     0.023201
                              0.215859     0.014691
                              0.091015     0.001511
                              0.040174     0.000132
                              0.017215    -0.000015
   24.1 A     1  2px   52575799.000000     0.000001
                       15301659.000000     0.000001
                        4822461.600000     0.000004
                        1632045.600000     0.000008
                         584338.640000     0.000019
                         219508.320000     0.000043
                          86085.039000     0.000102
                          35172.956000     0.000240
                          14975.745000     0.000583
                           6652.821900     0.001422
                           3084.270200     0.003426
                           1489.211300     0.007745
                            745.288670     0.015249
                            384.521300     0.022470
                            203.927220     0.012451
                            110.523340    -0.035134
                             61.345569    -0.101385
                             34.404375    -0.055104
                             19.094147     0.131617
                             10.684628     0.274237
                              5.931463     0.008683
                              3.230992    -0.421618
                              1.730655    -0.381893
                              0.869483     0.226214
                              0.440589     0.602150
                              0.215859     0.367232
                              0.091015     0.055939
                              0.040174    -0.001129
                              0.017215     0.001121
   25.1 A     1  2py   52575799.000000     0.000001
                       15301659.000000     0.000001
                        4822461.600000     0.000004
                        1632045.600000     0.000008
                         584338.640000     0.000019
                         219508.320000     0.000043
                          86085.039000     0.000102
                          35172.956000     0.000240
                          14975.745000     0.000583
                           6652.821900     0.001422
                           3084.270200     0.003426
                           1489.211300     0.007745
                            745.288670     0.015249
                            384.521300     0.022470
                            203.927220     0.012451
                            110.523340    -0.035134
                             61.345569    -0.101385
                             34.404375    -0.055104
                             19.094147     0.131617
                             10.684628     0.274237
                              5.931463     0.008683
                              3.230992    -0.421618
                              1.730655    -0.381893
                              0.869483     0.226214
                              0.440589     0.602150
                              0.215859     0.367232
                              0.091015     0.055939
                              0.040174    -0.001129
                              0.017215     0.001121
   26.1 A     1  2pz   52575799.000000     0.000001
                       15301659.000000     0.000001
                        4822461.600000     0.000004
                        1632045.600000     0.000008
                         584338.640000     0.000019
                         219508.320000     0.000043
                          86085.039000     0.000102
                          35172.956000     0.000240
                          14975.745000     0.000583
                           6652.821900     0.001422
                           3084.270200     0.003426
                           1489.211300     0.007745
                            745.288670     0.015249
                            384.521300     0.022470
                            203.927220     0.012451
                            110.523340    -0.035134
                             61.345569    -0.101385
                             34.404375    -0.055104
                             19.094147     0.131617
                             10.684628     0.274237
                              5.931463     0.008683
                              3.230992    -0.421618
                              1.730655    -0.381893
                              0.869483     0.226214
                              0.440589     0.602150
                              0.215859     0.367232
                              0.091015     0.055939
                              0.040174    -0.001129
                              0.017215     0.001121
   27.1 A     1  2px   52575799.000000    -0.000000
                       15301659.000000    -0.000000
                        4822461.600000    -0.000001
                        1632045.600000    -0.000002
                         584338.640000    -0.000005
                         219508.320000    -0.000010
                          86085.039000    -0.000024
                          35172.956000    -0.000058
                          14975.745000    -0.000140
                           6652.821900    -0.000342
                           3084.270200    -0.000823
                           1489.211300    -0.001861
                            745.288670    -0.003664
                            384.521300    -0.005398
                            203.927220    -0.002991
                            110.523340     0.008482
                             61.345569     0.024454
                             34.404375     0.013272
                             19.094147    -0.032305
                             10.684628    -0.067432
                              5.931463    -0.001366
                              3.230992     0.110673
                              1.730655     0.103187
                              0.869483    -0.077840
                              0.440589    -0.217735
                              0.215859    -0.188345
                              0.091015     0.201020
                              0.040174     0.637069
                              0.017215     0.326669
   28.1 A     1  2py   52575799.000000    -0.000000
                       15301659.000000    -0.000000
                        4822461.600000    -0.000001
                        1632045.600000    -0.000002
                         584338.640000    -0.000005
                         219508.320000    -0.000010
                          86085.039000    -0.000024
                          35172.956000    -0.000058
                          14975.745000    -0.000140
                           6652.821900    -0.000342
                           3084.270200    -0.000823
                           1489.211300    -0.001861
                            745.288670    -0.003664
                            384.521300    -0.005398
                            203.927220    -0.002991
                            110.523340     0.008482
                             61.345569     0.024454
                             34.404375     0.013272
                             19.094147    -0.032305
                             10.684628    -0.067432
                              5.931463    -0.001366
                              3.230992     0.110673
                              1.730655     0.103187
                              0.869483    -0.077840
                              0.440589    -0.217735
                              0.215859    -0.188345
                              0.091015     0.201020
                              0.040174     0.637069
                              0.017215     0.326669
   29.1 A     1  2pz   52575799.000000    -0.000000
                       15301659.000000    -0.000000
                        4822461.600000    -0.000001
                        1632045.600000    -0.000002
                         584338.640000    -0.000005
                         219508.320000    -0.000010
                          86085.039000    -0.000024
                          35172.956000    -0.000058
                          14975.745000    -0.000140
                           6652.821900    -0.000342
                           3084.270200    -0.000823
                           1489.211300    -0.001861
                            745.288670    -0.003664
                            384.521300    -0.005398
                            203.927220    -0.002991
                            110.523340     0.008482
                             61.345569     0.024454
                             34.404375     0.013272
                             19.094147    -0.032305
                             10.684628    -0.067432
                              5.931463    -0.001366
                              3.230992     0.110673
                              1.730655     0.103187
                              0.869483    -0.077840
                              0.440589    -0.217735
                              0.215859    -0.188345
                              0.091015     0.201020
                              0.040174     0.637069
                              0.017215     0.326669
   30.1 A     1  2px   52575799.000000    -0.000001
                       15301659.000000    -0.000001
                        4822461.600000    -0.000003
                        1632045.600000    -0.000005
                         584338.640000    -0.000013
                         219508.320000    -0.000028
                          86085.039000    -0.000066
                          35172.956000    -0.000156
                          14975.745000    -0.000379
                           6652.821900    -0.000925
                           3084.270200    -0.002224
                           1489.211300    -0.005040
                            745.288670    -0.009895
                            384.521300    -0.014653
                            203.927220    -0.007970
                            110.523340     0.022757
                             61.345569     0.067049
                             34.404375     0.034635
                             19.094147    -0.086605
                             10.684628    -0.190567
                              5.931463     0.011210
                              3.230992     0.295370
                              1.730655     0.357708
                              0.869483    -0.483437
                              0.440589    -0.603385
                              0.215859     0.215887
                              0.091015     0.715465
                              0.040174     0.271767
                              0.017215     0.004114
   31.1 A     1  2py   52575799.000000    -0.000001
                       15301659.000000    -0.000001
                        4822461.600000    -0.000003
                        1632045.600000    -0.000005
                         584338.640000    -0.000013
                         219508.320000    -0.000028
                          86085.039000    -0.000066
                          35172.956000    -0.000156
                          14975.745000    -0.000379
                           6652.821900    -0.000925
                           3084.270200    -0.002224
                           1489.211300    -0.005040
                            745.288670    -0.009895
                            384.521300    -0.014653
                            203.927220    -0.007970
                            110.523340     0.022757
                             61.345569     0.067049
                             34.404375     0.034635
                             19.094147    -0.086605
                             10.684628    -0.190567
                              5.931463     0.011210
                              3.230992     0.295370
                              1.730655     0.357708
                              0.869483    -0.483437
                              0.440589    -0.603385
                              0.215859     0.215887
                              0.091015     0.715465
                              0.040174     0.271767
                              0.017215     0.004114
   32.1 A     1  2pz   52575799.000000    -0.000001
                       15301659.000000    -0.000001
                        4822461.600000    -0.000003
                        1632045.600000    -0.000005
                         584338.640000    -0.000013
                         219508.320000    -0.000028
                          86085.039000    -0.000066
                          35172.956000    -0.000156
                          14975.745000    -0.000379
                           6652.821900    -0.000925
                           3084.270200    -0.002224
                           1489.211300    -0.005040
                            745.288670    -0.009895
                            384.521300    -0.014653
                            203.927220    -0.007970
                            110.523340     0.022757
                             61.345569     0.067049
                             34.404375     0.034635
                             19.094147    -0.086605
                             10.684628    -0.190567
                              5.931463     0.011210
                              3.230992     0.295370
                              1.730655     0.357708
                              0.869483    -0.483437
                              0.440589    -0.603385
                              0.215859     0.215887
                              0.091015     0.715465
                              0.040174     0.271767
                              0.017215     0.004114
   33.1 A     1  2px   52575799.000000    -0.000001
                       15301659.000000    -0.000001
                        4822461.600000    -0.000004
                        1632045.600000    -0.000009
                         584338.640000    -0.000021
                         219508.320000    -0.000047
                          86085.039000    -0.000111
                          35172.956000    -0.000263
                          14975.745000    -0.000636
                           6652.821900    -0.001554
                           3084.270200    -0.003739
                           1489.211300    -0.008475
                            745.288670    -0.016642
                            384.521300    -0.024644
                            203.927220    -0.013367
                            110.523340     0.038637
                             61.345569     0.114090
                             34.404375     0.057493
                             19.094147    -0.152735
                             10.684628    -0.335275
                              5.931463     0.054116
                              3.230992     0.556566
                              1.730655     0.705542
                              0.869483    -1.835570
                              0.440589    -0.012121
                              0.215859     1.665730
                              0.091015    -0.585220
                              0.040174    -0.541179
                              0.017215     0.007323
   34.1 A     1  2py   52575799.000000    -0.000001
                       15301659.000000    -0.000001
                        4822461.600000    -0.000004
                        1632045.600000    -0.000009
                         584338.640000    -0.000021
                         219508.320000    -0.000047
                          86085.039000    -0.000111
                          35172.956000    -0.000263
                          14975.745000    -0.000636
                           6652.821900    -0.001554
                           3084.270200    -0.003739
                           1489.211300    -0.008475
                            745.288670    -0.016642
                            384.521300    -0.024644
                            203.927220    -0.013367
                            110.523340     0.038637
                             61.345569     0.114090
                             34.404375     0.057493
                             19.094147    -0.152735
                             10.684628    -0.335275
                              5.931463     0.054116
                              3.230992     0.556566
                              1.730655     0.705542
                              0.869483    -1.835570
                              0.440589    -0.012121
                              0.215859     1.665730
                              0.091015    -0.585220
                              0.040174    -0.541179
                              0.017215     0.007323
   35.1 A     1  2pz   52575799.000000    -0.000001
                       15301659.000000    -0.000001
                        4822461.600000    -0.000004
                        1632045.600000    -0.000009
                         584338.640000    -0.000021
                         219508.320000    -0.000047
                          86085.039000    -0.000111
                          35172.956000    -0.000263
                          14975.745000    -0.000636
                           6652.821900    -0.001554
                           3084.270200    -0.003739
                           1489.211300    -0.008475
                            745.288670    -0.016642
                            384.521300    -0.024644
                            203.927220    -0.013367
                            110.523340     0.038637
                             61.345569     0.114090
                             34.404375     0.057493
                             19.094147    -0.152735
                             10.684628    -0.335275
                              5.931463     0.054116
                              3.230992     0.556566
                              1.730655     0.705542
                              0.869483    -1.835570
                              0.440589    -0.012121
                              0.215859     1.665730
                              0.091015    -0.585220
                              0.040174    -0.541179
                              0.017215     0.007323
   36.1 A     1  2px   52575799.000000    -0.000001
                       15301659.000000    -0.000002
                        4822461.600000    -0.000006
                        1632045.600000    -0.000012
                         584338.640000    -0.000030
                         219508.320000    -0.000066
                          86085.039000    -0.000157
                          35172.956000    -0.000360
                          14975.745000    -0.000908
                           6652.821900    -0.002110
                           3084.270200    -0.005394
                           1489.211300    -0.011352
                            745.288670    -0.024563
                            384.521300    -0.031084
                            203.927220    -0.026677
                            110.523340     0.074398
                             61.345569     0.122621
                             34.404375     0.158055
                             19.094147    -0.396610
                             10.684628    -0.217370
                              5.931463    -0.310283
                              3.230992     1.975310
                              1.730655    -0.901781
                              0.869483    -2.796670
                              0.440589     4.376690
                              0.215859    -2.312120
                              0.091015    -0.328877
                              0.040174     0.867979
                              0.017215    -0.037454
   37.1 A     1  2py   52575799.000000    -0.000001
                       15301659.000000    -0.000002
                        4822461.600000    -0.000006
                        1632045.600000    -0.000012
                         584338.640000    -0.000030
                         219508.320000    -0.000066
                          86085.039000    -0.000157
                          35172.956000    -0.000360
                          14975.745000    -0.000908
                           6652.821900    -0.002110
                           3084.270200    -0.005394
                           1489.211300    -0.011352
                            745.288670    -0.024563
                            384.521300    -0.031084
                            203.927220    -0.026677
                            110.523340     0.074398
                             61.345569     0.122621
                             34.404375     0.158055
                             19.094147    -0.396610
                             10.684628    -0.217370
                              5.931463    -0.310283
                              3.230992     1.975310
                              1.730655    -0.901781
                              0.869483    -2.796670
                              0.440589     4.376690
                              0.215859    -2.312120
                              0.091015    -0.328877
                              0.040174     0.867979
                              0.017215    -0.037454
   38.1 A     1  2pz   52575799.000000    -0.000001
                       15301659.000000    -0.000002
                        4822461.600000    -0.000006
                        1632045.600000    -0.000012
                         584338.640000    -0.000030
                         219508.320000    -0.000066
                          86085.039000    -0.000157
                          35172.956000    -0.000360
                          14975.745000    -0.000908
                           6652.821900    -0.002110
                           3084.270200    -0.005394
                           1489.211300    -0.011352
                            745.288670    -0.024563
                            384.521300    -0.031084
                            203.927220    -0.026677
                            110.523340     0.074398
                             61.345569     0.122621
                             34.404375     0.158055
                             19.094147    -0.396610
                             10.684628    -0.217370
                              5.931463    -0.310283
                              3.230992     1.975310
                              1.730655    -0.901781
                              0.869483    -2.796670
                              0.440589     4.376690
                              0.215859    -2.312120
                              0.091015    -0.328877
                              0.040174     0.867979
                              0.017215    -0.037454
   39.1 A     1  2px   52575799.000000     0.000000
                       15301659.000000     0.000000
                        4822461.600000     0.000000
                        1632045.600000     0.000000
                         584338.640000     0.000000
                         219508.320000     0.000000
                          86085.039000     0.000000
                          35172.956000     0.000000
                          14975.745000     0.000000
                           6652.821900     0.000000
                           3084.270200     0.000000
                           1489.211300     0.000000
                            745.288670     0.000000
                            384.521300     0.000000
                            203.927220     0.000000
                            110.523340     0.000000
                             61.345569     0.000000
                             34.404375     0.000000
                             19.094147     0.000000
                             10.684628     0.000000
                              5.931463     0.000000
                              3.230992     0.000000
                              1.730655     0.000000
                              0.869483     0.000000
                              0.440589     0.000000
                              0.215859     0.000000
                              0.091015     0.000000
                              0.040174     0.000000
                              0.017215     1.000000
   40.1 A     1  2py   52575799.000000     0.000000
                       15301659.000000     0.000000
                        4822461.600000     0.000000
                        1632045.600000     0.000000
                         584338.640000     0.000000
                         219508.320000     0.000000
                          86085.039000     0.000000
                          35172.956000     0.000000
                          14975.745000     0.000000
                           6652.821900     0.000000
                           3084.270200     0.000000
                           1489.211300     0.000000
                            745.288670     0.000000
                            384.521300     0.000000
                            203.927220     0.000000
                            110.523340     0.000000
                             61.345569     0.000000
                             34.404375     0.000000
                             19.094147     0.000000
                             10.684628     0.000000
                              5.931463     0.000000
                              3.230992     0.000000
                              1.730655     0.000000
                              0.869483     0.000000
                              0.440589     0.000000
                              0.215859     0.000000
                              0.091015     0.000000
                              0.040174     0.000000
                              0.017215     1.000000
   41.1 A     1  2pz   52575799.000000     0.000000
                       15301659.000000     0.000000
                        4822461.600000     0.000000
                        1632045.600000     0.000000
                         584338.640000     0.000000
                         219508.320000     0.000000
                          86085.039000     0.000000
                          35172.956000     0.000000
                          14975.745000     0.000000
                           6652.821900     0.000000
                           3084.270200     0.000000
                           1489.211300     0.000000
                            745.288670     0.000000
                            384.521300     0.000000
                            203.927220     0.000000
                            110.523340     0.000000
                             61.345569     0.000000
                             34.404375     0.000000
                             19.094147     0.000000
                             10.684628     0.000000
                              5.931463     0.000000
                              3.230992     0.000000
                              1.730655     0.000000
                              0.869483     0.000000
                              0.440589     0.000000
                              0.215859     0.000000
                              0.091015     0.000000
                              0.040174     0.000000
                              0.017215     1.000000
   42.1 A     1  3d0     105911.200000     0.000020
                          24974.572000     0.000129
                           8108.852700     0.000677
                           3150.520500     0.003052
                           1380.647900     0.011950
                            658.188950     0.039706
                            332.909040     0.108875
                            176.023220     0.231727
                             95.780704     0.354949
                             53.337287     0.336096
                             29.864821     0.140603
                             16.526778    -0.033742
                              9.155323    -0.064042
                              4.984876    -0.024095
                              2.636633    -0.002233
                              1.354062     0.000305
                              0.656031     0.000103
                              0.269853     0.000008
                              0.103443     0.000000
                              0.036685     0.000000
   43.1 A     1  3d2-    105911.200000     0.000020
                          24974.572000     0.000129
                           8108.852700     0.000677
                           3150.520500     0.003052
                           1380.647900     0.011950
                            658.188950     0.039706
                            332.909040     0.108875
                            176.023220     0.231727
                             95.780704     0.354949
                             53.337287     0.336096
                             29.864821     0.140603
                             16.526778    -0.033742
                              9.155323    -0.064042
                              4.984876    -0.024095
                              2.636633    -0.002233
                              1.354062     0.000305
                              0.656031     0.000103
                              0.269853     0.000008
                              0.103443     0.000000
                              0.036685     0.000000
   44.1 A     1  3d1+    105911.200000     0.000020
                          24974.572000     0.000129
                           8108.852700     0.000677
                           3150.520500     0.003052
                           1380.647900     0.011950
                            658.188950     0.039706
                            332.909040     0.108875
                            176.023220     0.231727
                             95.780704     0.354949
                             53.337287     0.336096
                             29.864821     0.140603
                             16.526778    -0.033742
                              9.155323    -0.064042
                              4.984876    -0.024095
                              2.636633    -0.002233
                              1.354062     0.000305
                              0.656031     0.000103
                              0.269853     0.000008
                              0.103443     0.000000
                              0.036685     0.000000
   45.1 A     1  3d2+    105911.200000     0.000020
                          24974.572000     0.000129
                           8108.852700     0.000677
                           3150.520500     0.003052
                           1380.647900     0.011950
                            658.188950     0.039706
                            332.909040     0.108875
                            176.023220     0.231727
                             95.780704     0.354949
                             53.337287     0.336096
                             29.864821     0.140603
                             16.526778    -0.033742
                              9.155323    -0.064042
                              4.984876    -0.024095
                              2.636633    -0.002233
                              1.354062     0.000305
                              0.656031     0.000103
                              0.269853     0.000008
                              0.103443     0.000000
                              0.036685     0.000000
   46.1 A     1  3d1-    105911.200000     0.000020
                          24974.572000     0.000129
                           8108.852700     0.000677
                           3150.520500     0.003052
                           1380.647900     0.011950
                            658.188950     0.039706
                            332.909040     0.108875
                            176.023220     0.231727
                             95.780704     0.354949
                             53.337287     0.336096
                             29.864821     0.140603
                             16.526778    -0.033742
                              9.155323    -0.064042
                              4.984876    -0.024095
                              2.636633    -0.002233
                              1.354062     0.000305
                              0.656031     0.000103
                              0.269853     0.000008
                              0.103443     0.000000
                              0.036685     0.000000
   47.1 A     1  3d0     105911.200000    -0.000007
                          24974.572000    -0.000047
                           8108.852700    -0.000246
                           3150.520500    -0.001113
                           1380.647900    -0.004403
                            658.188950    -0.014782
                            332.909040    -0.041545
                            176.023220    -0.089264
                             95.780704    -0.132364
                             53.337287    -0.078125
                             29.864821     0.163137
                             16.526778     0.427766
                              9.155323     0.404323
                              4.984876     0.149842
                              2.636633     0.013528
                              1.354062    -0.001244
                              0.656031    -0.000625
                              0.269853    -0.000007
                              0.103443    -0.000015
                              0.036685     0.000003
   48.1 A     1  3d2-    105911.200000    -0.000007
                          24974.572000    -0.000047
                           8108.852700    -0.000246
                           3150.520500    -0.001113
                           1380.647900    -0.004403
                            658.188950    -0.014782
                            332.909040    -0.041545
                            176.023220    -0.089264
                             95.780704    -0.132364
                             53.337287    -0.078125
                             29.864821     0.163137
                             16.526778     0.427766
                              9.155323     0.404323
                              4.984876     0.149842
                              2.636633     0.013528
                              1.354062    -0.001244
                              0.656031    -0.000625
                              0.269853    -0.000007
                              0.103443    -0.000015
                              0.036685     0.000003
   49.1 A     1  3d1+    105911.200000    -0.000007
                          24974.572000    -0.000047
                           8108.852700    -0.000246
                           3150.520500    -0.001113
                           1380.647900    -0.004403
                            658.188950    -0.014782
                            332.909040    -0.041545
                            176.023220    -0.089264
                             95.780704    -0.132364
                             53.337287    -0.078125
                             29.864821     0.163137
                             16.526778     0.427766
                              9.155323     0.404323
                              4.984876     0.149842
                              2.636633     0.013528
                              1.354062    -0.001244
                              0.656031    -0.000625
                              0.269853    -0.000007
                              0.103443    -0.000015
                              0.036685     0.000003
   50.1 A     1  3d2+    105911.200000    -0.000007
                          24974.572000    -0.000047
                           8108.852700    -0.000246
                           3150.520500    -0.001113
                           1380.647900    -0.004403
                            658.188950    -0.014782
                            332.909040    -0.041545
                            176.023220    -0.089264
                             95.780704    -0.132364
                             53.337287    -0.078125
                             29.864821     0.163137
                             16.526778     0.427766
                              9.155323     0.404323
                              4.984876     0.149842
                              2.636633     0.013528
                              1.354062    -0.001244
                              0.656031    -0.000625
                              0.269853    -0.000007
                              0.103443    -0.000015
                              0.036685     0.000003
   51.1 A     1  3d1-    105911.200000    -0.000007
                          24974.572000    -0.000047
                           8108.852700    -0.000246
                           3150.520500    -0.001113
                           1380.647900    -0.004403
                            658.188950    -0.014782
                            332.909040    -0.041545
                            176.023220    -0.089264
                             95.780704    -0.132364
                             53.337287    -0.078125
                             29.864821     0.163137
                             16.526778     0.427766
                              9.155323     0.404323
                              4.984876     0.149842
                              2.636633     0.013528
                              1.354062    -0.001244
                              0.656031    -0.000625
                              0.269853    -0.000007
                              0.103443    -0.000015
                              0.036685     0.000003
   52.1 A     1  3d0     105911.200000     0.000004
                          24974.572000     0.000029
                           8108.852700     0.000151
                           3150.520500     0.000680
                           1380.647900     0.002694
                            658.188950     0.009015
                            332.909040     0.025311
                            176.023220     0.054175
                             95.780704     0.081018
                             53.337287     0.048855
                             29.864821    -0.090265
                             16.526778    -0.246113
                              9.155323    -0.206236
                              4.984876     0.172306
                              2.636633     0.505507
                              1.354062     0.395599
                              0.656031     0.111489
                              0.269853     0.006247
                              0.103443    -0.000029
                              0.036685    -0.000036
   53.1 A     1  3d2-    105911.200000     0.000004
                          24974.572000     0.000029
                           8108.852700     0.000151
                           3150.520500     0.000680
                           1380.647900     0.002694
                            658.188950     0.009015
                            332.909040     0.025311
                            176.023220     0.054175
                             95.780704     0.081018
                             53.337287     0.048855
                             29.864821    -0.090265
                             16.526778    -0.246113
                              9.155323    -0.206236
                              4.984876     0.172306
                              2.636633     0.505507
                              1.354062     0.395599
                              0.656031     0.111489
                              0.269853     0.006247
                              0.103443    -0.000029
                              0.036685    -0.000036
   54.1 A     1  3d1+    105911.200000     0.000004
                          24974.572000     0.000029
                           8108.852700     0.000151
                           3150.520500     0.000680
                           1380.647900     0.002694
                            658.188950     0.009015
                            332.909040     0.025311
                            176.023220     0.054175
                             95.780704     0.081018
                             53.337287     0.048855
                             29.864821    -0.090265
                             16.526778    -0.246113
                              9.155323    -0.206236
                              4.984876     0.172306
                              2.636633     0.505507
                              1.354062     0.395599
                              0.656031     0.111489
                              0.269853     0.006247
                              0.103443    -0.000029
                              0.036685    -0.000036
   55.1 A     1  3d2+    105911.200000     0.000004
                          24974.572000     0.000029
                           8108.852700     0.000151
                           3150.520500     0.000680
                           1380.647900     0.002694
                            658.188950     0.009015
                            332.909040     0.025311
                            176.023220     0.054175
                             95.780704     0.081018
                             53.337287     0.048855
                             29.864821    -0.090265
                             16.526778    -0.246113
                              9.155323    -0.206236
                              4.984876     0.172306
                              2.636633     0.505507
                              1.354062     0.395599
                              0.656031     0.111489
                              0.269853     0.006247
                              0.103443    -0.000029
                              0.036685    -0.000036
   56.1 A     1  3d1-    105911.200000     0.000004
                          24974.572000     0.000029
                           8108.852700     0.000151
                           3150.520500     0.000680
                           1380.647900     0.002694
                            658.188950     0.009015
                            332.909040     0.025311
                            176.023220     0.054175
                             95.780704     0.081018
                             53.337287     0.048855
                             29.864821    -0.090265
                             16.526778    -0.246113
                              9.155323    -0.206236
                              4.984876     0.172306
                              2.636633     0.505507
                              1.354062     0.395599
                              0.656031     0.111489
                              0.269853     0.006247
                              0.103443    -0.000029
                              0.036685    -0.000036
   57.1 A     1  3d0     105911.200000    -0.000001
                          24974.572000    -0.000008
                           8108.852700    -0.000042
                           3150.520500    -0.000189
                           1380.647900    -0.000746
                            658.188950    -0.002504
                            332.909040    -0.007016
                            176.023220    -0.015063
                             95.780704    -0.022420
                             53.337287    -0.013378
                             29.864821     0.026555
                             16.526778     0.070496
                              9.155323     0.058301
                              4.984876    -0.065834
                              2.636633    -0.177473
                              1.354062    -0.127085
                              0.656031     0.181760
                              0.269853     0.495490
                              0.103443     0.447072
                              0.036685     0.116353
   58.1 A     1  3d2-    105911.200000    -0.000001
                          24974.572000    -0.000008
                           8108.852700    -0.000042
                           3150.520500    -0.000189
                           1380.647900    -0.000746
                            658.188950    -0.002504
                            332.909040    -0.007016
                            176.023220    -0.015063
                             95.780704    -0.022420
                             53.337287    -0.013378
                             29.864821     0.026555
                             16.526778     0.070496
                              9.155323     0.058301
                              4.984876    -0.065834
                              2.636633    -0.177473
                              1.354062    -0.127085
                              0.656031     0.181760
                              0.269853     0.495490
                              0.103443     0.447072
                              0.036685     0.116353
   59.1 A     1  3d1+    105911.200000    -0.000001
                          24974.572000    -0.000008
                           8108.852700    -0.000042
                           3150.520500    -0.000189
                           1380.647900    -0.000746
                            658.188950    -0.002504
                            332.909040    -0.007016
                            176.023220    -0.015063
                             95.780704    -0.022420
                             53.337287    -0.013378
                             29.864821     0.026555
                             16.526778     0.070496
                              9.155323     0.058301
                              4.984876    -0.065834
                              2.636633    -0.177473
                              1.354062    -0.127085
                              0.656031     0.181760
                              0.269853     0.495490
                              0.103443     0.447072
                              0.036685     0.116353
   60.1 A     1  3d2+    105911.200000    -0.000001
                          24974.572000    -0.000008
                           8108.852700    -0.000042
                           3150.520500    -0.000189
                           1380.647900    -0.000746
                            658.188950    -0.002504
                            332.909040    -0.007016
                            176.023220    -0.015063
                             95.780704    -0.022420
                             53.337287    -0.013378
                             29.864821     0.026555
                             16.526778     0.070496
                              9.155323     0.058301
                              4.984876    -0.065834
                              2.636633    -0.177473
[...]
   66.1     2.00000    -0.48867     4  1  pz  -0.33784    6  1  py   0.44245    6  1  pz  -0.27128    8  1  px  -0.38007
                                    8  1  pz  -0.40296
   67.1     2.00000    -0.48021     1  5  pz   0.27531    6  1  py   0.29558    8  1  px   0.28088   10  1  px   0.48230
                                   10  1  py   0.36974
   68.1     2.00000    -0.47981     4  1  px   0.28782    4  1  pz  -0.27777    6  1  px  -0.31944    8  1  py   0.41378
                                    8  1  pz   0.36520   10  1  py   0.28674
   69.1     0.00000     0.02384     1  4  s   -0.48627    1  5  s   -1.53955    1  6  s   -5.49071    1  7  s   -7.21238
                                    1 11  s    3.10024    1  5  px   0.40975    1  5  py   0.49532    1  5  pz  -0.28720
                                    1  6  px   0.55419    1  6  py   0.80620    1  6  pz  -0.54716    1  7  px   0.29674
                                    1  7  py   0.27079    1 10  px  -0.27087    1 10  py  -0.45717    1 10  pz   0.31790
                                    3  4  s    0.78515    4  5  s    1.17443    4  4  px   0.62328    4  4  py  -0.46929
                                    5  4  s    0.59042    6  5  s    1.20747    6  4  py   0.50697    6  4  pz   0.64162
                                    7  4  s    0.80315    8  5  s    1.63769    8  4  px   0.43526    8  4  py   0.73504
                                    8  4  pz  -0.61193    9  4  s    0.90684   10  5  s    0.62436   10  4  px  -0.43135
                                   10  4  pz  -0.35161
   70.1     0.00000     0.03507     1  4  pz  -0.28365    1  5  py  -0.53519    1  5  pz  -1.53220    1  6  px  -0.64365
                                    1  6  py  -1.16829    1  6  pz  -3.39997    1  7  pz  -0.31484    1 10  px   0.57105
                                    1 10  py   0.87718    1 10  pz   2.35852    1  4  d2+ -0.25730    1  4  d1-  0.32246
                                    2  5  s   -0.25703    3  4  s    0.32948    4  5  s    0.47585    4  4  px   0.46949
                                    5  4  s    0.25609    6  5  s   -2.19918    6  4  py  -0.94558    6  4  pz  -0.95372
                                    7  4  s   -0.95075    8  5  s    0.87542    8  4  pz  -0.35453    9  4  s    0.27112
                                   10  5  s    1.34307   10  4  px  -0.63559   10  4  pz  -0.25394
   71.1     0.00000     0.03523     1  5  px  -1.20777    1  5  py   1.03044    1  5  pz  -0.42707    1  6  px  -2.81960
                                    1  6  py   2.38313    1  6  pz  -1.06984    1 10  px   2.15188    1 10  py  -1.53789
                                    1 10  pz   0.70383    1  4  d2- -0.34043    1  8  d1+  0.31185    2  5  s   -0.35915
                                    3  4  s   -0.83606    4  5  s   -2.07126    4  4  px  -0.92454    4  4  py   0.69767
                                    4  4  pz   0.50125    5  4  s    0.25648    6  4  px   0.44451    6  4  pz   0.25809
                                    8  5  s    1.03953    8  4  py   0.25595    9  4  s    0.25852   10  5  s    1.45880
                                   10  4  px  -0.56383   10  4  pz  -0.47721
   72.1     0.00000     0.03955     1 11  s   -0.48535    1  5  px  -1.00570    1  5  py  -1.16689    1  5  pz   0.69935
                                    1  6  px  -2.46401    1  6  py  -2.59786    1  6  pz   1.41103    1  7  py  -0.25379
                                    1 10  px   1.75875    1 10  py   1.73894    1 10  pz  -0.86632    2  5  s    1.20823
                                    3  3  s    0.33497    3  4  s    0.77487    4  5  s   -0.49436    4  4  px   0.25495
                                    5  4  s    0.78775    6  5  s   -0.40092    7  3  s    0.27325    7  4  s    0.73014
                                    8  5  s   -2.15906    8  4  px  -0.43030    8  4  py  -0.70682    8  4  pz   0.56399
                                    9  4  s   -1.05550   10  5  s    0.92451   10  4  px  -0.61410   10  4  pz  -0.40890
   73.1     0.00000     0.05637     1  5  px   0.29244    1  5  py  -0.36416    1  5  pz  -0.35702    1  7  px   0.47542
                                    1  7  py  -0.66702    1  7  pz  -0.57770    1 10  px   1.73674    1 10  py  -2.17736
                                    1 10  pz  -1.68243    1  8  d0   0.35166    1  8  d2-  0.43715    1  8  d1+  0.41852
                                    1  8  d2+ -0.35635    1  8  d1-  0.32422    3  3  s    0.92107    3  4  s    3.38456
                                    4  5  s   -0.30775    4  4  px   0.37853    4  4  py  -0.74117    5  4  s   -0.62730
                                    6  3  pz  -0.25130    6  4  py  -0.42191    6  4  pz  -0.68671    7  3  s   -0.77580
                                    7  4  s   -3.15630    8  4  py   0.26469    9  4  s    0.42012
   74.1     0.00000     0.05739     1  6  s   -0.33276    1  7  s   -0.60932    1 11  s    1.46662    1  5  px   0.70996
                                    1  5  py   0.38012    1  6  px   1.04949    1  6  py   1.33299    1  6  pz  -0.99021
                                    1  7  px   0.43642    1  7  pz   0.56026    1 10  px   0.90840    1 10  py  -1.88853
                                    1 10  pz   3.35442    1  4  d1- -0.34887    1  8  d2-  0.37954    1  8  d1+  0.51122
                                    1  8  d2+  0.31839    1  8  d1- -0.67670    2  5  s   -0.97536    3  3  s    0.54120
                                    3  4  s    2.00987    4  5  s    0.33690    4  4  px   0.62730    4  4  py  -0.29454
                                    5  3  s   -0.73255    5  4  s   -3.21198    6  4  px   0.39055    6  4  pz   0.60885
                                    7  3  s    0.60423    7  4  s    2.16605    8  5  s    0.88172    8  4  px  -0.69001
                                    8  4  py  -0.46767    9  3  s   -0.77650    9  4  s   -2.63685   10  5  s    0.37327
                                   10  4  px   0.34662   10  4  pz   0.56216
   75.1     0.00000     0.05800     1  6  s   -0.52548    1  7  s   -0.95399    1 11  s    0.99333    1  6  px   0.78171
                                    1  6  py   0.76880    1  6  pz  -0.44650    1  7  py  -0.30927    1 10  px  -2.63481
                                    1 10  py  -1.97285    1 10  pz  -0.32255    1  4  d1- -0.30909    1  8  d1+ -0.61208
                                    1  8  d2+ -0.38981    2  5  s   -1.00650    4  5  s    0.76637    4  4  pz  -0.34107
                                    5  3  s    1.16951    5  4  s    3.30719    6  5  s    0.82177    7  3  s   -0.32171
                                    7  4  s   -1.10343    8  5  s    0.81102    8  4  px  -0.27088    8  4  py  -0.53350
                                    8  4  pz   0.62521    9  3  s   -0.80092    9  4  s   -3.01727   10  4  s   -0.27096
                                   10  5  s   -0.49328   10  4  px  -0.42192   10  4  pz  -0.59897
   76.1     0.00000     0.07490     1  6  s   -0.77225    1  7  s   -1.45550    1  8  s    0.54134    1  9  s    0.25876
                                    1 11  s    9.51489    1  6  py  -0.30454    1  6  pz   0.41452    1 10  px  -1.02703
                                    1 10  py  -0.89879    1 10  pz   0.70918    1  4  d1-  0.37193    2  5  s    0.57392
                                    3  3  s   -0.65900    3  4  s   -2.65233    4  5  s    0.42171    4  4  px  -0.28796
                                    4  4  py   0.53719    5  3  s   -0.58035    5  4  s   -2.39162    6  5  s    0.37283
                                    6  4  pz  -0.54699    7  3  s   -0.59061    7  4  s   -2.41980    8  4  s    0.26341
                                    8  5  s    1.07678    8  4  px  -0.32652    9  3  s   -0.84257    9  4  s   -3.03919
                                   10  4  px   0.35987   10  4  pz   0.48190
   77.1     0.00000     0.10209     1  4  s   -1.00053    1  5  s   -3.18735    1  6  s  -11.88462    1  7  s  -17.06664
                                    1  8  s    1.04442    1  9  s    0.69703    1 11  s   16.75443    1  6  px  -0.98110
                                    1  6  py  -0.79566    1  7  px   0.67284    1  7  py   0.34662    1 10  px  -0.32969
                                    1 10  py  -0.92632    1 10  pz   1.07116    1  4  d1+  0.27506    1  4  d2+  0.28597
                                    1  4  d1-  0.38824    1  5  d1- -0.29583    1  8  d0  -0.67646    1  8  d2-  1.25823
                                    1  8  d1+ -0.32388    1  8  d1- -0.61966    1  6  f1+ -0.25362    1  6  f2-  0.27360
                                    1  6  f2+ -0.30460    2  5  s    2.22966    2  4  px  -0.48836    2  4  py  -0.71570
                                    2  4  pz   0.38047    3  3  s   -0.47325    3  4  s   -1.61403    3  3  px  -0.30515
                                    4  5  s    3.27248    4  4  px   0.87636    5  3  s   -0.40898    5  4  s   -1.91512
                                    6  5  s    3.12973    6  4  px   0.61748    6  4  py   0.74299    7  2  s    0.28290
                                    7  3  s   -0.35651    7  4  s   -1.56859    8  4  s    0.46107    8  5  s    3.09031
                                    8  4  px   0.70380    8  4  py   1.33213    8  4  pz  -0.92279    9  3  s   -0.59688
                                    9  4  s   -3.03754    9  3  py  -0.47204    9  3  pz   0.42683   10  5  s    2.38919
                                   10  4  px  -0.54639   10  4  py  -0.53479
   78.1     0.00000     0.10626     1  4  s    0.52590    1  5  s    1.66855    1  6  s    6.11953    1  7  s    8.58442
                                    1  8  s   -0.45186    1  9  s   -0.32612    1 11  s   -8.65155    1  5  px  -0.44252
                                    1  5  py   0.29078    1  5  pz  -0.37255    1  6  px  -1.59617    1  6  py   0.27197
                                    1  6  pz  -0.95081    1 10  px   1.04077    1 10  py   0.46246    1  4  d0  -0.29039
                                    1  4  d1-  0.31354    1  8  d0  -1.28536    1  8  d2-  1.28213    1  8  d1+ -0.59844
                                    1  8  d2+  1.24639    1  8  d1-  1.12290    1  6  f1+ -0.32969    1  6  f3-  0.31783
                                    2  5  s   -0.53449    2  4  px  -0.50576    2  4  py   0.26464    2  4  pz  -0.50233
                                    3  3  s    0.83301    3  4  s    0.98757    3  3  py  -0.47222    4  5  s   -3.27295
                                    4  4  py   1.22575    5  3  s    0.48465    5  4  s    1.18551    5  3  px  -0.27845
                                    5  3  pz  -0.40890    6  5  s   -2.38487    6  4  px   0.44757    6  4  pz  -0.77483
                                    7  3  s    0.52277    7  4  s    0.93577    7  3  pz   0.30027    8  5  s    0.42781
                                    8  4  px   0.87988    8  4  pz   0.35938    9  3  s   -0.33740    9  4  s    1.55971
                                   10  5  s   -2.06086   10  4  py  -0.82102   10  4  pz   1.26263


 HOMO     68.1    -0.479807 =     -13.0562eV
 LUMO     69.1     0.023836 =       0.6486eV
 LUMO-HOMO         0.503643 =      13.7048eV

 Orbitals saved in record  2100.2


 **********************************************************************************************************************************
 DATASETS  * FILE   NREC   LENGTH (MB)   RECORD NAMES
              1      22       48.08       500      610      700      900      950      970     1000      129      960     1700   
                                          VAR    BASINP    GEOM    SYMINP    ZMAT    AOBASIS   BASIS     P2S    ABASIS    OPER   
                                         1101     1401     1411     1412     1650     1100     1400     1410     1200     1210   
                                          SR      EKINR    POTR     PVPR    MOLCAS      S      EKIN      POT      H0       H01  
                                         1080     1600   
                                         AOSYM     SMH  

              2       6       15.69       500      610      700     1000      520     2100   
                                          VAR    BASINP    GEOM     BASIS   MCVARS     RHF  

 PROGRAMS   *        TOTAL    HF-SCF       INT      FILE
 CPU TIMES  *       605.79    228.04    377.44      0.01
 REAL TIME  *       683.14 SEC
 DISK USED  *        79.99 MB (local),       87.53 GB (total)
 GA USED    *         0.01 MB       (max)       0.00 MB       (current)
 **********************************************************************************************************************************


 PROGRAM * CCSD (Closed-shell coupled cluster)     Authors: C. Hampel, H.-J. Werner, 1991, M. Deegan, P.J. Knowles, 1992


 Convergence thresholds:  THRVAR = 1.00D-08  THRDEN = 1.00D-06

 CCSD(T)     terms to be evaluated (factor= 1.000)


 Number of core orbitals:          44 (  44 )
 Number of closed-shell orbitals:  24 (  24 )
 Number of external orbitals:     415 ( 415 )

 Molecular orbitals read from record     2100.2  Type=RHF/CANONICAL  

 Number of N-1 electron functions:              24
 Number of N-2 electron functions:             300
 Number of singly external CSFs:              9960
 Number of doubly external CSFs:          49605780
 Total number of CSFs:                    49615741

 Length of J-op  integral file:               0.00 MB
 Length of K-op  integral file:              16.02 MB
 Length of 3-ext integral record:             0.00 MB

 Memory could be reduced to 2010.25 Mwords without degradation in triples

 Integral transformation finished. Total CPU: 959.26 sec, npass=  1  Memory used:1528.58 MW

 Reference energy:                 -27623.05936835

 MP2 singlet pair energy:              -1.01888288
 MP2 triplet pair energy:              -0.68839060
 MP2 correlation energy:               -1.70727348
 MP2 total energy:                 -27624.76664183

 SCS-MP2 correlation energy:           -1.65099139   (PS=  1.200000  PT=  0.333333)
 SCS-MP2 total energy:             -27624.71035974

 ITER.      SQ.NORM     CORR.ENERGY   TOTAL ENERGY   ENERGY CHANGE        DEN1      VAR(S)    VAR(P)  DIIS     TIME  TIME/IT
   1      1.40922133    -1.70463097-27624.76399932     0.00264251     0.06582328  0.28D-01  0.11D-01  1  1  2174.39   611.07
   2      1.43936153    -1.69503448-27624.75440283     0.00959650    -0.04298173  0.36D-03  0.20D-02  2  2  2810.35   628.42
   3      1.45856004    -1.69719582-27624.75656418    -0.00216135    -0.00503968  0.11D-02  0.14D-03  3  3  3434.77   630.25
   4      1.46974093    -1.69591262-27624.75528097     0.00128320    -0.00364289  0.17D-03  0.31D-04  4  4  4148.23   654.35
   5      1.47765169    -1.69525891-27624.75462726     0.00065371    -0.00167948  0.32D-04  0.47D-05  5  5  4878.58   672.68
   6      1.47997273    -1.69513817-27624.75450652     0.00012074    -0.00016946  0.56D-05  0.14D-05  6  6  5603.34   684.04
   7      1.48105272    -1.69503581-27624.75440416     0.00010235    -0.00003431  0.11D-05  0.30D-06  6  1  6305.61   688.90
   8      1.48137485    -1.69502878-27624.75439713     0.00000703    -0.00005170  0.29D-06  0.53D-07  6  2  7039.38   696.92
   9      1.48142996    -1.69503386-27624.75440221    -0.00000508     0.00001256  0.48D-07  0.15D-07  6  4  7978.73   726.67
  10      1.48144618    -1.69503662-27624.75440497    -0.00000276     0.00000041  0.11D-07  0.27D-08  6  3  8959.59   754.77
  11      1.48145893    -1.69503515-27624.75440350     0.00000146    -0.00000497  0.26D-08  0.83D-09  6  5  9576.33   743.63
  12      1.48145713    -1.69503701-27624.75440536    -0.00000186     0.00000366  0.83D-09  0.19D-09  6  1 10106.76   726.94
  13      1.48145728    -1.69503654-27624.75440489     0.00000047    -0.00000008  0.13D-09  0.45D-10  6  6 10775.26   723.66
  14      1.48145604    -1.69503693-27624.75440528    -0.00000039     0.00000056  0.30D-10  0.84D-11  6  2 11391.51   717.08

 Norm of t1 vector:      0.22938955      S-energy:     0.00000026      T1 diagnostic:  0.02341197
                                                                       D1 diagnostic:  0.06333034
                                                                       D2 diagnostic:  0.13746064 (internal)

   CPU time for triples:   1833.62 sec for i =  1 -  5 / 24 (~   1.2 % done)
   CPU time for triples:   3290.59 sec for i =  6 - 16 / 24 (~  31.1 % done)
   CPU time for triples:   3088.84 sec for i = 17 - 19 / 24 (~  50.9 % done)
   CPU time for triples:   2129.84 sec for i = 20 - 21 / 24 (~  67.9 % done)
   CPU time for triples:   3121.72 sec for i = 22 - 23 / 24 (~  88.4 % done)
   CPU time for triples:   1677.17 sec for i = 24 - 24 / 24 (  100.0 % done)

 Total CPU time for triples:  15188.38 sec


 RESULTS
 =======

  Reference energy                   -27623.0593683528    
  CCSD singlet pair energy             -1.087264875376
  CCSD triplet pair energy             -0.607772314111
  CCSD correlation energy              -1.695036927755

  Triples (T) contribution             -0.079070526496
  Total correlation energy             -1.774107454251

  CCSD total energy                  -27624.7544052806    
  CCSD[T] energy                     -27624.8443725639    
  CCSD-T energy                      -27624.8297853150    
 !CCSD(T) total energy               -27624.8334758071    

 Timing summary (sec):

 STEP                 CPU(USER)    SYS     CPU(TOT)    WALL
 Transformation        962.22     42.13   1004.35   1012.52
 CCSD iterations     10441.97    241.98  10683.95  10089.59
 Triples             15188.38    187.53  15375.91  15455.88

 Program statistics:

 Available memory in ccsd:              2499997628
 Min. memory needed in ccsd:             114615175
 Max. memory used in ccsd:               160693699
 Max. memory used in cckext:             142477937 (14 integral passes)



 **********************************************************************************************************************************
 DATASETS  * FILE   NREC   LENGTH (MB)   RECORD NAMES
              1      23     7412.48       500      610      700      900      950      970     1000      129      960     1700   
                                          VAR    BASINP    GEOM    SYMINP    ZMAT    AOBASIS   BASIS     P2S    ABASIS    OPER   
                                         1101     1401     1411     1412     1650     1100     1400     1410     1200     1210   
                                          SR      EKINR    POTR     PVPR    MOLCAS      S      EKIN      POT      H0       H01  
                                         1080     1600     1380   
                                         AOSYM     SMH     JKOP   

              2       6       15.69       500      610      700     1000      520     2100   
                                          VAR    BASINP    GEOM     BASIS   MCVARS     RHF  

 PROGRAMS   *        TOTAL   CCSD(T)    HF-SCF       INT      FILE
 CPU TIMES  *     26595.71  25989.90    228.04    377.44      0.01
 REAL TIME  *     27267.45 SEC
 DISK USED  *        11.87 GB (local),      149.56 GB (total)
 SF USED    *        12.48 GB
 GA USED    *         0.01 MB       (max)       0.00 MB       (current)
 **********************************************************************************************************************************
 SETTING ENERGY_HF(1)   =    -27623.05936835  AU                              
 SETTING CORR_MP2(1)    =        -1.70727348  AU                              
 SETTING CORR_CCSDT(1)  =        -1.77410745  AU                              

 CCSD(T)/PA=CC-PVTZ-X2C,O=AUG-CC-PVTZ-X2C,H=AUG-CC-PVTZ-X2C,F=AUG-CC-PVTZ-X2C energy= -27624.833475807070

         CCSD(T)          HF-SCF
 -27624.83347581 -27623.05936835
 **********************************************************************************************************************************
 Molpro calculation terminated
