

 Parallel Execution: Process Information
 ==============================================================================
 Rank   Node Name                              NodeID   MyNodeRank  NodeMaster
    0   u-5-1.local                               0          0          0
    1   u-5-1.local                               0          1         -1
    2   u-5-1.local                               0          2         -1
    3   u-5-1.local                               0          3         -1
    4   u-5-1.local                               1          0          1
    5   u-5-1.local                               1          1         -1
    6   u-5-1.local                               1          2         -1
    7   u-5-1.local                               1          3         -1
 ==============================================================================


May use up to 31144MB of RAM as shared memory on node 0
May use up to 31250MB of RAM as shared memory on node 1

 *******************************************************************************
 *                                                                             *
 *  --------------------------------                                           *
 *   Amsterdam Modeling Suite (AMS)              2022.103                      *
 *  --------------------------------                                           *
 *                                               r104886 2022-06-17            *
 *                                                                             *
 *                                                                             *
 *                              =================                              *
 *                              |               |                              *
 *                              |     A M S     |                              *
 *                              |               |                              *
 *                              =================                              *
 *                                                                             *
 *                                                                             *
 *   Online information and documentation:  https://www.scm.com/support/       *
 *   E-mail:  support@scm.com   info@scm.com                                   *
 *                                                                             *
 *   Scientific publications using AMS results must be properly referenced     *
 *   See the User Manuals (or the web site) for recommended citations          *
 *   The terms and conditions of the End User License Agreement apply to       *
 *   the use of AMS, https://www.scm.com/license-terms/                        *
 *                                                                             *
 **********************  x86_64_linux_intel / intelmpi  ************************
 
 Licensed to: Dr. Val?rie Vallet / Laboratoire PhLAM UMR 8523 / Villeneuve d'Ascq Cedex / FRANCE 2023-02-21 11:49:39
 SCM User ID: u10325
  
 AMS 2022.103  RunTime: Feb28-2023 14:20:24  ShM Nodes: 2  Procs: 8

 AMS jobname: pa_oh4_f-newconformer.SR.b3lyp.tz2p.opt-freq-plane-B21-adf-solvation
 AMS jobid  : 1584752416

 Start   directory: /home/shaaban/ams/PhD/fluoride/pa_oh4_f/solvation/B21/
 Results directory: /home/shaaban/ams/PhD/fluoride/pa_oh4_f/solvation/B21/pa_oh4_f-newconformer.SR.b3lyp.tz2p.opt-freq-plane-B21-adf-solvation.results/
 Scratch directory: /state/partition1/shaaban/929849.phlam-s-sakura/amstmp_pa_oh4_f-newconformer.SR.b3lyp.tz2p.opt-freq-plane-B21-adf-solvation_kid0.1584752416/


 Communication costs MPI_COMM_WORLD:      1.911 usec per message,   0.0059 usec per 8-byte item
 Communication costs for intra-node:      0.984 usec per message,   0.0035 usec per 8-byte item

 RNG seed: -1656054762 1058045567 -1382806855 -1289290690 -31702075 -1788883514 558871471 1386079129



                      ************************************************************************
                      *  ADF 2022.103  RunTime: Feb28-2023 14:20:25  ShM Nodes: 2  Procs: 8  *
                      ************************************************************************
  
       ***************************
       *  GEOMETRY OPTIMIZATION  *
       ***************************

Optimization Method                    Quasi Newton
Optimization Coordinates               Delocalized Coordinates
Optimize lattice                       F
 
 ------------------------------------------------------
 Convergence criteria (Hartree,Angstrom)
 ------------------------------------------------------
 Maximum gradient               0.000100000000
 Maximum rms gradient           0.000066666667
 Maximum step allowed           0.001000000000
 Maximum rms step allowed       0.000666666667
 Maximum energy change allowe   0.000010000000
 Maximum stress energy allowe   0.000500000000
 
Initial model Hessian                  Automatic Hessian
 
------------------------------------
Quasi-Newton Optimizer Parameters
------------------------------------
Hessian Update Method                  BFGS
Maximum number of steps                  250
First GDIIS cycle                          0
Maximum GDIIS vectors                      0
Trust radius (bohr)                        0.200000
Trust radius varies                        T
Constraints converged at all steps         T
Use projector                              T
 
 Rigid motions settings for: old optimizer
 Atomic rotations (x,y,z):     T T T
 Atomic translations (x,y,z):  T T T
 Tolerance:                   1.000000000000000E-006
 
--------
Geometry
--------
Formula: H4FO4Pa
Atoms
  Index Symbol   x (angstrom)   y (angstrom)   z (angstrom)
      1     Pa     0.32966179    -0.04088964     0.03021016       adf.R=2.200
      2      O     1.09267423     1.55606841    -1.08252874       adf.R=1.517
      3      H     1.50298618     2.08013131    -1.77366298       adf.R=1.350
      4      O    -1.37454446     1.10762780     0.51432163       adf.R=1.517
      5      H    -1.83104612     1.94929346     0.45068077       adf.R=1.350
      6      O     0.30067347    -1.24838048    -1.69917249       adf.R=1.517
      7      H     0.15840846    -2.09238006    -2.13223594       adf.R=1.350
      8      O    -0.39458287    -1.63006067     1.17650163       adf.R=1.517
      9      H    -0.87991524    -2.17839523     1.79625615       adf.R=1.350
     10      F     2.04120531     0.02218782     1.24321154       adf.R=1.425
 
Total System Charge             0.00000
Bonding info available!
 
 
----------------
ADF Engine Input
----------------
 
 Basis
 Type TZ2P
 Core None
 End
 XC
 Hybrid B3LYP
 End
 Solvation
 Surf Delley
 Solv name=Water cav0=0.0 cav1=0.0067639
 Charged method=CONJ
 C-Mat POT
 SCF VAR ALL
 CSMRSP
 End
 NumericalQuality Good
 

 Title: *** (NO TITLE) ***

 Using automatic Hessian for delocalized coordinates.
 *** GO1_GOStep1 ***

 SOLVATION
-------------------------------------------

  The Delley construction of COSMO surface surface is calculated

       Division Level for Surface Triangles (NDIV)                  3
       Final Division Level for Triangles (NFDIV)                   1
       Radius of the Solvent (RSOL)                           1.93000 angstr
  Dielectric Constant (EPSL)                                 78.39000

       COSMO equation is solved iteratively-               conjugate-gradient

       Maximun of Iterations for Charges (NCIX)                  1000
       Criterion for Charge convergence (CCNV)                1.0E-08

  COSMO charges included variationally in SCF

       COSMO included at every SCF cycle

  Geometry-dependent empirical factor                         0.00000

  C-Matrix calculated in cspmtx

  In cspmtx, C-Matrix calculated using fitted potential

-------------------------------------------



 -------------------------------------------
  COSMO surface
  Area             =          483.456
  Volume           =          727.226
  Number of Points =         1256
 -------------------------------------------



 ======================
 RI Hartree-Fock Scheme
 ======================
  
 Fit Set Quality     : GOOD
 Threshold Quality   : GOOD
 Integration Quality : GOOD
 Response Quality    : DEFAULT
 Is Range Separated  :  F
 
 RIHartreeFock Dependency: number of modified vectors:           4
 cosmo_calcen: 0.5 (esolb+esolc) (Hartrees) =   -0.032374

 Solvation energy (screening term,uncorrected) =    -20.314809 kcal/mol

 Solvation energy (dispersion and cavitation terms) =      0.904025 kcal/mol
 Solvation Energy Contributions (Hartrees)
          esola   esolb+esolc
     0.03237371   -0.06474741
 esol last cycle   -0.03237371
  
 Hartree-Fock exchange energy:   -510.658171362582     
 cosmo_calcen: 0.5 (esolb+esolc) (Hartrees) =   -0.032374

 Solvation energy (screening term,uncorrected) =    -20.314813 kcal/mol

 Solvation energy (dispersion and cavitation terms) =      0.904025 kcal/mol
 Solvation Energy Contributions (Hartrees)
          esola   esolb+esolc
     0.03237371   -0.06474742
 esol last cycle   -0.03237371

 Energy gradients wrt nuclear displacements
 ==========================================

     Atom      Cartesian (a.u./angstrom)
                 X         Y         Z
 ----------------------------------------
     1 Pa    0.018923  0.000618  0.013936
     2 O    -0.001209 -0.002323 -0.002721
     3 H    -0.002273 -0.002540  0.005364
     4 O     0.004584  0.003871 -0.003417
     5 H     0.000831 -0.005635  0.001533
     6 O    -0.001348 -0.004034  0.004373
     7 H     0.001208  0.005803  0.000678
     8 O    -0.002844  0.002049 -0.000399
     9 H     0.004105  0.002930 -0.003872
    10 F    -0.021978 -0.000739 -0.015475
 ----------------------------------------
 Mulliken charges used for AMS results%charges...
 
----------------------------------------------------------------------
Geometry Convergence after Step   1       (Hartree/Angstrom,Angstrom)
----------------------------------------------------------------------
current energy                               -2.78559513 Hartree
energy change                      -2.78559513     0.00001000    F
constrained gradient max            0.02198137     0.00010000    F
constrained gradient rms            0.00716134     0.00006667    F
gradient max                        0.02198137
gradient rms                        0.00716134
cart. step max                      0.01005968     0.00100000    F
cart. step rms                      0.00459637     0.00066667    F
 
 
--------
Geometry
--------
Formula: H4FO4Pa
Atoms
  Index Symbol   x (angstrom)   y (angstrom)   z (angstrom)
      1     Pa     0.32531647    -0.04036434     0.02765955       adf.R=2.200
      2      O     1.09800450     1.55896719    -1.08099248       adf.R=1.517
      3      H     1.51304585     2.08150544    -1.77490190       adf.R=1.350
      4      O    -1.38402811     1.10485120     0.51414680       adf.R=1.517
      5      H    -1.83713333     1.95127526     0.44719840       adf.R=1.350
      6      O     0.29688365    -1.24536057    -1.70662981       adf.R=1.517
      7      H     0.15335603    -2.09438665    -2.13581226       adf.R=1.350
      8      O    -0.39115135    -1.63285527     1.18019180       adf.R=1.517
      9      H    -0.87697830    -2.18104600     1.80464977       adf.R=1.350
     10      F     2.04820534     0.02261647     1.24807184       adf.R=1.425
 
Total System Charge             0.00000
Bonding info available!
 
 *** GO1_GOStep2 ***

 SOLVATION
-------------------------------------------

  The Delley construction of COSMO surface surface is calculated

       Division Level for Surface Triangles (NDIV)                  3
       Final Division Level for Triangles (NFDIV)                   1
       Radius of the Solvent (RSOL)                           1.93000 angstr
  Dielectric Constant (EPSL)                                 78.39000

       COSMO equation is solved iteratively-               conjugate-gradient

       Maximun of Iterations for Charges (NCIX)                  1000
       Criterion for Charge convergence (CCNV)                1.0E-08

  COSMO charges included variationally in SCF

       COSMO included at every SCF cycle

  Geometry-dependent empirical factor                         0.00000

  C-Matrix calculated in cspmtx

  In cspmtx, C-Matrix calculated using fitted potential

-------------------------------------------



 -------------------------------------------
  COSMO surface
  Area             =          484.751
  Volume           =          729.315
  Number of Points =         1256
 -------------------------------------------



 ======================
 RI Hartree-Fock Scheme
 ======================
  
 Fit Set Quality     : GOOD
 Threshold Quality   : GOOD
 Integration Quality : GOOD
 Response Quality    : DEFAULT
 Is Range Separated  :  F
 
 RIHartreeFock Dependency: number of modified vectors:           4
 cosmo_calcen: 0.5 (esolb+esolc) (Hartrees) =   -0.033099

 Solvation energy (screening term,uncorrected) =    -20.769893 kcal/mol

 Solvation energy (dispersion and cavitation terms) =      0.906447 kcal/mol
 Solvation Energy Contributions (Hartrees)
          esola   esolb+esolc
     0.03309893   -0.06619786
 esol last cycle   -0.03309893
  
 Hartree-Fock exchange energy:   -510.642709141694     
 cosmo_calcen: 0.5 (esolb+esolc) (Hartrees) =   -0.033099

 Solvation energy (screening term,uncorrected) =    -20.769895 kcal/mol

 Solvation energy (dispersion and cavitation terms) =      0.906447 kcal/mol
 Solvation Energy Contributions (Hartrees)
          esola   esolb+esolc
     0.03309893   -0.06619786
 esol last cycle   -0.03309893

 Energy gradients wrt nuclear displacements
 ==========================================

     Atom      Cartesian (a.u./angstrom)
                 X         Y         Z
 ----------------------------------------
     1 Pa    0.013865  0.000558  0.010249
     2 O    -0.001931 -0.002983 -0.000474
     3 H     0.000307  0.000870  0.001091
     4 O     0.004358  0.001024 -0.002183
     5 H    -0.001677 -0.001125  0.001239
     6 O    -0.000516 -0.001124  0.004158
     7 H     0.000448  0.001127 -0.001820
     8 O    -0.001049  0.002741 -0.001834
     9 H     0.001097 -0.000621  0.000037
    10 F    -0.014902 -0.000467 -0.010463
 ----------------------------------------
 Mulliken charges used for AMS results%charges...

 dE(predicted):    -0.28897E-03, dE(actual):    -0.48617E-03, Trust radius:    0.200000, all in a.u.
 
----------------------------------------------------------------------
Geometry Convergence after Step   2       (Hartree/Angstrom,Angstrom)
----------------------------------------------------------------------
current energy                               -2.78608130 Hartree
energy change                      -0.00048617     0.00001000    F
constrained gradient max            0.01490479     0.00010000    F
constrained gradient rms            0.00487116     0.00006667    F
gradient max                        0.01490479
gradient rms                        0.00487116
cart. step max                      0.01842183     0.00100000    F
cart. step rms                      0.00830525     0.00066667    F
 
 
--------
Geometry
--------
Formula: H4FO4Pa
Atoms
  Index Symbol   x (angstrom)   y (angstrom)   z (angstrom)
      1     Pa     0.31721372    -0.03937735     0.02311973       adf.R=2.200
      2      O     1.10559909     1.56510100    -1.07521826       adf.R=1.517
      3      H     1.52628665     2.07911678    -1.77413346       adf.R=1.350
      4      O    -1.40244994     1.09674060     0.51256134       adf.R=1.517
      5      H    -1.84107156     1.95149299     0.43488145       adf.R=1.350
      6      O     0.28846573    -1.23642900    -1.72074831       adf.R=1.517
      7      H     0.14131827    -2.09426855    -2.13412581       adf.R=1.350
      8      O    -0.38303710    -1.63856648     1.18443981       adf.R=1.517
      9      H    -0.87042597    -2.18151987     1.81450829       adf.R=1.350
     10      F     2.06362184     0.02291261     1.25829694       adf.R=1.425
 
Total System Charge             0.00000
Bonding info available!
 
 *** GO1_GOStep3 ***

 SOLVATION
-------------------------------------------

  The Delley construction of COSMO surface surface is calculated

       Division Level for Surface Triangles (NDIV)                  3
       Final Division Level for Triangles (NFDIV)                   1
       Radius of the Solvent (RSOL)                           1.93000 angstr
  Dielectric Constant (EPSL)                                 78.39000

       COSMO equation is solved iteratively-               conjugate-gradient

       Maximun of Iterations for Charges (NCIX)                  1000
       Criterion for Charge convergence (CCNV)                1.0E-08

  COSMO charges included variationally in SCF

       COSMO included at every SCF cycle

  Geometry-dependent empirical factor                         0.00000

  C-Matrix calculated in cspmtx

  In cspmtx, C-Matrix calculated using fitted potential

-------------------------------------------



 -------------------------------------------
  COSMO surface
  Area             =          485.938
  Volume           =          731.754
  Number of Points =         1256
 -------------------------------------------



 ======================
 RI Hartree-Fock Scheme
 ======================
  
 Fit Set Quality     : GOOD
 Threshold Quality   : GOOD
 Integration Quality : GOOD
 Response Quality    : DEFAULT
 Is Range Separated  :  F
 
 RIHartreeFock Dependency: number of modified vectors:           4
 cosmo_calcen: 0.5 (esolb+esolc) (Hartrees) =   -0.034518

 Solvation energy (screening term,uncorrected) =    -21.660469 kcal/mol

 Solvation energy (dispersion and cavitation terms) =      0.908667 kcal/mol
 Solvation Energy Contributions (Hartrees)
          esola   esolb+esolc
     0.03451815   -0.06903630
 esol last cycle   -0.03451815
  
 Hartree-Fock exchange energy:   -510.625357070991     
 cosmo_calcen: 0.5 (esolb+esolc) (Hartrees) =   -0.034518

 Solvation energy (screening term,uncorrected) =    -21.660472 kcal/mol

 Solvation energy (dispersion and cavitation terms) =      0.908667 kcal/mol
 Solvation Energy Contributions (Hartrees)
          esola   esolb+esolc
     0.03451816   -0.06903631
 esol last cycle   -0.03451816

 Energy gradients wrt nuclear displacements
 ==========================================

     Atom      Cartesian (a.u./angstrom)
                 X         Y         Z
 ----------------------------------------
     1 Pa    0.003600  0.000348  0.002661
     2 O    -0.000175 -0.000529 -0.001490
     3 H     0.001463  0.002425 -0.000693
     4 O     0.001534  0.001157 -0.000591
     5 H    -0.002731  0.000952  0.001075
     6 O    -0.000035 -0.001413  0.001455
     7 H     0.000132 -0.000920 -0.002887
     8 O    -0.001409  0.000192  0.000208
     9 H    -0.000132 -0.002224  0.001759
    10 F    -0.002247  0.000012 -0.001498
 ----------------------------------------
 Mulliken charges used for AMS results%charges...

 dE(predicted):    -0.35961E-03, dE(actual):    -0.46108E-03, Trust radius:    0.200000, all in a.u.
 
----------------------------------------------------------------------
Geometry Convergence after Step   3       (Hartree/Angstrom,Angstrom)
----------------------------------------------------------------------
current energy                               -2.78654238 Hartree
energy change                      -0.00046108     0.00001000    F
constrained gradient max            0.00360039     0.00010000    F
constrained gradient rms            0.00158620     0.00006667    F
gradient max                        0.00360039
gradient rms                        0.00158620
cart. step max                      0.01018392     0.00100000    F
cart. step rms                      0.00459742     0.00066667    F
 
 
--------
Geometry
--------
Formula: H4FO4Pa
Atoms
  Index Symbol   x (angstrom)   y (angstrom)   z (angstrom)
      1     Pa     0.31576885    -0.03886744     0.02300110       adf.R=2.200
      2      O     1.10493157     1.56860128    -1.06993552       adf.R=1.517
      3      H     1.52468301     2.07541082    -1.77404046       adf.R=1.350
      4      O    -1.40872531     1.09063506     0.51155713       adf.R=1.517
      5      H    -1.83482932     1.95051284     0.42469753       adf.R=1.350
      6      O     0.28519479    -1.22920209    -1.72513368       adf.R=1.517
      7      H     0.13480408    -2.09257396    -2.12495693       adf.R=1.350
      8      O    -0.37836041    -1.64186240     1.18231057       adf.R=1.517
      9      H    -0.86996548    -2.17997738     1.81253554       adf.R=1.350
     10      F     2.07201896     0.02252600     1.26354644       adf.R=1.425
 
Total System Charge             0.00000
Bonding info available!
 
 *** GO1_GOStep4 ***

 SOLVATION
-------------------------------------------

  The Delley construction of COSMO surface surface is calculated

       Division Level for Surface Triangles (NDIV)                  3
       Final Division Level for Triangles (NFDIV)                   1
       Radius of the Solvent (RSOL)                           1.93000 angstr
  Dielectric Constant (EPSL)                                 78.39000

       COSMO equation is solved iteratively-               conjugate-gradient

       Maximun of Iterations for Charges (NCIX)                  1000
       Criterion for Charge convergence (CCNV)                1.0E-08

  COSMO charges included variationally in SCF

       COSMO included at every SCF cycle

  Geometry-dependent empirical factor                         0.00000

  C-Matrix calculated in cspmtx

  In cspmtx, C-Matrix calculated using fitted potential

-------------------------------------------



 -------------------------------------------
  COSMO surface
  Area             =          486.206
  Volume           =          732.744
  Number of Points =         1257
 -------------------------------------------



 ======================
 RI Hartree-Fock Scheme
 ======================
  
 Fit Set Quality     : GOOD
 Threshold Quality   : GOOD
 Integration Quality : GOOD
 Response Quality    : DEFAULT
 Is Range Separated  :  F
 
 RIHartreeFock Dependency: number of modified vectors:           4
 cosmo_calcen: 0.5 (esolb+esolc) (Hartrees) =   -0.035103

 Solvation energy (screening term,uncorrected) =    -22.027762 kcal/mol

 Solvation energy (dispersion and cavitation terms) =      0.909168 kcal/mol
 Solvation Energy Contributions (Hartrees)
          esola   esolb+esolc
     0.03510347   -0.07020694
 esol last cycle   -0.03510347
  
 Hartree-Fock exchange energy:   -510.624062038012     
 cosmo_calcen: 0.5 (esolb+esolc) (Hartrees) =   -0.035104

 Solvation energy (screening term,uncorrected) =    -22.027783 kcal/mol

 Solvation energy (dispersion and cavitation terms) =      0.909168 kcal/mol
 Solvation Energy Contributions (Hartrees)
          esola   esolb+esolc
     0.03510350   -0.07020700
 esol last cycle   -0.03510350

 Energy gradients wrt nuclear displacements
 ==========================================

     Atom      Cartesian (a.u./angstrom)
                 X         Y         Z
 ----------------------------------------
     1 Pa   -0.000864  0.000325 -0.000567
     2 O     0.000573  0.000234 -0.002374
     3 H     0.001052  0.001912  0.000036
     4 O     0.001008  0.001659 -0.000514
     5 H    -0.002268  0.000327  0.001071
     6 O    -0.000096 -0.001971  0.001018
     7 H     0.000253 -0.000278 -0.002462
     8 O    -0.001941 -0.000702  0.001234
     9 H     0.000385 -0.001658  0.001123
    10 F     0.001898  0.000153  0.001435
 ----------------------------------------
 Mulliken charges used for AMS results%charges...

 dE(predicted):    -0.78610E-04, dE(actual):    -0.12538E-03, Trust radius:    0.200000, all in a.u.
 
----------------------------------------------------------------------
Geometry Convergence after Step   4       (Hartree/Angstrom,Angstrom)
----------------------------------------------------------------------
current energy                               -2.78666776 Hartree
energy change                      -0.00012538     0.00001000    F
constrained gradient max            0.00247826     0.00010000    F
constrained gradient rms            0.00127988     0.00006667    F
gradient max                        0.00247826
gradient rms                        0.00127988
cart. step max                      0.02902679     0.00100000    F
cart. step rms                      0.01211659     0.00066667    F
 
 
--------
Geometry
--------
Formula: H4FO4Pa
Atoms
  Index Symbol   x (angstrom)   y (angstrom)   z (angstrom)
      1     Pa     0.31728536    -0.03795327     0.02620673       adf.R=2.200
      2      O     1.09811784     1.57708434    -1.05613556       adf.R=1.517
      3      H     1.51021373     2.06587140    -1.77616731       adf.R=1.350
      4      O    -1.41758672     1.07584582     0.50997540       adf.R=1.517
      5      H    -1.81137763     1.94773761     0.39939978       adf.R=1.350
      6      O     0.28056309    -1.21119847    -1.73102275       adf.R=1.517
      7      H     0.12176206    -2.08782622    -2.09593015       adf.R=1.350
      8      O    -0.36830066    -1.64973506     1.17303379       adf.R=1.517
      9      H    -0.87488161    -2.17563653     1.80032301       adf.R=1.350
     10      F     2.08972528     0.02101311     1.27389878       adf.R=1.425
 
Total System Charge             0.00000
Bonding info available!
 
 *** GO1_GOStep5 ***

 SOLVATION
-------------------------------------------

  The Delley construction of COSMO surface surface is calculated

       Division Level for Surface Triangles (NDIV)                  3
       Final Division Level for Triangles (NFDIV)                   1
       Radius of the Solvent (RSOL)                           1.93000 angstr
  Dielectric Constant (EPSL)                                 78.39000

       COSMO equation is solved iteratively-               conjugate-gradient

       Maximun of Iterations for Charges (NCIX)                  1000
       Criterion for Charge convergence (CCNV)                1.0E-08

  COSMO charges included variationally in SCF

       COSMO included at every SCF cycle

  Geometry-dependent empirical factor                         0.00000

  C-Matrix calculated in cspmtx

  In cspmtx, C-Matrix calculated using fitted potential

-------------------------------------------



 -------------------------------------------
  COSMO surface
  Area             =          486.149
  Volume           =          734.323
  Number of Points =         1255
 -------------------------------------------



 ======================
 RI Hartree-Fock Scheme
 ======================
  
 Fit Set Quality     : GOOD
 Threshold Quality   : GOOD
 Integration Quality : GOOD
 Response Quality    : DEFAULT
 Is Range Separated  :  F
 
 RIHartreeFock Dependency: number of modified vectors:           4
 cosmo_calcen: 0.5 (esolb+esolc) (Hartrees) =   -0.036142

 Solvation energy (screening term,uncorrected) =    -22.679147 kcal/mol

 Solvation energy (dispersion and cavitation terms) =      0.909062 kcal/mol
 Solvation Energy Contributions (Hartrees)
          esola   esolb+esolc
     0.03614152   -0.07228303
 esol last cycle   -0.03614152
  
 Hartree-Fock exchange energy:   -510.626890554195     
 cosmo_calcen: 0.5 (esolb+esolc) (Hartrees) =   -0.036142

 Solvation energy (screening term,uncorrected) =    -22.679159 kcal/mol

 Solvation energy (dispersion and cavitation terms) =      0.909062 kcal/mol
 Solvation Energy Contributions (Hartrees)
          esola   esolb+esolc
     0.03614154   -0.07228307
 esol last cycle   -0.03614154

 Energy gradients wrt nuclear displacements
 ==========================================

     Atom      Cartesian (a.u./angstrom)
                 X         Y         Z
 ----------------------------------------
     1 Pa   -0.008095  0.000023 -0.005907
     2 O     0.000892  0.000083 -0.002948
     3 H     0.000216  0.000835  0.001505
     4 O     0.001503  0.001849 -0.000838
     5 H    -0.001201 -0.000983  0.001022
     6 O    -0.000202 -0.001864  0.001872
     7 H     0.000458  0.001004 -0.001492
     8 O    -0.002342 -0.000783  0.001724
     9 H     0.001447 -0.000486 -0.000151
    10 F     0.007323  0.000323  0.005213
 ----------------------------------------
 Mulliken charges used for AMS results%charges...

 dE(predicted):    -0.14902E-03, dE(actual):    -0.20781E-03, Trust radius:    0.200000, all in a.u.
 
----------------------------------------------------------------------
Geometry Convergence after Step   5       (Hartree/Angstrom,Angstrom)
----------------------------------------------------------------------
current energy                               -2.78687557 Hartree
energy change                      -0.00020781     0.00001000    F
constrained gradient max            0.00809555     0.00010000    F
constrained gradient rms            0.00274188     0.00006667    F
gradient max                        0.00809555
gradient rms                        0.00274188
cart. step max                      0.03782763     0.00100000    F
cart. step rms                      0.01518368     0.00066667    F
 
 
--------
Geometry
--------
Formula: H4FO4Pa
Atoms
  Index Symbol   x (angstrom)   y (angstrom)   z (angstrom)
      1     Pa     0.32402980    -0.03694059     0.03295997       adf.R=2.200
      2      O     1.08797127     1.58759365    -1.03996749       adf.R=1.517
      3      H     1.48564603     2.05468684    -1.78177927       adf.R=1.350
      4      O    -1.42342610     1.05859911     0.50935502       adf.R=1.517
      5      H    -1.77893270     1.94283819     0.37107751       adf.R=1.350
      6      O     0.27803782    -1.19054075    -1.73500904       adf.R=1.517
      7      H     0.10931806    -2.08145182    -2.05810251       adf.R=1.350
      8      O    -0.35780821    -1.65862387     1.16049768       adf.R=1.517
      9      H    -0.88673524    -2.16956203     1.78110453       adf.R=1.350
     10      F     2.10742000     0.01860401     1.28344531       adf.R=1.425
 
Total System Charge             0.00000
Bonding info available!
 
 *** GO1_GOStep6 ***

 SOLVATION
-------------------------------------------

  The Delley construction of COSMO surface surface is calculated

       Division Level for Surface Triangles (NDIV)                  3
       Final Division Level for Triangles (NFDIV)                   1
       Radius of the Solvent (RSOL)                           1.93000 angstr
  Dielectric Constant (EPSL)                                 78.39000

       COSMO equation is solved iteratively-               conjugate-gradient

       Maximun of Iterations for Charges (NCIX)                  1000
       Criterion for Charge convergence (CCNV)                1.0E-08

  COSMO charges included variationally in SCF

       COSMO included at every SCF cycle

  Geometry-dependent empirical factor                         0.00000

  C-Matrix calculated in cspmtx

  In cspmtx, C-Matrix calculated using fitted potential

-------------------------------------------



 -------------------------------------------
  COSMO surface
  Area             =          485.919
  Volume           =          736.150
  Number of Points =         1238
 -------------------------------------------



 ======================
 RI Hartree-Fock Scheme
 ======================
  
 Fit Set Quality     : GOOD
 Threshold Quality   : GOOD
 Integration Quality : GOOD
 Response Quality    : DEFAULT
 Is Range Separated  :  F
 
 RIHartreeFock Dependency: number of modified vectors:           4
 cosmo_calcen: 0.5 (esolb+esolc) (Hartrees) =   -0.036994

 Solvation energy (screening term,uncorrected) =    -23.213983 kcal/mol

 Solvation energy (dispersion and cavitation terms) =      0.908631 kcal/mol
 Solvation Energy Contributions (Hartrees)
          esola   esolb+esolc
     0.03699383   -0.07398767
 esol last cycle   -0.03699383
  
 Hartree-Fock exchange energy:   -510.632037882535     
 cosmo_calcen: 0.5 (esolb+esolc) (Hartrees) =   -0.036994

 Solvation energy (screening term,uncorrected) =    -23.213997 kcal/mol

 Solvation energy (dispersion and cavitation terms) =      0.908631 kcal/mol
 Solvation Energy Contributions (Hartrees)
          esola   esolb+esolc
     0.03699386   -0.07398771
 esol last cycle   -0.03699386

 Energy gradients wrt nuclear displacements
 ==========================================

     Atom      Cartesian (a.u./angstrom)
                 X         Y         Z
 ----------------------------------------
     1 Pa   -0.012782 -0.000221 -0.009455
     2 O     0.000085 -0.001423 -0.002136
     3 H    -0.000145  0.000229  0.002262
     4 O     0.003000  0.000581 -0.001362
     5 H    -0.000401 -0.001385  0.000849
     6 O    -0.000243 -0.000323  0.003749
     7 H     0.000506  0.001359 -0.000821
     8 O    -0.001932  0.000610  0.000745
     9 H     0.002040  0.000190 -0.000805
    10 F     0.009872  0.000384  0.006974
 ----------------------------------------
 Mulliken charges used for AMS results%charges...

 dE(predicted):    -0.12811E-03, dE(actual):    -0.64608E-04, Trust radius:    0.200000, all in a.u.
 
----------------------------------------------------------------------
Geometry Convergence after Step   6       (Hartree/Angstrom,Angstrom)
----------------------------------------------------------------------
current energy                               -2.78694018 Hartree
energy change                      -0.00006461     0.00001000    F
constrained gradient max            0.01278195     0.00010000    F
constrained gradient rms            0.00387869     0.00006667    F
gradient max                        0.01278195
gradient rms                        0.00387869
cart. step max                      0.04853025     0.00100000    F
cart. step rms                      0.01952654     0.00066667    F
 
 
--------
Geometry
--------
Formula: H4FO4Pa
Atoms
  Index Symbol   x (angstrom)   y (angstrom)   z (angstrom)
      1     Pa     0.33760755    -0.03558664     0.04443988       adf.R=2.200
      2      O     1.07526345     1.60116577    -1.02134365       adf.R=1.517
      3      H     1.44801123     2.04029344    -1.79283816       adf.R=1.350
      4      O    -1.42652868     1.03862983     0.51101723       adf.R=1.517
      5      H    -1.73622850     1.93444711     0.33964267       adf.R=1.350
      6      O     0.27866425    -1.16658174    -1.73780930       adf.R=1.517
      7      H     0.09820441    -2.07217712    -2.00957227       adf.R=1.350
      8      O    -0.34676383    -1.66929857     1.14506704       adf.R=1.517
      9      H    -0.90839238    -2.16064529     1.75286733       adf.R=1.350
     10      F     2.12568324     0.01495594     1.29211094       adf.R=1.425
 
Total System Charge             0.00000
Bonding info available!
 
 *** GO1_GOStep7 ***

 SOLVATION
-------------------------------------------

  The Delley construction of COSMO surface surface is calculated

       Division Level for Surface Triangles (NDIV)                  3
       Final Division Level for Triangles (NFDIV)                   1
       Radius of the Solvent (RSOL)                           1.93000 angstr
  Dielectric Constant (EPSL)                                 78.39000

       COSMO equation is solved iteratively-               conjugate-gradient

       Maximun of Iterations for Charges (NCIX)                  1000
       Criterion for Charge convergence (CCNV)                1.0E-08

  COSMO charges included variationally in SCF

       COSMO included at every SCF cycle

  Geometry-dependent empirical factor                         0.00000

  C-Matrix calculated in cspmtx

  In cspmtx, C-Matrix calculated using fitted potential

-------------------------------------------



 -------------------------------------------
  COSMO surface
  Area             =          483.461
  Volume           =          735.212
  Number of Points =         1235
 -------------------------------------------



 ======================
 RI Hartree-Fock Scheme
 ======================
  
 Fit Set Quality     : GOOD
 Threshold Quality   : GOOD
 Integration Quality : GOOD
 Response Quality    : DEFAULT
 Is Range Separated  :  F
 
 RIHartreeFock Dependency: number of modified vectors:           4
 cosmo_calcen: 0.5 (esolb+esolc) (Hartrees) =   -0.037655

 Solvation energy (screening term,uncorrected) =    -23.628953 kcal/mol

 Solvation energy (dispersion and cavitation terms) =      0.904034 kcal/mol
 Solvation Energy Contributions (Hartrees)
          esola   esolb+esolc
     0.03765513   -0.07531026
 esol last cycle   -0.03765513
  
 Hartree-Fock exchange energy:   -510.638764887000     
 cosmo_calcen: 0.5 (esolb+esolc) (Hartrees) =   -0.037655

 Solvation energy (screening term,uncorrected) =    -23.628964 kcal/mol

 Solvation energy (dispersion and cavitation terms) =      0.904034 kcal/mol
 Solvation Energy Contributions (Hartrees)
          esola   esolb+esolc
     0.03765515   -0.07531029
 esol last cycle   -0.03765515

 Energy gradients wrt nuclear displacements
 ==========================================

     Atom      Cartesian (a.u./angstrom)
                 X         Y         Z
 ----------------------------------------
     1 Pa   -0.014274 -0.000298 -0.010936
     2 O    -0.001564 -0.003768 -0.000424
     3 H    -0.000157 -0.000010  0.002353
     4 O     0.004566 -0.000793 -0.001858
     5 H     0.000483 -0.001825  0.000612
     6 O    -0.000400  0.000777  0.005469
     7 H     0.000612  0.002219  0.000106
     8 O    -0.001007  0.002947 -0.001239
     9 H     0.002137  0.000420 -0.000849
    10 F     0.009605  0.000330  0.006766
 ----------------------------------------
 Mulliken charges used for AMS results%charges...

 dE(predicted):    -0.14963E-03, dE(actual):    -0.28743E-03, Trust radius:    0.400000, all in a.u.
 
----------------------------------------------------------------------
Geometry Convergence after Step   7       (Hartree/Angstrom,Angstrom)
----------------------------------------------------------------------
current energy                               -2.78722761 Hartree
energy change                      -0.00028743     0.00001000    F
constrained gradient max            0.01427559     0.00010000    F
constrained gradient rms            0.00434166     0.00006667    F
gradient max                        0.01427559
gradient rms                        0.00434166
cart. step max                      0.05320624     0.00100000    F
cart. step rms                      0.02189749     0.00066667    F
 
 
--------
Geometry
--------
Formula: H4FO4Pa
Atoms
  Index Symbol   x (angstrom)   y (angstrom)   z (angstrom)
      1     Pa     0.35703512    -0.03361373     0.06018086       adf.R=2.200
      2      O     1.06452556     1.61707266    -1.00213560       adf.R=1.517
      3      H     1.40110001     2.02248586    -1.80870496       adf.R=1.350
      4      O    -1.42793362     1.01899812     0.51574938       adf.R=1.517
      5      H    -1.68981022     1.92363239     0.30937902       adf.R=1.350
      6      O     0.28268750    -1.14210111    -1.74027524       adf.R=1.517
      7      H     0.08987043    -2.06108130    -1.95636602       adf.R=1.350
      8      O    -0.33514169    -1.68145455     1.13023039       adf.R=1.517
      9      H    -0.93779019    -2.14943421     1.71779252       adf.R=1.350
     10      F     2.14097785     0.01069860     1.29773137       adf.R=1.425
 
Total System Charge             0.00000
Bonding info available!
 
 *** GO1_GOStep8 ***

 SOLVATION
-------------------------------------------

  The Delley construction of COSMO surface surface is calculated

       Division Level for Surface Triangles (NDIV)                  3
       Final Division Level for Triangles (NFDIV)                   1
       Radius of the Solvent (RSOL)                           1.93000 angstr
  Dielectric Constant (EPSL)                                 78.39000

       COSMO equation is solved iteratively-               conjugate-gradient

       Maximun of Iterations for Charges (NCIX)                  1000
       Criterion for Charge convergence (CCNV)                1.0E-08

  COSMO charges included variationally in SCF

       COSMO included at every SCF cycle

  Geometry-dependent empirical factor                         0.00000

  C-Matrix calculated in cspmtx

  In cspmtx, C-Matrix calculated using fitted potential

-------------------------------------------



 -------------------------------------------
  COSMO surface
  Area             =          481.631
  Volume           =          735.917
  Number of Points =         1229
 -------------------------------------------



 ======================
 RI Hartree-Fock Scheme
 ======================
  
 Fit Set Quality     : GOOD
 Threshold Quality   : GOOD
 Integration Quality : GOOD
 Response Quality    : DEFAULT
 Is Range Separated  :  F
 
 RIHartreeFock Dependency: number of modified vectors:           4
 cosmo_calcen: 0.5 (esolb+esolc) (Hartrees) =   -0.038031

 Solvation energy (screening term,uncorrected) =    -23.864823 kcal/mol

 Solvation energy (dispersion and cavitation terms) =      0.900613 kcal/mol
 Solvation Energy Contributions (Hartrees)
          esola   esolb+esolc
     0.03803101   -0.07606203
 esol last cycle   -0.03803101
  
 Hartree-Fock exchange energy:   -510.642846647688     
 cosmo_calcen: 0.5 (esolb+esolc) (Hartrees) =   -0.038031

 Solvation energy (screening term,uncorrected) =    -23.864832 kcal/mol

 Solvation energy (dispersion and cavitation terms) =      0.900613 kcal/mol
 Solvation Energy Contributions (Hartrees)
          esola   esolb+esolc
     0.03803103   -0.07606205
 esol last cycle   -0.03803103

 Energy gradients wrt nuclear displacements
 ==========================================

     Atom      Cartesian (a.u./angstrom)
                 X         Y         Z
 ----------------------------------------
     1 Pa   -0.010730 -0.000092 -0.008646
     2 O    -0.003034 -0.005540  0.001248
     3 H     0.000101  0.000011  0.001774
     4 O     0.004799 -0.002596 -0.001626
     5 H     0.001134 -0.000963  0.000039
     6 O    -0.000366  0.002719  0.005953
     7 H     0.000338  0.001126  0.000602
     8 O     0.000032  0.004906 -0.003249
     9 H     0.001704  0.000239 -0.000364
    10 F     0.006022  0.000192  0.004269
 ----------------------------------------
 Mulliken charges used for AMS results%charges...

 dE(predicted):    -0.18471E-03, dE(actual):    -0.19280E-03, Trust radius:    0.400000, all in a.u.
 
----------------------------------------------------------------------
Geometry Convergence after Step   8       (Hartree/Angstrom,Angstrom)
----------------------------------------------------------------------
current energy                               -2.78742041 Hartree
energy change                      -0.00019280     0.00001000    F
constrained gradient max            0.01073281     0.00010000    F
constrained gradient rms            0.00367901     0.00006667    F
gradient max                        0.01073281
gradient rms                        0.00367901
cart. step max                      0.02518992     0.00100000    F
cart. step rms                      0.01057687     0.00066667    F
 
 
--------
Geometry
--------
Formula: H4FO4Pa
Atoms
  Index Symbol   x (angstrom)   y (angstrom)   z (angstrom)
      1     Pa     0.37112657    -0.03264366     0.07071133       adf.R=2.200
      2      O     1.06459100     1.62684815    -0.99358079       adf.R=1.517
      3      H     1.37591008     2.01231286    -1.82076456       adf.R=1.350
      4      O    -1.42743111     1.01163261     0.52217468       adf.R=1.517
      5      H    -1.67302506     1.91781465     0.29974241       adf.R=1.350
      6      O     0.28946787    -1.13244856    -1.74285084       adf.R=1.517
      7      H     0.08930121    -2.05589115    -1.93522902       adf.R=1.350
      8      O    -0.32942377    -1.68840929     1.12768799       adf.R=1.517
      9      H    -0.95797542    -2.14171191     1.70062466       adf.R=1.350
     10      F     2.14297936     0.00769903     1.29506585       adf.R=1.425
 
Total System Charge             0.00000
Bonding info available!
 
 *** GO1_GOStep9 ***

 SOLVATION
-------------------------------------------

  The Delley construction of COSMO surface surface is calculated

       Division Level for Surface Triangles (NDIV)                  3
       Final Division Level for Triangles (NFDIV)                   1
       Radius of the Solvent (RSOL)                           1.93000 angstr
  Dielectric Constant (EPSL)                                 78.39000

       COSMO equation is solved iteratively-               conjugate-gradient

       Maximun of Iterations for Charges (NCIX)                  1000
       Criterion for Charge convergence (CCNV)                1.0E-08

  COSMO charges included variationally in SCF

       COSMO included at every SCF cycle

  Geometry-dependent empirical factor                         0.00000

  C-Matrix calculated in cspmtx

  In cspmtx, C-Matrix calculated using fitted potential

-------------------------------------------



 -------------------------------------------
  COSMO surface
  Area             =          480.769
  Volume           =          736.280
  Number of Points =         1223
 -------------------------------------------



 ======================
 RI Hartree-Fock Scheme
 ======================
  
 Fit Set Quality     : GOOD
 Threshold Quality   : GOOD
 Integration Quality : GOOD
 Response Quality    : DEFAULT
 Is Range Separated  :  F
 
 RIHartreeFock Dependency: number of modified vectors:           4
 cosmo_calcen: 0.5 (esolb+esolc) (Hartrees) =   -0.037812

 Solvation energy (screening term,uncorrected) =    -23.727280 kcal/mol

 Solvation energy (dispersion and cavitation terms) =      0.899000 kcal/mol
 Solvation Energy Contributions (Hartrees)
          esola   esolb+esolc
     0.03781182   -0.07562365
 esol last cycle   -0.03781182
  
 Hartree-Fock exchange energy:   -510.640848161631     
 cosmo_calcen: 0.5 (esolb+esolc) (Hartrees) =   -0.037812

 Solvation energy (screening term,uncorrected) =    -23.727295 kcal/mol

 Solvation energy (dispersion and cavitation terms) =      0.899000 kcal/mol
 Solvation Energy Contributions (Hartrees)
          esola   esolb+esolc
     0.03781185   -0.07562370
 esol last cycle   -0.03781185

 Energy gradients wrt nuclear displacements
 ==========================================

     Atom      Cartesian (a.u./angstrom)
                 X         Y         Z
 ----------------------------------------
     1 Pa   -0.002350  0.000033 -0.002650
     2 O    -0.003246 -0.004883  0.001619
     3 H     0.000547  0.000463  0.000643
     4 O     0.002759 -0.002643 -0.000823
     5 H     0.001078  0.000088 -0.000344
     6 O    -0.000373  0.002555  0.003713
     7 H     0.000080  0.000051  0.000611
     8 O     0.000155  0.004535 -0.003500
     9 H     0.000943 -0.000300  0.000387
    10 F     0.000408  0.000100  0.000344
 ----------------------------------------
 Mulliken charges used for AMS results%charges...

 dE(predicted):    -0.15175E-03, dE(actual):    -0.16189E-03, Trust radius:    0.400000, all in a.u.
 
----------------------------------------------------------------------
Geometry Convergence after Step   9       (Hartree/Angstrom,Angstrom)
----------------------------------------------------------------------
current energy                               -2.78758230 Hartree
energy change                      -0.00016189     0.00001000    F
constrained gradient max            0.00487153     0.00010000    F
constrained gradient rms            0.00201754     0.00006667    F
gradient max                        0.00487153
gradient rms                        0.00201754
cart. step max                      0.00794964     0.00100000    F
cart. step rms                      0.00393500     0.00066667    F
 
 
--------
Geometry
--------
Formula: H4FO4Pa
Atoms
  Index Symbol   x (angstrom)   y (angstrom)   z (angstrom)
      1     Pa     0.37508508    -0.03193448     0.07396520       adf.R=2.200
      2      O     1.07254064     1.63133201    -0.99150305       adf.R=1.517
      3      H     1.37249537     2.00705979    -1.82774825       adf.R=1.350
      4      O    -1.43005576     1.01149030     0.52724689       adf.R=1.517
      5      H    -1.67832106     1.91641137     0.30153466       adf.R=1.350
      6      O     0.29395379    -1.13075227    -1.74721968       adf.R=1.517
      7      H     0.09053272    -2.05443945    -1.93659816       adf.R=1.350
      8      O    -0.32560257    -1.69184878     1.13303720       adf.R=1.517
      9      H    -0.96550426    -2.13815890     1.69949144       adf.R=1.350
     10      F     2.14039679     0.00604316     1.29137545       adf.R=1.425
 
Total System Charge             0.00000
Bonding info available!
 
 *** GO1_GOStep10 ***

 SOLVATION
-------------------------------------------

  The Delley construction of COSMO surface surface is calculated

       Division Level for Surface Triangles (NDIV)                  3
       Final Division Level for Triangles (NFDIV)                   1
       Radius of the Solvent (RSOL)                           1.93000 angstr
  Dielectric Constant (EPSL)                                 78.39000

       COSMO equation is solved iteratively-               conjugate-gradient

       Maximun of Iterations for Charges (NCIX)                  1000
       Criterion for Charge convergence (CCNV)                1.0E-08

  COSMO charges included variationally in SCF

       COSMO included at every SCF cycle

  Geometry-dependent empirical factor                         0.00000

  C-Matrix calculated in cspmtx

  In cspmtx, C-Matrix calculated using fitted potential

-------------------------------------------



 -------------------------------------------
  COSMO surface
  Area             =          480.955
  Volume           =          736.991
  Number of Points =         1220
 -------------------------------------------



 ======================
 RI Hartree-Fock Scheme
 ======================
  
 Fit Set Quality     : GOOD
 Threshold Quality   : GOOD
 Integration Quality : GOOD
 Response Quality    : DEFAULT
 Is Range Separated  :  F
 
 RIHartreeFock Dependency: number of modified vectors:           4
 cosmo_calcen: 0.5 (esolb+esolc) (Hartrees) =   -0.037716

 Solvation energy (screening term,uncorrected) =    -23.666957 kcal/mol

 Solvation energy (dispersion and cavitation terms) =      0.899349 kcal/mol
 Solvation Energy Contributions (Hartrees)
          esola   esolb+esolc
     0.03771569   -0.07543139
 esol last cycle   -0.03771569
  
 Hartree-Fock exchange energy:   -510.635003343339     
 cosmo_calcen: 0.5 (esolb+esolc) (Hartrees) =   -0.037716

 Solvation energy (screening term,uncorrected) =    -23.666962 kcal/mol

 Solvation energy (dispersion and cavitation terms) =      0.899349 kcal/mol
 Solvation Energy Contributions (Hartrees)
          esola   esolb+esolc
     0.03771570   -0.07543140
 esol last cycle   -0.03771570

 Energy gradients wrt nuclear displacements
 ==========================================

     Atom      Cartesian (a.u./angstrom)
                 X         Y         Z
 ----------------------------------------
     1 Pa    0.003347  0.000203  0.001687
     2 O    -0.002210 -0.002663  0.000445
     3 H     0.000765  0.000803  0.000061
     4 O    -0.000125 -0.001352  0.000071
     5 H     0.000790  0.000548 -0.000421
     6 O    -0.000339  0.001157  0.000599
     7 H    -0.000048 -0.000482  0.000387
     8 O    -0.000532  0.002501 -0.002157
     9 H     0.000517 -0.000718  0.000809
    10 F    -0.002166  0.000004 -0.001482
 ----------------------------------------
 Mulliken charges used for AMS results%charges...

 dE(predicted):    -0.73753E-04, dE(actual):    -0.92629E-04, Trust radius:    0.400000, all in a.u.
 
----------------------------------------------------------------------
Geometry Convergence after Step  10       (Hartree/Angstrom,Angstrom)
----------------------------------------------------------------------
current energy                               -2.78767493 Hartree
energy change                      -0.00009263     0.00001000    F
constrained gradient max            0.00334288     0.00010000    F
constrained gradient rms            0.00131829     0.00006667    F
gradient max                        0.00334288
gradient rms                        0.00131829
cart. step max                      0.00777589     0.00100000    F
cart. step rms                      0.00322662     0.00066667    F
 
 
--------
Geometry
--------
Formula: H4FO4Pa
Atoms
  Index Symbol   x (angstrom)   y (angstrom)   z (angstrom)
      1     Pa     0.37512881    -0.03127250     0.07461267       adf.R=2.200
      2      O     1.08031653     1.63424437    -0.98870352       adf.R=1.517
      3      H     1.37075120     2.00100926    -1.83227680       adf.R=1.350
      4      O    -1.43380310     1.01077200     0.53016363       adf.R=1.517
      5      H    -1.68353175     1.91470492     0.30205452       adf.R=1.350
      6      O     0.29587348    -1.12825789    -1.75148677       adf.R=1.517
      7      H     0.09011916    -2.05215109    -1.93757303       adf.R=1.350
      8      O    -0.32072422    -1.69444415     1.13759488       adf.R=1.517
      9      H    -0.96981378    -2.13445604     1.69851150       adf.R=1.350
     10      F     2.14120442     0.00505383     1.29068464       adf.R=1.425
 
Total System Charge             0.00000
Bonding info available!
 
 *** GO1_GOStep11 ***

 SOLVATION
-------------------------------------------

  The Delley construction of COSMO surface surface is calculated

       Division Level for Surface Triangles (NDIV)                  3
       Final Division Level for Triangles (NFDIV)                   1
       Radius of the Solvent (RSOL)                           1.93000 angstr
  Dielectric Constant (EPSL)                                 78.39000

       COSMO equation is solved iteratively-               conjugate-gradient

       Maximun of Iterations for Charges (NCIX)                  1000
       Criterion for Charge convergence (CCNV)                1.0E-08

  COSMO charges included variationally in SCF

       COSMO included at every SCF cycle

  Geometry-dependent empirical factor                         0.00000

  C-Matrix calculated in cspmtx

  In cspmtx, C-Matrix calculated using fitted potential

-------------------------------------------



 -------------------------------------------
  COSMO surface
  Area             =          481.223
  Volume           =          737.755
  Number of Points =         1220
 -------------------------------------------



 ======================
 RI Hartree-Fock Scheme
 ======================
  
 Fit Set Quality     : GOOD
 Threshold Quality   : GOOD
 Integration Quality : GOOD
 Response Quality    : DEFAULT
 Is Range Separated  :  F
 
 RIHartreeFock Dependency: number of modified vectors:           4
 cosmo_calcen: 0.5 (esolb+esolc) (Hartrees) =   -0.037938

 Solvation energy (screening term,uncorrected) =    -23.806454 kcal/mol

 Solvation energy (dispersion and cavitation terms) =      0.899849 kcal/mol
 Solvation Energy Contributions (Hartrees)
          esola   esolb+esolc
     0.03793800   -0.07587599
 esol last cycle   -0.03793800
  
 Hartree-Fock exchange energy:   -510.630586059324     
 cosmo_calcen: 0.5 (esolb+esolc) (Hartrees) =   -0.037938

 Solvation energy (screening term,uncorrected) =    -23.806460 kcal/mol

 Solvation energy (dispersion and cavitation terms) =      0.899849 kcal/mol
 Solvation Energy Contributions (Hartrees)
          esola   esolb+esolc
     0.03793800   -0.07587601
 esol last cycle   -0.03793800

 Energy gradients wrt nuclear displacements
 ==========================================

     Atom      Cartesian (a.u./angstrom)
                 X         Y         Z
 ----------------------------------------
     1 Pa    0.004362  0.000193  0.002495
     2 O    -0.001131 -0.000907 -0.000748
     3 H     0.000758  0.000823  0.000120
     4 O    -0.002131 -0.000258  0.000689
     5 H     0.000766  0.000512 -0.000420
     6 O    -0.000320  0.000040 -0.001471
     7 H    -0.000058 -0.000474  0.000407
     8 O    -0.001246  0.000800 -0.000778
     9 H     0.000582 -0.000754  0.000798
    10 F    -0.001581  0.000024 -0.001092
 ----------------------------------------
 Mulliken charges used for AMS results%charges...

 dE(predicted):    -0.29676E-04, dE(actual):    -0.46393E-04, Trust radius:    0.400000, all in a.u.
 
----------------------------------------------------------------------
Geometry Convergence after Step  11       (Hartree/Angstrom,Angstrom)
----------------------------------------------------------------------
current energy                               -2.78772132 Hartree
energy change                      -0.00004639     0.00001000    F
constrained gradient max            0.00435747     0.00010000    F
constrained gradient rms            0.00123826     0.00006667    F
gradient max                        0.00435747
gradient rms                        0.00123826
cart. step max                      0.01061561     0.00100000    F
cart. step rms                      0.00478902     0.00066667    F
 
 
--------
Geometry
--------
Formula: H4FO4Pa
Atoms
  Index Symbol   x (angstrom)   y (angstrom)   z (angstrom)
      1     Pa     0.37528086    -0.03031938     0.07569391       adf.R=2.200
      2      O     1.08999160     1.63701312    -0.98437472       adf.R=1.517
      3      H     1.36364206     1.99039365    -1.83909703       adf.R=1.350
      4      O    -1.43631490     1.01004469     0.53411264       adf.R=1.517
      5      H    -1.68981529     1.91219002     0.30349964       adf.R=1.350
      6      O     0.29960310    -1.12452779    -1.75494503       adf.R=1.517
      7      H     0.09050736    -2.04828134    -1.93775092       adf.R=1.350
      8      O    -0.31363202    -1.69721561     1.14250414       adf.R=1.517
      9      H    -0.97772907    -2.12774387     1.69291700       adf.R=1.350
     10      F     2.14398704     0.00364923     1.29102209       adf.R=1.425
 
Total System Charge             0.00000
Bonding info available!
 
 *** GO1_GOStep12 ***

 SOLVATION
-------------------------------------------

  The Delley construction of COSMO surface surface is calculated

       Division Level for Surface Triangles (NDIV)                  3
       Final Division Level for Triangles (NFDIV)                   1
       Radius of the Solvent (RSOL)                           1.93000 angstr
  Dielectric Constant (EPSL)                                 78.39000

       COSMO equation is solved iteratively-               conjugate-gradient

       Maximun of Iterations for Charges (NCIX)                  1000
       Criterion for Charge convergence (CCNV)                1.0E-08

  COSMO charges included variationally in SCF

       COSMO included at every SCF cycle

  Geometry-dependent empirical factor                         0.00000

  C-Matrix calculated in cspmtx

  In cspmtx, C-Matrix calculated using fitted potential

-------------------------------------------



 -------------------------------------------
  COSMO surface
  Area             =          480.348
  Volume           =          736.818
  Number of Points =         1221
 -------------------------------------------



 ======================
 RI Hartree-Fock Scheme
 ======================
  
 Fit Set Quality     : GOOD
 Threshold Quality   : GOOD
 Integration Quality : GOOD
 Response Quality    : DEFAULT
 Is Range Separated  :  F
 
 RIHartreeFock Dependency: number of modified vectors:           4
 cosmo_calcen: 0.5 (esolb+esolc) (Hartrees) =   -0.038270

 Solvation energy (screening term,uncorrected) =    -24.014875 kcal/mol

 Solvation energy (dispersion and cavitation terms) =      0.898214 kcal/mol
 Solvation Energy Contributions (Hartrees)
          esola   esolb+esolc
     0.03827014   -0.07654027
 esol last cycle   -0.03827014
  
 Hartree-Fock exchange energy:   -510.627172680575     
 cosmo_calcen: 0.5 (esolb+esolc) (Hartrees) =   -0.038270

 Solvation energy (screening term,uncorrected) =    -24.014884 kcal/mol

 Solvation energy (dispersion and cavitation terms) =      0.898214 kcal/mol
 Solvation Energy Contributions (Hartrees)
          esola   esolb+esolc
     0.03827015   -0.07654030
 esol last cycle   -0.03827015

 Energy gradients wrt nuclear displacements
 ==========================================

     Atom      Cartesian (a.u./angstrom)
                 X         Y         Z
 ----------------------------------------
     1 Pa    0.004177  0.000123  0.002479
     2 O    -0.000095  0.000604 -0.001840
     3 H     0.000670  0.000698  0.000402
     4 O    -0.003808  0.000793  0.001202
     5 H     0.000806  0.000297 -0.000390
     6 O    -0.000257 -0.000969 -0.003188
     7 H    -0.000031 -0.000274  0.000521
     8 O    -0.001927 -0.000660  0.000527
     9 H     0.000874 -0.000650  0.000616
    10 F    -0.000409  0.000038 -0.000329
 ----------------------------------------
 Mulliken charges used for AMS results%charges...

 dE(predicted):    -0.28873E-04, dE(actual):    -0.42953E-04, Trust radius:    0.400000, all in a.u.
 
----------------------------------------------------------------------
Geometry Convergence after Step  12       (Hartree/Angstrom,Angstrom)
----------------------------------------------------------------------
current energy                               -2.78776428 Hartree
energy change                      -0.00004295     0.00001000    F
constrained gradient max            0.00417278     0.00010000    F
constrained gradient rms            0.00145712     0.00006667    F
gradient max                        0.00417278
gradient rms                        0.00145712
cart. step max                      0.02544624     0.00100000    F
cart. step rms                      0.01117802     0.00066667    F
 
 
--------
Geometry
--------
Formula: H4FO4Pa
Atoms
  Index Symbol   x (angstrom)   y (angstrom)   z (angstrom)
      1     Pa     0.37841320    -0.02847762     0.07956702       adf.R=2.200
      2      O     1.10781373     1.64065354    -0.97626834       adf.R=1.517
      3      H     1.33819582     1.96716510    -1.85403277       adf.R=1.350
      4      O    -1.43519221     1.00962823     0.54268360       adf.R=1.517
      5      H    -1.69984228     1.90737365     0.30831157       adf.R=1.350
      6      O     0.31024047    -1.11799312    -1.75699868       adf.R=1.517
      7      H     0.09364328    -2.04069285    -1.93592062       adf.R=1.350
      8      O    -0.30011273    -1.70120517     1.15085177       adf.R=1.517
      9      H    -0.99901118    -2.11211609     1.67221829       adf.R=1.350
     10      F     2.15137264     0.00086707     1.29316988       adf.R=1.425
 
Total System Charge             0.00000
Bonding info available!
 
 *** GO1_GOStep13 ***

 SOLVATION
-------------------------------------------

  The Delley construction of COSMO surface surface is calculated

       Division Level for Surface Triangles (NDIV)                  3
       Final Division Level for Triangles (NFDIV)                   1
       Radius of the Solvent (RSOL)                           1.93000 angstr
  Dielectric Constant (EPSL)                                 78.39000

       COSMO equation is solved iteratively-               conjugate-gradient

       Maximun of Iterations for Charges (NCIX)                  1000
       Criterion for Charge convergence (CCNV)                1.0E-08

  COSMO charges included variationally in SCF

       COSMO included at every SCF cycle

  Geometry-dependent empirical factor                         0.00000

  C-Matrix calculated in cspmtx

  In cspmtx, C-Matrix calculated using fitted potential

-------------------------------------------



 -------------------------------------------
  COSMO surface
  Area             =          481.125
  Volume           =          739.115
  Number of Points =         1220
 -------------------------------------------



 ======================
 RI Hartree-Fock Scheme
 ======================
  
 Fit Set Quality     : GOOD
 Threshold Quality   : GOOD
 Integration Quality : GOOD
 Response Quality    : DEFAULT
 Is Range Separated  :  F
 
 RIHartreeFock Dependency: number of modified vectors:           4
 cosmo_calcen: 0.5 (esolb+esolc) (Hartrees) =   -0.038885

 Solvation energy (screening term,uncorrected) =    -24.400896 kcal/mol

 Solvation energy (dispersion and cavitation terms) =      0.899667 kcal/mol
 Solvation Energy Contributions (Hartrees)
          esola   esolb+esolc
     0.03888530   -0.07777060
 esol last cycle   -0.03888530
  
 Hartree-Fock exchange energy:   -510.623879503662     
 cosmo_calcen: 0.5 (esolb+esolc) (Hartrees) =   -0.038885

 Solvation energy (screening term,uncorrected) =    -24.400932 kcal/mol

 Solvation energy (dispersion and cavitation terms) =      0.899667 kcal/mol
 Solvation Energy Contributions (Hartrees)
          esola   esolb+esolc
     0.03888536   -0.07777071
 esol last cycle   -0.03888536

 Energy gradients wrt nuclear displacements
 ==========================================

     Atom      Cartesian (a.u./angstrom)
                 X         Y         Z
 ----------------------------------------
     1 Pa    0.003256 -0.000182  0.002029
     2 O     0.001107  0.002314 -0.003082
     3 H     0.000551  0.000383  0.000913
     4 O    -0.005516  0.002164  0.001830
     5 H     0.000850 -0.000062 -0.000324
     6 O    -0.000058 -0.002108 -0.005086
     7 H    -0.000008  0.000042  0.000760
     8 O    -0.002565 -0.002198  0.001881
     9 H     0.001320 -0.000397  0.000407
    10 F     0.001061  0.000044  0.000670
 ----------------------------------------
 Mulliken charges used for AMS results%charges...

 dE(predicted):    -0.51729E-04, dE(actual):    -0.79178E-04, Trust radius:    0.400000, all in a.u.
 
----------------------------------------------------------------------
Geometry Convergence after Step  13       (Hartree/Angstrom,Angstrom)
----------------------------------------------------------------------
current energy                               -2.78784345 Hartree
energy change                      -0.00007918     0.00001000    F
constrained gradient max            0.00553136     0.00010000    F
constrained gradient rms            0.00200716     0.00006667    F
gradient max                        0.00553136
gradient rms                        0.00200716
cart. step max                      0.07264243     0.00100000    F
cart. step rms                      0.02560027     0.00066667    F
 
 
--------
Geometry
--------
Formula: H4FO4Pa
Atoms
  Index Symbol   x (angstrom)   y (angstrom)   z (angstrom)
      1     Pa     0.39020031    -0.02492388     0.09044368       adf.R=2.200
      2      O     1.14275519     1.64287773    -0.96424055       adf.R=1.517
      3      H     1.26555338     1.92289100    -1.87914547       adf.R=1.350
      4      O    -1.42256162     1.01214923     0.55875284       adf.R=1.517
      5      H    -1.71391891     1.89967919     0.31865202       adf.R=1.350
      6      O     0.33503721    -1.10953029    -1.75174086       adf.R=1.517
      7      H     0.10182448    -2.02871903    -1.92728577       adf.R=1.350
      8      O    -0.27677100    -1.70440984     1.16835247       adf.R=1.517
      9      H    -1.04652603    -2.08057450     1.61024472       adf.R=1.350
     10      F     2.16992772    -0.00423688     1.29954861       adf.R=1.425
 
Total System Charge             0.00000
Bonding info available!
 
 *** GO1_GOStep14 ***

 SOLVATION
-------------------------------------------

  The Delley construction of COSMO surface surface is calculated

       Division Level for Surface Triangles (NDIV)                  3
       Final Division Level for Triangles (NFDIV)                   1
       Radius of the Solvent (RSOL)                           1.93000 angstr
  Dielectric Constant (EPSL)                                 78.39000

       COSMO equation is solved iteratively-               conjugate-gradient

       Maximun of Iterations for Charges (NCIX)                  1000
       Criterion for Charge convergence (CCNV)                1.0E-08

  COSMO charges included variationally in SCF

       COSMO included at every SCF cycle

  Geometry-dependent empirical factor                         0.00000

  C-Matrix calculated in cspmtx

  In cspmtx, C-Matrix calculated using fitted potential

-------------------------------------------



 -------------------------------------------
  COSMO surface
  Area             =          479.517
  Volume           =          739.067
  Number of Points =         1223
 -------------------------------------------



 ======================
 RI Hartree-Fock Scheme
 ======================
  
 Fit Set Quality     : GOOD
 Threshold Quality   : GOOD
 Integration Quality : GOOD
 Response Quality    : DEFAULT
 Is Range Separated  :  F
 
 RIHartreeFock Dependency: number of modified vectors:           4
 cosmo_calcen: 0.5 (esolb+esolc) (Hartrees) =   -0.040056

 Solvation energy (screening term,uncorrected) =    -25.135736 kcal/mol

 Solvation energy (dispersion and cavitation terms) =      0.896659 kcal/mol
 Solvation Energy Contributions (Hartrees)
          esola   esolb+esolc
     0.04005634   -0.08011268
 esol last cycle   -0.04005634
  
 Hartree-Fock exchange energy:   -510.621693706659     
 cosmo_calcen: 0.5 (esolb+esolc) (Hartrees) =   -0.040056

 Solvation energy (screening term,uncorrected) =    -25.135739 kcal/mol

 Solvation energy (dispersion and cavitation terms) =      0.896659 kcal/mol
 Solvation Energy Contributions (Hartrees)
          esola   esolb+esolc
     0.04005635   -0.08011269
 esol last cycle   -0.04005635

 Energy gradients wrt nuclear displacements
 ==========================================

     Atom      Cartesian (a.u./angstrom)
                 X         Y         Z
 ----------------------------------------
     1 Pa    0.001003 -0.000445  0.000796
     2 O     0.002246  0.003833 -0.003842
     3 H     0.000349 -0.000260  0.001429
     4 O    -0.006817  0.003643  0.002568
     5 H     0.000847 -0.000530 -0.000202
     6 O     0.000488 -0.003207 -0.006770
     7 H     0.000012  0.000423  0.001087
     8 O    -0.002859 -0.003532  0.002907
     9 H     0.001892  0.000070  0.000182
    10 F     0.002839  0.000007  0.001846
 ----------------------------------------
 Mulliken charges used for AMS results%charges...

 dE(predicted):    -0.11824E-03, dE(actual):    -0.95398E-04, Trust radius:    0.800000, all in a.u.
 
----------------------------------------------------------------------
Geometry Convergence after Step  14       (Hartree/Angstrom,Angstrom)
----------------------------------------------------------------------
current energy                               -2.78793885 Hartree
energy change                      -0.00009540     0.00001000    F
constrained gradient max            0.00683639     0.00010000    F
constrained gradient rms            0.00263186     0.00006667    F
gradient max                        0.00683639
gradient rms                        0.00263186
cart. step max                      0.11786360     0.00100000    F
cart. step rms                      0.03693999     0.00066667    F
 
 
--------
Geometry
--------
Formula: H4FO4Pa
Atoms
  Index Symbol   x (angstrom)   y (angstrom)   z (angstrom)
      1     Pa     0.41133268    -0.02112872     0.10687370       adf.R=2.200
      2      O     1.18904478     1.63591152    -0.95918907       adf.R=1.517
      3      H     1.14768978     1.87719827    -1.89298637       adf.R=1.350
      4      O    -1.39231053     1.02304203     0.57381675       adf.R=1.517
      5      H    -1.72765982     1.89375576     0.33124417       adf.R=1.350
      6      O     0.36786189    -1.11023568    -1.73147161       adf.R=1.517
      7      H     0.11103868    -2.02177188    -1.91325252       adf.R=1.350
      8      O    -0.25538139    -1.69861025     1.19721859       adf.R=1.517
      9      H    -1.10294335    -2.04350252     1.50238354       adf.R=1.350
     10      F     2.19684802    -0.00945580     1.30894454       adf.R=1.425
 
Total System Charge             0.00000
Bonding info available!
 
 *** GO1_GOStep15 ***

 SOLVATION
-------------------------------------------

  The Delley construction of COSMO surface surface is calculated

       Division Level for Surface Triangles (NDIV)                  3
       Final Division Level for Triangles (NFDIV)                   1
       Radius of the Solvent (RSOL)                           1.93000 angstr
  Dielectric Constant (EPSL)                                 78.39000

       COSMO equation is solved iteratively-               conjugate-gradient

       Maximun of Iterations for Charges (NCIX)                  1000
       Criterion for Charge convergence (CCNV)                1.0E-08

  COSMO charges included variationally in SCF

       COSMO included at every SCF cycle

  Geometry-dependent empirical factor                         0.00000

  C-Matrix calculated in cspmtx

  In cspmtx, C-Matrix calculated using fitted potential

-------------------------------------------



 -------------------------------------------
  COSMO surface
  Area             =          476.892
  Volume           =          738.430
  Number of Points =         1209
 -------------------------------------------



 ======================
 RI Hartree-Fock Scheme
 ======================
  
 Fit Set Quality     : GOOD
 Threshold Quality   : GOOD
 Integration Quality : GOOD
 Response Quality    : DEFAULT
 Is Range Separated  :  F
 
 RIHartreeFock Dependency: number of modified vectors:           4
 cosmo_calcen: 0.5 (esolb+esolc) (Hartrees) =   -0.041439

 Solvation energy (screening term,uncorrected) =    -26.003332 kcal/mol

 Solvation energy (dispersion and cavitation terms) =      0.891750 kcal/mol
 Solvation Energy Contributions (Hartrees)
          esola   esolb+esolc
     0.04143894   -0.08287789
 esol last cycle   -0.04143894
  
 Hartree-Fock exchange energy:   -510.623415340665     
 cosmo_calcen: 0.5 (esolb+esolc) (Hartrees) =   -0.041439

 Solvation energy (screening term,uncorrected) =    -26.003340 kcal/mol

 Solvation energy (dispersion and cavitation terms) =      0.891750 kcal/mol
 Solvation Energy Contributions (Hartrees)
          esola   esolb+esolc
     0.04143896   -0.08287791
 esol last cycle   -0.04143896

 Energy gradients wrt nuclear displacements
 ==========================================

     Atom      Cartesian (a.u./angstrom)
                 X         Y         Z
 ----------------------------------------
     1 Pa   -0.002854 -0.000853 -0.001328
     2 O     0.003110  0.004220 -0.003062
     3 H    -0.000276 -0.001311  0.001601
     4 O    -0.005923  0.004167  0.002912
     5 H     0.000637 -0.000867  0.000013
     6 O     0.001448 -0.003396 -0.006396
     7 H     0.000001  0.000647  0.001192
     8 O    -0.001921 -0.003297  0.002735
     9 H     0.001952  0.000754 -0.000157
    10 F     0.003826 -0.000064  0.002490
 ----------------------------------------
 Mulliken charges used for AMS results%charges...
 Rebuilding optimization coordinates

 dE(predicted):    -0.13177E-03, dE(actual):     0.82079E-04, Trust radius:    0.600000, all in a.u.
 
----------------------------------------------------------------------
Geometry Convergence after Step  15       (Hartree/Angstrom,Angstrom)
----------------------------------------------------------------------
current energy                               -2.78785677 Hartree
energy change                       0.00008208     0.00001000    F
constrained gradient max            0.00640939     0.00010000    F
constrained gradient rms            0.00269292     0.00006667    F
gradient max                        0.00640939
gradient rms                        0.00269292
cart. step max                      0.01806504     0.00100000    F
cart. step rms                      0.00729044     0.00066667    F
 
 
--------
Geometry
--------
Formula: H4FO4Pa
Atoms
  Index Symbol   x (angstrom)   y (angstrom)   z (angstrom)
      1     Pa     0.41213197    -0.02246225     0.10597317       adf.R=2.200
      2      O     1.17846756     1.63301265    -0.96435889       adf.R=1.517
      3      H     1.16575482     1.88569407    -1.89629452       adf.R=1.350
      4      O    -1.38423529     1.02379489     0.57024468       adf.R=1.517
      5      H    -1.73647370     1.89166078     0.34202638       adf.R=1.350
      6      O     0.36615866    -1.11552276    -1.72380028       adf.R=1.517
      7      H     0.11524687    -2.02335467    -1.93014240       adf.R=1.350
      8      O    -0.26368295    -1.69529603     1.19303281       adf.R=1.517
      9      H    -1.10201726    -2.04563156     1.51804034       adf.R=1.350
     10      F     2.19417007    -0.00669238     1.30886042       adf.R=1.425
 
Total System Charge             0.00000
Bonding info available!
 
 *** GO1_GOStep16 ***

 SOLVATION
-------------------------------------------

  The Delley construction of COSMO surface surface is calculated

       Division Level for Surface Triangles (NDIV)                  3
       Final Division Level for Triangles (NFDIV)                   1
       Radius of the Solvent (RSOL)                           1.93000 angstr
  Dielectric Constant (EPSL)                                 78.39000

       COSMO equation is solved iteratively-               conjugate-gradient

       Maximun of Iterations for Charges (NCIX)                  1000
       Criterion for Charge convergence (CCNV)                1.0E-08

  COSMO charges included variationally in SCF

       COSMO included at every SCF cycle

  Geometry-dependent empirical factor                         0.00000

  C-Matrix calculated in cspmtx

  In cspmtx, C-Matrix calculated using fitted potential

-------------------------------------------



 -------------------------------------------
  COSMO surface
  Area             =          478.133
  Volume           =          738.960
  Number of Points =         1209
 -------------------------------------------



 ======================
 RI Hartree-Fock Scheme
 ======================
  
 Fit Set Quality     : GOOD
 Threshold Quality   : GOOD
 Integration Quality : GOOD
 Response Quality    : DEFAULT
 Is Range Separated  :  F
 
 RIHartreeFock Dependency: number of modified vectors:           4
 cosmo_calcen: 0.5 (esolb+esolc) (Hartrees) =   -0.040645

 Solvation energy (screening term,uncorrected) =    -25.504937 kcal/mol

 Solvation energy (dispersion and cavitation terms) =      0.894072 kcal/mol
 Solvation Energy Contributions (Hartrees)
          esola   esolb+esolc
     0.04064470   -0.08128940
 esol last cycle   -0.04064470
  
 Hartree-Fock exchange energy:   -510.628032954489     
 cosmo_calcen: 0.5 (esolb+esolc) (Hartrees) =   -0.040645

 Solvation energy (screening term,uncorrected) =    -25.504938 kcal/mol

 Solvation energy (dispersion and cavitation terms) =      0.894072 kcal/mol
 Solvation Energy Contributions (Hartrees)
          esola   esolb+esolc
     0.04064470   -0.08128940
 esol last cycle   -0.04064470

 Energy gradients wrt nuclear displacements
 ==========================================

     Atom      Cartesian (a.u./angstrom)
                 X         Y         Z
 ----------------------------------------
     1 Pa   -0.002302 -0.000885 -0.000831
     2 O     0.001748  0.002215 -0.001288
     3 H    -0.000118 -0.000763  0.000532
     4 O    -0.002980  0.002617  0.001994
     5 H     0.000299 -0.000632  0.000043
     6 O     0.001293 -0.002045 -0.003595
     7 H    -0.000036  0.000403  0.000762
[...]
    30          3825.0146             275.3917

 Zero-point energy (Hartree):     0.0476

 ------------
 Normal Modes
 ------------

 Number of removed rigid normal modes: 6
 
 Mode:     7      Frequency (cm-1):       63.1074     Intensity (km/mol):        5.2457
 Index  Atom      ---- Displacements (x/y/z) ----
     1    Pa       0.001042   0.018893   0.024703
     2     O       0.023387   0.071651   0.110933
     3     H      -0.001162   0.110597   0.165326
     4     O      -0.063030  -0.150809  -0.255963
     5     H      -0.174902  -0.653246  -0.473100
     6     O       0.053646  -0.003212   0.042232
     7     H       0.023263   0.023855   0.003008
     8     O       0.001416   0.076900   0.103057
     9     H       0.005244   0.078654   0.118298
    10     F      -0.017823  -0.201803  -0.290730
 
 Mode:     8      Frequency (cm-1):       97.3836     Intensity (km/mol):       54.7839
 Index  Atom      ---- Displacements (x/y/z) ----
     1    Pa      -0.004630   0.024619   0.022401
     2     O       0.086635  -0.122563  -0.156557
     3     H      -0.013937  -0.088408  -0.066798
     4     O       0.000183   0.014057  -0.030649
     5     H      -0.367591  -0.662292  -0.031992
     6     O      -0.049214   0.015933   0.027262
     7     H       0.191678  -0.166505   0.233943
     8     O       0.062765  -0.150913  -0.159721
     9     H       0.084387  -0.321361  -0.277242
    10     F      -0.022598  -0.028693   0.004255
 
 Mode:     9      Frequency (cm-1):      103.2215     Intensity (km/mol):      157.1017
 Index  Atom      ---- Displacements (x/y/z) ----
     1    Pa       0.006842   0.010188   0.016948
     2     O      -0.082615  -0.035809  -0.092225
     3     H       0.168079  -0.312623  -0.518339
     4     O      -0.056220  -0.077957  -0.007192
     5     H       0.406057   0.534532  -0.179002
     6     O       0.051288   0.043581  -0.002220
     7     H      -0.137906   0.173625  -0.120217
     8     O      -0.029362  -0.031262  -0.051173
     9     H      -0.054178  -0.014701  -0.127973
    10     F      -0.005041  -0.058689  -0.027290
 
 Mode:    10      Frequency (cm-1):      118.6144     Intensity (km/mol):       48.0274
 Index  Atom      ---- Displacements (x/y/z) ----
     1    Pa       0.009510   0.014810  -0.027019
     2     O       0.067182   0.008363   0.022500
     3     H       0.321997  -0.184870  -0.319601
     4     O      -0.103934  -0.212541   0.109900
     5     H      -0.302510  -0.507040   0.160404
     6     O      -0.080345   0.107711  -0.059414
     7     H      -0.218025   0.221677  -0.209553
     8     O       0.093681   0.059551   0.096961
     9     H       0.067276   0.190679   0.147935
    10     F      -0.088971  -0.134195   0.197202
 
 Mode:    11      Frequency (cm-1):      127.2004     Intensity (km/mol):       54.1744
 Index  Atom      ---- Displacements (x/y/z) ----
     1    Pa      -0.001197   0.010554  -0.008156
     2     O      -0.071819   0.026389  -0.024169
     3     H      -0.081979   0.115207   0.075153
     4     O      -0.008676   0.015794   0.112589
     5     H      -0.000529   0.081922   0.149456
     6     O       0.118447  -0.043329  -0.003047
     7     H       0.789400  -0.444883   0.223766
     8     O       0.001299   0.010285  -0.002559
     9     H      -0.023645   0.128211   0.041120
    10     F      -0.054734  -0.129700   0.003490
 
 Mode:    12      Frequency (cm-1):      146.0210     Intensity (km/mol):       84.3870
 Index  Atom      ---- Displacements (x/y/z) ----
     1    Pa       0.022298   0.000156   0.003987
     2     O      -0.116560   0.036200  -0.082801
     3     H      -0.409721   0.120165   0.164003
     4     O       0.029568  -0.043819   0.041742
     5     H      -0.347797  -0.418517   0.273863
     6     O       0.033315  -0.019870   0.009805
     7     H      -0.411053   0.216835  -0.045183
     8     O      -0.195051   0.045685  -0.057544
     9     H      -0.261381   0.156616  -0.189909
    10     F       0.014096  -0.021203   0.015519
 
 Mode:    13      Frequency (cm-1):      157.6703     Intensity (km/mol):      193.6985
 Index  Atom      ---- Displacements (x/y/z) ----
     1    Pa      -0.023104   0.014445  -0.006261
     2     O       0.152407  -0.053573   0.030544
     3     H       0.295306  -0.027664  -0.020001
     4     O      -0.017069  -0.036151   0.102287
     5     H      -0.270727   0.166602   0.589879
     6     O       0.211109  -0.137768   0.051898
     7     H      -0.511263   0.267024  -0.102955
     8     O       0.019200  -0.016621  -0.022346
     9     H       0.039815  -0.052056   0.015027
    10     F      -0.003168   0.011083  -0.086135
 
 Mode:    14      Frequency (cm-1):      166.1838     Intensity (km/mol):       63.3469
 Index  Atom      ---- Displacements (x/y/z) ----
     1    Pa      -0.018618  -0.025324   0.017216
     2     O       0.059500  -0.140290  -0.129431
     3     H      -0.058608  -0.225469  -0.155409
     4     O       0.024477   0.060105   0.038080
     5     H      -0.222236  -0.391085   0.038494
     6     O       0.176291   0.257556  -0.183148
     7     H       0.452516   0.160919  -0.318679
     8     O      -0.048404   0.084770   0.134042
     9     H      -0.060346   0.261307   0.299841
    10     F       0.042134   0.097573  -0.083903
 
 Mode:    15      Frequency (cm-1):      193.3727     Intensity (km/mol):      144.3738
 Index  Atom      ---- Displacements (x/y/z) ----
     1    Pa       0.009067   0.001212  -0.003380
     2     O       0.102741  -0.021960   0.074004
     3     H       0.449207  -0.136957  -0.234445
     4     O      -0.082680  -0.119340   0.100152
     5     H       0.081486  -0.136338  -0.132743
     6     O      -0.099014  -0.026679   0.037329
     7     H       0.478809  -0.358773   0.190087
     8     O      -0.175724   0.036009  -0.054183
     9     H      -0.272661   0.249386  -0.182180
    10     F       0.065066   0.116671  -0.072267
 
 Mode:    16      Frequency (cm-1):      233.2654     Intensity (km/mol):      480.8825
 Index  Atom      ---- Displacements (x/y/z) ----
     1    Pa       0.001480   0.005615   0.004355
     2     O       0.059215  -0.077814  -0.061950
     3     H      -0.174931   0.465743   0.636458
     4     O      -0.052344  -0.100383   0.001175
     5     H       0.233258   0.326298  -0.070593
     6     O      -0.011051   0.024834  -0.066695
     7     H      -0.139073  -0.030168   0.314655
     8     O       0.002436   0.004732  -0.003455
     9     H      -0.020393   0.151963   0.083927
    10     F      -0.011161   0.008371   0.006106
 
 Mode:    17      Frequency (cm-1):      276.2146     Intensity (km/mol):      168.3653
 Index  Atom      ---- Displacements (x/y/z) ----
     1    Pa      -0.000402   0.001561   0.005517
     2     O       0.003788   0.004583   0.001501
     3     H      -0.032143  -0.099402  -0.088895
     4     O       0.058118  -0.073046  -0.114862
     5     H      -0.335549   0.413069   0.770917
     6     O      -0.059384   0.035025  -0.017183
     7     H       0.233770  -0.132606   0.058044
     8     O      -0.008805   0.002232   0.008775
     9     H      -0.014055  -0.002783  -0.017896
    10     F       0.018023  -0.002169  -0.002883
 
 Mode:    18      Frequency (cm-1):      305.1417     Intensity (km/mol):      236.0706
 Index  Atom      ---- Displacements (x/y/z) ----
     1    Pa      -0.000131  -0.001044  -0.003711
     2     O       0.040226  -0.004953  -0.038848
     3     H      -0.148857   0.146132   0.221883
     4     O      -0.026127  -0.025981   0.020160
     5     H       0.060604   0.107926   0.001944
     6     O      -0.015750   0.016895   0.082875
     7     H       0.282682   0.086808  -0.616773
     8     O      -0.014336   0.047643   0.038503
     9     H       0.043735  -0.500990  -0.393481
    10     F       0.002422  -0.007106   0.000387
 
 Mode:    19      Frequency (cm-1):      342.7147     Intensity (km/mol):       85.8348
 Index  Atom      ---- Displacements (x/y/z) ----
     1    Pa      -0.000394   0.001310  -0.001005
     2     O       0.049818   0.030057  -0.026662
     3     H      -0.300182  -0.068235   0.057161
     4     O       0.001789  -0.006239  -0.012366
     5     H       0.040232   0.052128  -0.021901
     6     O      -0.016731  -0.004340   0.088378
     7     H       0.149738   0.088860  -0.474539
     8     O       0.021219  -0.103080  -0.018160
     9     H      -0.169922   0.730801   0.232347
    10     F      -0.027571   0.011824  -0.003059
 
 Mode:    20      Frequency (cm-1):      364.2669     Intensity (km/mol):      248.3685
 Index  Atom      ---- Displacements (x/y/z) ----
     1    Pa      -0.000731   0.004128  -0.001690
     2     O      -0.105528  -0.080049  -0.002210
     3     H       0.735705   0.492301   0.153974
     4     O       0.012894   0.015962  -0.025189
     5     H      -0.097708  -0.069238   0.062013
     6     O      -0.009405   0.009339   0.039375
     7     H       0.070517   0.072557  -0.290256
     8     O      -0.003096  -0.027032  -0.011274
     9     H      -0.003119   0.140875   0.186822
    10     F       0.059984  -0.015111   0.013995
 
 Mode:    21      Frequency (cm-1):      393.4936     Intensity (km/mol):      293.1788
 Index  Atom      ---- Displacements (x/y/z) ----
     1    Pa       0.005605   0.003669  -0.002940
     2     O      -0.030969  -0.025463   0.016228
     3     H       0.187677   0.082820   0.013556
     4     O       0.036617   0.013523  -0.005362
     5     H      -0.000545  -0.023938   0.015965
     6     O       0.009105  -0.005458  -0.037340
     7     H      -0.069648  -0.008691   0.097346
     8     O       0.023089  -0.094481   0.141316
     9     H      -0.335252   0.247106  -0.851563
    10     F      -0.088465   0.033807  -0.022495
 
 Mode:    22      Frequency (cm-1):      436.0226     Intensity (km/mol):      314.1154
 Index  Atom      ---- Displacements (x/y/z) ----
     1    Pa      -0.024937   0.009647  -0.010038
     2     O      -0.006035  -0.086452   0.071207
     3     H      -0.414801  -0.277767   0.082919
     4     O      -0.052593   0.032571   0.001637
     5     H      -0.016050   0.018671  -0.056891
     6     O       0.013384   0.017017   0.016321
     7     H      -0.059209   0.012800   0.140960
     8     O       0.074222   0.023923   0.011321
     9     H      -0.204304   0.406854  -0.607055
    10     F       0.315693  -0.114942   0.060817
 
 Mode:    23      Frequency (cm-1):      490.1511     Intensity (km/mol):      204.6211
 Index  Atom      ---- Displacements (x/y/z) ----
     1    Pa       0.032221  -0.001377   0.014829
     2     O      -0.097205  -0.213154   0.140074
     3     H      -0.254378  -0.293462   0.136061
     4     O      -0.234467   0.113266  -0.043742
     5     H      -0.391354   0.115857   0.174705
     6     O      -0.037816  -0.103974  -0.111187
     7     H       0.077401  -0.036346  -0.502992
     8     O       0.095363   0.163322  -0.139794
     9     H       0.038766   0.299770  -0.189125
    10     F      -0.132953   0.046320  -0.029899
 
 Mode:    24      Frequency (cm-1):      510.9835     Intensity (km/mol):      242.4927
 Index  Atom      ---- Displacements (x/y/z) ----
     1    Pa      -0.025170  -0.006893   0.031200
     2     O       0.045664   0.129404  -0.087142
     3     H       0.286546   0.234248  -0.103149
     4     O       0.177189  -0.071595   0.019953
     5     H       0.241241  -0.136175  -0.115763
     6     O      -0.038608  -0.140755  -0.185643
     7     H       0.047541  -0.091328  -0.476436
     8     O       0.118401   0.167714  -0.131155
     9     H      -0.030425   0.394285  -0.433076
    10     F       0.022382  -0.008818   0.003731
 
 Mode:    25      Frequency (cm-1):      520.0516     Intensity (km/mol):      321.1171
 Index  Atom      ---- Displacements (x/y/z) ----
     1    Pa      -0.001692   0.038132  -0.004112
     2     O      -0.048416  -0.156969   0.109317
     3     H      -0.353802  -0.331117   0.085711
     4     O       0.165311  -0.089680   0.034776
     5     H       0.271833  -0.132050  -0.142173
     6     O      -0.037533  -0.126931  -0.151423
     7     H       0.087823  -0.084863  -0.480106
     8     O      -0.085398  -0.112416   0.071649
     9     H       0.061758  -0.328228   0.382443
    10     F       0.022076  -0.008070   0.004033
 
 Mode:    26      Frequency (cm-1):      627.7699     Intensity (km/mol):       56.5462
 Index  Atom      ---- Displacements (x/y/z) ----
     1    Pa       0.015106   0.005469   0.019219
     2     O       0.095222   0.209803  -0.133643
     3     H       0.183906   0.259010  -0.135695
     4     O      -0.305921   0.143367  -0.036241
     5     H      -0.391588   0.167123   0.088007
     6     O      -0.047400  -0.179459  -0.272219
     7     H       0.001007  -0.164677  -0.416737
     8     O      -0.104628  -0.195419   0.149809
     9     H      -0.084033  -0.229870   0.204540
    10     F       0.137108  -0.049906   0.026157
 
 Mode:    27      Frequency (cm-1):     3794.2801     Intensity (km/mol):      273.5384
 Index  Atom      ---- Displacements (x/y/z) ----
     1    Pa       0.000028   0.000021  -0.000038
     2     O      -0.003327   0.006462  -0.006108
     3     H       0.052916  -0.103776   0.098630
     4     O      -0.002867   0.001448  -0.002181
     5     H       0.048735  -0.026887   0.036281
     6     O      -0.001033  -0.002031  -0.000441
     7     H       0.016526   0.033774   0.010304
     8     O       0.057147   0.017534  -0.014598
     9     H      -0.913079  -0.280009   0.233993
    10     F      -0.000198   0.000031  -0.000015
 
 Mode:    28      Frequency (cm-1):     3795.3566     Intensity (km/mol):      187.2587
 Index  Atom      ---- Displacements (x/y/z) ----
     1    Pa      -0.000001   0.000040  -0.000011
     2     O      -0.021113   0.041975  -0.039681
     3     H       0.338224  -0.670029   0.633746
     4     O       0.003804  -0.002238   0.003183
     5     H      -0.067123   0.036883  -0.049858
     6     O       0.001092   0.002153   0.000449
     7     H      -0.018499  -0.037646  -0.011552
     8     O      -0.008428  -0.002663   0.002242
     9     H       0.134134   0.041077  -0.034733
    10     F       0.000248  -0.000111   0.000078
 
 Mode:    29      Frequency (cm-1):     3815.3963     Intensity (km/mol):      334.4562
 Index  Atom      ---- Displacements (x/y/z) ----
     1    Pa       0.000020  -0.000027  -0.000005
     2     O       0.001399  -0.003353   0.003126
     3     H      -0.025160   0.049815  -0.047418
     4     O       0.045299  -0.024684   0.033586
     5     H      -0.720214   0.392719  -0.535909
     6     O      -0.004296  -0.008443  -0.002426
     7     H       0.068235   0.138003   0.043033
     8     O       0.004210   0.001528  -0.001243
     9     H      -0.065799  -0.020216   0.016787
    10     F      -0.000073   0.000037   0.000014
 
 Mode:    30      Frequency (cm-1):     3825.0146     Intensity (km/mol):      275.3917
 Index  Atom      ---- Displacements (x/y/z) ----
     1    Pa      -0.000017  -0.000022  -0.000003
     2     O      -0.000893   0.002415  -0.002121
     3     H       0.017078  -0.033257   0.031431
     4     O      -0.007357   0.004026  -0.005215
     5     H       0.111714  -0.061088   0.083225
     6     O      -0.026263  -0.053372  -0.016868
     7     H       0.419207   0.849652   0.263992
     8     O      -0.003403  -0.001239   0.001173
     9     H       0.052557   0.015776  -0.013557
    10     F       0.000267  -0.000087   0.000059

PES point character: Geometry corresponds to a local minimum on the PES.




 ============================
 Statistical Thermal Analysis  ***  ideal gas assumed  ***
 ============================
  
 Pressure:                  1.000000 atm.
 Temperature:             298.150000 K



 Moments of Inertia [amu*bohr^2] and principal axis
 ==================================================

         851.7958        875.6520       1165.0026
 ------------------------------------------------
           0.8839          0.4604          0.0820
          -0.4266          0.7221          0.5445
           0.1915         -0.5163          0.8347


 The rotational contribution to the molecular entropy includes
 a term, dependent on the symmetry number sigma. The results 
 reported below were computed using sigma = 1, determined from
 the point group symmetry of the input geometry (NOSYM). 
 If this is not the correct symmetry, try symmetrizing the molecule before
 running the calculation (note: linear molecules should be aligned along one
 of the Cartesian axes).
 Contributions from frequencies below 20 1/cm are not included in vibrational sums.
 Their contributions, if any, are reported separately.


     Temp                                                        Transl      Rotat     Vibrat     Total
     ----                                                        ------      -----     ------     -----

     298.15   Entropy (cal/mol-K):                               43.167     28.254     38.599    110.020
              Nuclear Internal Energy (kcal/mol):                 0.889      0.889     35.913     37.691
              Constant Volume Heat Capacity (cal/mol-K):          2.981      2.981     33.123     39.085
          (c) Constant Volume Heat Capacity (cal/mol-K):          2.981      2.981     30.247     36.209

       Summary of energy terms
                                                   hartree              eV         kcal/mol           kJ/mol
                                      --------------------     -----------       ----------      -----------
      Energy from Engine:               -2.788264385472048        -75.8725         -1749.66         -7320.59
      Nuclear Internal Energy:           0.060063789096109          1.6344            37.69           157.70
  (c) Nuclear Internal Energy:           0.058540697191424          1.5930            36.73           153.70
      Internal Energy U:                -2.728200596375939        -74.2381         -1711.97         -7162.89
      pV/n = RT:                         0.000944186013486          0.0257             0.59             2.48
      Enthalpy H:                       -2.727256410362453        -74.2124         -1711.38         -7160.41
      -T*S:                             -0.052273871247429         -1.4224           -32.80          -137.25
  (c) -T*S:                             -0.051416534301054         -1.3991           -32.26          -134.99
      Gibbs free energy:                -2.779530281609883        -75.6349         -1744.18         -7297.66
 
 
 
  (c) The properties marked with this symbol have been corrected using 'low vibrational frequency free rotor
      interpolation corrections'. For those terms all positive frequencies are used (also ones below 20 1/cm),
      but the contribution to the partition function of small vibrational frequencies is modified as described
      in the following paper:
      S. Grimme, 'Supramolecular Binding Thermodynamics by Dispersion-Corrected Density Functional Theory'
      (Chem. Eur. J. 2012, 18, 9955-9964)
      Configuration: Dampener Frequency          :   100.000 1/cm
                     Dampener Alpha              :     4.000
                     Averaging Moment of Inertia : 1.000E-44 kg m2

--------------
Atomic charges
--------------
  Index   Atom    Charge
      1     Pa    2.9667
      2      O   -0.6930
      3      H    0.1388
      4      O   -0.6584
      5      H    0.0977
      6      O   -0.7221
      7      H    0.1405
      8      O   -0.6978
      9      H    0.1444
     10      F   -0.7167


Dipole moment vector    (Debye):    -6.14433001    2.49797123    0.57001345
              magnitude (Debye):     6.65714404


Final PES point is a local minimum. Geometry optimization successful!


AMS application finished. Exiting.
NORMAL TERMINATION
     Total cpu time:   54404.13
  Total system time:    1427.51
 Total elapsed time:   57944.85
