

 Parallel Execution: Process Information
 ==============================================================================
 Rank   Node Name                              NodeID   MyNodeRank  NodeMaster
    0   u-0-7.local                               0          0          0
    1   u-0-7.local                               0          1         -1
    2   u-0-7.local                               1          0          1
    3   u-0-7.local                               1          1         -1
    4   u-0-7.local                               2          0          2
    5   u-0-7.local                               2          1         -1
    6   u-0-7.local                               3          0          3
    7   u-0-7.local                               3          1         -1
 ==============================================================================


May use up to 31228MB of RAM as shared memory on node 0
May use up to 31250MB of RAM as shared memory on node 1
May use up to 31250MB of RAM as shared memory on node 3
May use up to 31250MB of RAM as shared memory on node 2

 *******************************************************************************
 *                                                                             *
 *  --------------------------------                                           *
 *   Amsterdam Modeling Suite (AMS)              2022.103                      *
 *  --------------------------------                                           *
 *                                               r104886 2022-06-17            *
 *                                                                             *
 *                                                                             *
 *                              =================                              *
 *                              |               |                              *
 *                              |     A M S     |                              *
 *                              |               |                              *
 *                              =================                              *
 *                                                                             *
 *                                                                             *
 *   Online information and documentation:  https://www.scm.com/support/       *
 *   E-mail:  support@scm.com   info@scm.com                                   *
 *                                                                             *
 *   Scientific publications using AMS results must be properly referenced     *
 *   See the User Manuals (or the web site) for recommended citations          *
 *   The terms and conditions of the End User License Agreement apply to       *
 *   the use of AMS, https://www.scm.com/license-terms/                        *
 *                                                                             *
 **********************  x86_64_linux_intel / intelmpi  ************************
 
 Licensed to: Dr. Val?rie Vallet / Laboratoire PhLAM UMR 8523 / Villeneuve d'Ascq Cedex / FRANCE 2023-02-21 11:49:39
 SCM User ID: u10325
  
 AMS 2022.103  RunTime: Mar03-2023 07:20:49  ShM Nodes: 4  Procs: 8

 AMS jobname: pa_oh4_no3.SR.b3lyp.tz2p.opt-freq-B21-solvation-2
 AMS jobid  : 888503213

 Start   directory: /home/shaaban/ams/PhD/nitrate/pa_oh4_no3/solvation/B21/
 Results directory: /home/shaaban/ams/PhD/nitrate/pa_oh4_no3/solvation/B21/pa_oh4_no3.SR.b3lyp.tz2p.opt-freq-B21-solvation-2.results/
 Scratch directory: /state/partition2/shaaban/930337.phlam-s-sakura/amstmp_pa_oh4_no3.SR.b3lyp.tz2p.opt-freq-B21-solvation-2_kid0.888503213/


 Communication costs MPI_COMM_WORLD:      2.849 usec per message,   0.0093 usec per 8-byte item
 Communication costs for intra-node:      0.512 usec per message,   0.0026 usec per 8-byte item

 RNG seed: -907317443 -1269660615 1695482865 1667620090 1368762818 2121593881 1609242521 78530350



                      ************************************************************************
                      *  ADF 2022.103  RunTime: Mar03-2023 07:20:49  ShM Nodes: 4  Procs: 8  *
                      ************************************************************************
  
       ***************************
       *  GEOMETRY OPTIMIZATION  *
       ***************************

Optimization Method                    Quasi Newton
Optimization Coordinates               Delocalized Coordinates
Optimize lattice                       F
 
 ------------------------------------------------------
 Convergence criteria (Hartree,Angstrom)
 ------------------------------------------------------
 Maximum gradient               0.000100000000
 Maximum rms gradient           0.000066666667
 Maximum step allowed           0.001000000000
 Maximum rms step allowed       0.000666666667
 Maximum energy change allowe   0.000013000000
 Maximum stress energy allowe   0.000500000000
 
 Initial Hessian from file: dep-adf.rkf
 
------------------------------------
Quasi-Newton Optimizer Parameters
------------------------------------
Hessian Update Method                  BFGS
Maximum number of steps                  250
First GDIIS cycle                          0
Maximum GDIIS vectors                      0
Trust radius (bohr)                        0.200000
Trust radius varies                        T
Constraints converged at all steps         T
Use projector                              T
 
 Rigid motions settings for: old optimizer
 Atomic rotations (x,y,z):     T T T
 Atomic translations (x,y,z):  T T T
 Tolerance:                   1.000000000000000E-006
 
--------
Geometry
--------
Formula: H4NO7Pa
Atoms
  Index Symbol   x (angstrom)   y (angstrom)   z (angstrom)
      1     Pa     0.41169170    -0.08058775     0.10656403       adf.R=2.200
      2      O     1.22291522     1.48824028    -1.00968995       adf.R=1.517
      3      H     1.31347613     1.85521127    -1.89806586       adf.R=1.350
      4      O    -1.39137302     0.97399601     0.43810770       adf.R=1.517
      5      H    -1.77797597     1.79655863     0.11505589       adf.R=1.350
      6      O    -0.06538296    -1.16402262    -1.59015901       adf.R=1.517
      7      H    -0.24906831    -1.74029084    -2.33828326       adf.R=1.350
      8      O    -0.14709702    -1.61636946     1.41349471       adf.R=1.517
      9      H    -0.81865456    -2.28455604     1.59880879       adf.R=1.350
     10      O     2.48726246     0.13459704     1.51883198       adf.R=1.517
     11      O     2.65235561    -1.23133768    -0.14629396       adf.R=1.517
     12      N     3.21984646    -0.68329290     0.85995723       adf.R=1.608
     13      O     4.36417766    -0.91887113     1.16754541       adf.R=1.517
 
Total System Charge             0.00000
Bonding info available!
 
 
----------------
ADF Engine Input
----------------
 
 Basis
 Type TZ2P
 Core None
 End
 XC
 Hybrid B3LYP
 End
 Solvation
 Surf Delley
 Solv name=Water cav0=0.0 cav1=0.0067639
 Charged method=CONJ
 C-Mat POT
 SCF VAR ALL
 CSMRSP
 End
 NumericalQuality Good
 

 Title: *** (NO TITLE) ***

Bad geometry: could not add a dihedral for atom    7
 QuasiNewton optimization: Reading initial Hessian from file.
 *** GO1_GOStep1 ***

 SOLVATION
-------------------------------------------

  The Delley construction of COSMO surface surface is calculated

       Division Level for Surface Triangles (NDIV)                  3
       Final Division Level for Triangles (NFDIV)                   1
       Radius of the Solvent (RSOL)                           1.93000 angstr
  Dielectric Constant (EPSL)                                 78.39000

       COSMO equation is solved iteratively-               conjugate-gradient

       Maximun of Iterations for Charges (NCIX)                  1000
       Criterion for Charge convergence (CCNV)                1.0E-08

  COSMO charges included variationally in SCF

       COSMO included at every SCF cycle

  Geometry-dependent empirical factor                         0.00000

  C-Matrix calculated in cspmtx

  In cspmtx, C-Matrix calculated using fitted potential

-------------------------------------------



 -------------------------------------------
  COSMO surface
  Area             =          577.122
  Volume           =          937.734
  Number of Points =         1566
 -------------------------------------------



 ======================
 RI Hartree-Fock Scheme
 ======================
  
 Fit Set Quality     : GOOD
 Threshold Quality   : GOOD
 Integration Quality : GOOD
 Response Quality    : DEFAULT
 Is Range Separated  :  F
 
 RIHartreeFock Dependency: number of modified vectors:           4
 cosmo_calcen: 0.5 (esolb+esolc) (Hartrees) =   -0.036065

 Solvation energy (screening term,uncorrected) =    -22.631004 kcal/mol

 Solvation energy (dispersion and cavitation terms) =      1.079173 kcal/mol
 Solvation Energy Contributions (Hartrees)
          esola   esolb+esolc
     0.03606480   -0.07212959
 esol last cycle   -0.03606480
  
 Hartree-Fock exchange energy:   -531.721520483019     
 cosmo_calcen: 0.5 (esolb+esolc) (Hartrees) =   -0.036065

 Solvation energy (screening term,uncorrected) =    -22.631016 kcal/mol

 Solvation energy (dispersion and cavitation terms) =      1.079173 kcal/mol
 Solvation Energy Contributions (Hartrees)
          esola   esolb+esolc
     0.03606482   -0.07212963
 esol last cycle   -0.03606482

 Energy gradients wrt nuclear displacements
 ==========================================

     Atom      Cartesian (a.u./angstrom)
                 X         Y         Z
 ----------------------------------------
     1 Pa   -0.000018  0.000041 -0.000096
     2 O     0.000062 -0.000058 -0.000034
     3 H     0.000026 -0.000013 -0.000018
     4 O     0.000067  0.000087  0.000050
     5 H     0.000074  0.000073 -0.000020
     6 O    -0.000083 -0.000022  0.000087
     7 H    -0.000066  0.000053  0.000003
     8 O    -0.000005  0.000035  0.000075
     9 H    -0.000047  0.000065  0.000025
    10 O     0.000066 -0.000050  0.000020
    11 O    -0.000064 -0.000046 -0.000017
    12 N     0.000010 -0.000042 -0.000049
    13 O    -0.000021 -0.000124 -0.000027
 ----------------------------------------
 Mulliken charges used for AMS results%charges...
 
----------------------------------------------------------------------
Geometry Convergence after Step   1       (Hartree/Angstrom,Angstrom)
----------------------------------------------------------------------
current energy                               -3.74491952 Hartree
energy change                      -3.74491952     0.00001300    F
constrained gradient max            0.00010025     0.00010000    F
constrained gradient rms            0.00003029     0.00006667    T
gradient max                        0.00010025
gradient rms                        0.00003029
cart. step max                      0.05856858     0.00100000    F
cart. step rms                      0.01579516     0.00066667    F
 
 
--------
Geometry
--------
Formula: H4NO7Pa
Atoms
  Index Symbol   x (angstrom)   y (angstrom)   z (angstrom)
      1     Pa     0.41134625    -0.07068072     0.10233076       adf.R=2.200
      2      O     1.22811039     1.50639755    -1.00096450       adf.R=1.517
      3      H     1.32038123     1.86122023    -1.89418626       adf.R=1.350
      4      O    -1.39471306     0.97911744     0.43386814       adf.R=1.517
      5      H    -1.77766068     1.80810195     0.12316352       adf.R=1.350
      6      O    -0.05767097    -1.14413629    -1.60382584       adf.R=1.517
      7      H    -0.25573276    -1.79885942    -2.28045481       adf.R=1.350
      8      O    -0.15109442    -1.61751763     1.39202632       adf.R=1.517
      9      H    -0.81375344    -2.29462304     1.57663164       adf.R=1.350
     10      O     2.48320678     0.12870319     1.52107197       adf.R=1.517
     11      O     2.65195742    -1.22241003    -0.15565202       adf.R=1.517
     12      N     3.21714948    -0.68369898     0.85673236       adf.R=1.608
     13      O     4.36064716    -0.92233945     1.16513245       adf.R=1.517
 
Total System Charge             0.00000
Bonding info available!
 
 *** GO1_GOStep2 ***

 SOLVATION
-------------------------------------------

  The Delley construction of COSMO surface surface is calculated

       Division Level for Surface Triangles (NDIV)                  3
       Final Division Level for Triangles (NFDIV)                   1
       Radius of the Solvent (RSOL)                           1.93000 angstr
  Dielectric Constant (EPSL)                                 78.39000

       COSMO equation is solved iteratively-               conjugate-gradient

       Maximun of Iterations for Charges (NCIX)                  1000
       Criterion for Charge convergence (CCNV)                1.0E-08

  COSMO charges included variationally in SCF

       COSMO included at every SCF cycle

  Geometry-dependent empirical factor                         0.00000

  C-Matrix calculated in cspmtx

  In cspmtx, C-Matrix calculated using fitted potential

-------------------------------------------



 -------------------------------------------
  COSMO surface
  Area             =          577.362
  Volume           =          939.162
  Number of Points =         1558
 -------------------------------------------



 ======================
 RI Hartree-Fock Scheme
 ======================
  
 Fit Set Quality     : GOOD
 Threshold Quality   : GOOD
 Integration Quality : GOOD
 Response Quality    : DEFAULT
 Is Range Separated  :  F
 
 RIHartreeFock Dependency: number of modified vectors:           4
 cosmo_calcen: 0.5 (esolb+esolc) (Hartrees) =   -0.036157

 Solvation energy (screening term,uncorrected) =    -22.688722 kcal/mol

 Solvation energy (dispersion and cavitation terms) =      1.079622 kcal/mol
 Solvation Energy Contributions (Hartrees)
          esola   esolb+esolc
     0.03615678   -0.07231355
 esol last cycle   -0.03615678
  
 Hartree-Fock exchange energy:   -531.721913846976     
 cosmo_calcen: 0.5 (esolb+esolc) (Hartrees) =   -0.036157

 Solvation energy (screening term,uncorrected) =    -22.688747 kcal/mol

 Solvation energy (dispersion and cavitation terms) =      1.079622 kcal/mol
 Solvation Energy Contributions (Hartrees)
          esola   esolb+esolc
     0.03615682   -0.07231363
 esol last cycle   -0.03615682

 Energy gradients wrt nuclear displacements
 ==========================================

     Atom      Cartesian (a.u./angstrom)
                 X         Y         Z
 ----------------------------------------
     1 Pa   -0.000029 -0.000388 -0.000720
     2 O     0.000126 -0.000035 -0.000031
     3 H    -0.000000 -0.000036 -0.000003
     4 O     0.000080  0.000062  0.000044
     5 H     0.000048  0.000062  0.000004
     6 O    -0.000040  0.000269  0.000589
     7 H    -0.000019  0.000136  0.000066
     8 O    -0.000157  0.000205  0.000191
     9 H     0.000054 -0.000019 -0.000042
    10 O    -0.000016 -0.000046  0.000028
    11 O    -0.000038 -0.000057  0.000001
    12 N     0.000019 -0.000068 -0.000082
    13 O    -0.000027 -0.000085 -0.000044
 ----------------------------------------
 Mulliken charges used for AMS results%charges...

 dE(predicted):    -0.34325E-05, dE(actual):    -0.60401E-04, Trust radius:    0.200000, all in a.u.
 
----------------------------------------------------------------------
Geometry Convergence after Step   2       (Hartree/Angstrom,Angstrom)
----------------------------------------------------------------------
current energy                               -3.74497993 Hartree
energy change                      -0.00006040     0.00001300    F
constrained gradient max            0.00072466     0.00010000    F
constrained gradient rms            0.00017636     0.00006667    F
gradient max                        0.00072465
gradient rms                        0.00017636
cart. step max                      0.08414938     0.00100000    F
cart. step rms                      0.02068733     0.00066667    F
 
 
--------
Geometry
--------
Formula: H4NO7Pa
Atoms
  Index Symbol   x (angstrom)   y (angstrom)   z (angstrom)
      1     Pa     0.41052126    -0.05936387     0.09648158       adf.R=2.200
      2      O     1.23079667     1.53072787    -0.98789819       adf.R=1.517
      3      H     1.32422860     1.87733602    -1.88435557       adf.R=1.350
      4      O    -1.40037719     0.98209890     0.42644511       adf.R=1.517
      5      H    -1.78067506     1.81714790     0.12898232       adf.R=1.350
      6      O    -0.04465675    -1.12032931    -1.62515537       adf.R=1.517
      7      H    -0.24564494    -1.86833600    -2.19630543       adf.R=1.350
      8      O    -0.15391275    -1.62205285     1.36254778       adf.R=1.517
      9      H    -0.81859750    -2.29328813     1.56061340       adf.R=1.350
     10      O     2.48061821     0.11907622     1.52033062       adf.R=1.517
     11      O     2.65012705    -1.21206773    -0.17197266       adf.R=1.517
     12      N     3.21401454    -0.68770461     0.84852759       adf.R=1.608
     13      O     4.35573123    -0.93396962     1.15763252       adf.R=1.517
 
Total System Charge             0.00000
Bonding info available!
 
 *** GO1_GOStep3 ***

 SOLVATION
-------------------------------------------

  The Delley construction of COSMO surface surface is calculated

       Division Level for Surface Triangles (NDIV)                  3
       Final Division Level for Triangles (NFDIV)                   1
       Radius of the Solvent (RSOL)                           1.93000 angstr
  Dielectric Constant (EPSL)                                 78.39000

       COSMO equation is solved iteratively-               conjugate-gradient

       Maximun of Iterations for Charges (NCIX)                  1000
       Criterion for Charge convergence (CCNV)                1.0E-08

  COSMO charges included variationally in SCF

       COSMO included at every SCF cycle

  Geometry-dependent empirical factor                         0.00000

  C-Matrix calculated in cspmtx

  In cspmtx, C-Matrix calculated using fitted potential

-------------------------------------------



 -------------------------------------------
  COSMO surface
  Area             =          574.830
  Volume           =          936.916
  Number of Points =         1555
 -------------------------------------------



 ======================
 RI Hartree-Fock Scheme
 ======================
  
 Fit Set Quality     : GOOD
 Threshold Quality   : GOOD
 Integration Quality : GOOD
 Response Quality    : DEFAULT
 Is Range Separated  :  F
 
 RIHartreeFock Dependency: number of modified vectors:           4
 cosmo_calcen: 0.5 (esolb+esolc) (Hartrees) =   -0.036449

 Solvation energy (screening term,uncorrected) =    -22.872251 kcal/mol

 Solvation energy (dispersion and cavitation terms) =      1.074887 kcal/mol
 Solvation Energy Contributions (Hartrees)
          esola   esolb+esolc
     0.03644925   -0.07289850
 esol last cycle   -0.03644925
  
 Hartree-Fock exchange energy:   -531.722620312307     
 cosmo_calcen: 0.5 (esolb+esolc) (Hartrees) =   -0.036449

 Solvation energy (screening term,uncorrected) =    -22.872247 kcal/mol

 Solvation energy (dispersion and cavitation terms) =      1.074887 kcal/mol
 Solvation Energy Contributions (Hartrees)
          esola   esolb+esolc
     0.03644924   -0.07289848
 esol last cycle   -0.03644924

 Energy gradients wrt nuclear displacements
 ==========================================

     Atom      Cartesian (a.u./angstrom)
                 X         Y         Z
 ----------------------------------------
     1 Pa   -0.000192 -0.001319 -0.001803
     2 O     0.000219  0.000211  0.000092
     3 H    -0.000050 -0.000073 -0.000012
     4 O     0.000135  0.000016  0.000069
     5 H     0.000061  0.000099 -0.000003
     6 O    -0.000033  0.000674  0.001126
     7 H     0.000136  0.000309  0.000368
     8 O    -0.000226  0.000390  0.000356
     9 H     0.000102 -0.000111 -0.000111
    10 O    -0.000049 -0.000034 -0.000039
    11 O    -0.000063  0.000025 -0.000042
    12 N     0.000018 -0.000072  0.000039
    13 O    -0.000059 -0.000116 -0.000041
 ----------------------------------------
 Mulliken charges used for AMS results%charges...

 dE(predicted):    -0.10553E-04, dE(actual):    -0.86172E-04, Trust radius:    0.400000, all in a.u.
 
----------------------------------------------------------------------
Geometry Convergence after Step   3       (Hartree/Angstrom,Angstrom)
----------------------------------------------------------------------
current energy                               -3.74506610 Hartree
energy change                      -0.00008617     0.00001300    F
constrained gradient max            0.00180634     0.00010000    F
constrained gradient rms            0.00043803     0.00006667    F
gradient max                        0.00180644
gradient rms                        0.00043803
cart. step max                      0.04579453     0.00100000    F
cart. step rms                      0.01632886     0.00066667    F
 
 
--------
Geometry
--------
Formula: H4NO7Pa
Atoms
  Index Symbol   x (angstrom)   y (angstrom)   z (angstrom)
      1     Pa     0.41181940    -0.05680965     0.09172264       adf.R=2.200
      2      O     1.23284636     1.54590438    -0.97382208       adf.R=1.517
      3      H     1.33297666     1.89244565    -1.86964849       adf.R=1.350
      4      O    -1.40612000     0.97043178     0.41483852       adf.R=1.517
      5      H    -1.79909985     1.80422413     0.13085913       adf.R=1.350
      6      O    -0.02715332    -1.10255681    -1.64961057       adf.R=1.517
      7      H    -0.23522059    -1.89782435    -2.15051090       adf.R=1.350
      8      O    -0.15069037    -1.63564700     1.33581828       adf.R=1.517
      9      H    -0.84486859    -2.25688613     1.58842225       adf.R=1.350
     10      O     2.48315229     0.10913994     1.51766553       adf.R=1.517
     11      O     2.65095875    -1.20893084    -0.18480465       adf.R=1.517
     12      N     3.21581578    -0.69260417     0.83932909       adf.R=1.608
     13      O     4.35775687    -0.94161213     1.14561497       adf.R=1.517
 
Total System Charge             0.00000
Bonding info available!
 
 *** GO1_GOStep4 ***

 SOLVATION
-------------------------------------------

  The Delley construction of COSMO surface surface is calculated

       Division Level for Surface Triangles (NDIV)                  3
       Final Division Level for Triangles (NFDIV)                   1
       Radius of the Solvent (RSOL)                           1.93000 angstr
  Dielectric Constant (EPSL)                                 78.39000

       COSMO equation is solved iteratively-               conjugate-gradient

       Maximun of Iterations for Charges (NCIX)                  1000
       Criterion for Charge convergence (CCNV)                1.0E-08

  COSMO charges included variationally in SCF

       COSMO included at every SCF cycle

  Geometry-dependent empirical factor                         0.00000

  C-Matrix calculated in cspmtx

  In cspmtx, C-Matrix calculated using fitted potential

-------------------------------------------



 -------------------------------------------
  COSMO surface
  Area             =          573.812
  Volume           =          937.290
  Number of Points =         1548
 -------------------------------------------



 ======================
 RI Hartree-Fock Scheme
 ======================
  
 Fit Set Quality     : GOOD
 Threshold Quality   : GOOD
 Integration Quality : GOOD
 Response Quality    : DEFAULT
 Is Range Separated  :  F
 
 RIHartreeFock Dependency: number of modified vectors:           4
 cosmo_calcen: 0.5 (esolb+esolc) (Hartrees) =   -0.036703

 Solvation energy (screening term,uncorrected) =    -23.031490 kcal/mol

 Solvation energy (dispersion and cavitation terms) =      1.072983 kcal/mol
 Solvation Energy Contributions (Hartrees)
          esola   esolb+esolc
     0.03670301   -0.07340602
 esol last cycle   -0.03670301
  
 Hartree-Fock exchange energy:   -531.722630887429     
 cosmo_calcen: 0.5 (esolb+esolc) (Hartrees) =   -0.036703

 Solvation energy (screening term,uncorrected) =    -23.031510 kcal/mol

 Solvation energy (dispersion and cavitation terms) =      1.072983 kcal/mol
 Solvation Energy Contributions (Hartrees)
          esola   esolb+esolc
     0.03670304   -0.07340609
 esol last cycle   -0.03670304

 Energy gradients wrt nuclear displacements
 ==========================================

     Atom      Cartesian (a.u./angstrom)
                 X         Y         Z
 ----------------------------------------
     1 Pa   -0.000099 -0.001094 -0.001533
     2 O     0.000129  0.000217  0.000132
     3 H    -0.000031 -0.000107 -0.000037
     4 O     0.000129  0.000017 -0.000058
     5 H     0.000062  0.000110 -0.000011
     6 O    -0.000126  0.000576  0.000931
     7 H     0.000203  0.000329  0.000464
     8 O    -0.000186  0.000404  0.000253
     9 H     0.000072 -0.000203 -0.000050
    10 O    -0.000088 -0.000079 -0.000045
    11 O    -0.000101 -0.000063 -0.000046
    12 N     0.000075 -0.000019  0.000029
    13 O    -0.000040 -0.000089 -0.000028
 ----------------------------------------
 Mulliken charges used for AMS results%charges...

 dE(predicted):    -0.15193E-04, dE(actual):    -0.81393E-04, Trust radius:    0.800000, all in a.u.
 
----------------------------------------------------------------------
Geometry Convergence after Step   4       (Hartree/Angstrom,Angstrom)
----------------------------------------------------------------------
current energy                               -3.74514749 Hartree
energy change                      -0.00008139     0.00001300    F
constrained gradient max            0.00153458     0.00010000    F
constrained gradient rms            0.00037813     0.00006667    F
gradient max                        0.00153482
gradient rms                        0.00037813
cart. step max                      0.08003519     0.00100000    F
cart. step rms                      0.02267336     0.00066667    F
 
 
--------
Geometry
--------
Formula: H4NO7Pa
Atoms
  Index Symbol   x (angstrom)   y (angstrom)   z (angstrom)
      1     Pa     0.41534212    -0.06672022     0.08729556       adf.R=2.200
      2      O     1.23214952     1.54568915    -0.96404960       adf.R=1.517
      3      H     1.34888167     1.90216745    -1.85391986       adf.R=1.350
      4      O    -1.40962356     0.94331758     0.40254083       adf.R=1.517
      5      H    -1.82612978     1.77003232     0.13213456       adf.R=1.350
      6      O    -0.00620239    -1.09916855    -1.67419600       adf.R=1.517
      7      H    -0.25090744    -1.87546881    -2.18871889       adf.R=1.350
      8      O    -0.14196101    -1.65750552     1.31831262       adf.R=1.517
      9      H    -0.87000479    -2.18589226     1.66845744       adf.R=1.350
     10      O     2.48852868     0.10581354     1.51468048       adf.R=1.517
     11      O     2.65590222    -1.21555468    -0.18524541       adf.R=1.517
     12      N     3.22152731    -0.69571483     0.83706426       adf.R=1.608
     13      O     4.36467085    -0.94172036     1.14151771       adf.R=1.517
 
Total System Charge             0.00000
Bonding info available!
 
 *** GO1_GOStep5 ***

 SOLVATION
-------------------------------------------

  The Delley construction of COSMO surface surface is calculated

       Division Level for Surface Triangles (NDIV)                  3
       Final Division Level for Triangles (NFDIV)                   1
       Radius of the Solvent (RSOL)                           1.93000 angstr
  Dielectric Constant (EPSL)                                 78.39000

       COSMO equation is solved iteratively-               conjugate-gradient

       Maximun of Iterations for Charges (NCIX)                  1000
       Criterion for Charge convergence (CCNV)                1.0E-08

  COSMO charges included variationally in SCF

       COSMO included at every SCF cycle

  Geometry-dependent empirical factor                         0.00000

  C-Matrix calculated in cspmtx

  In cspmtx, C-Matrix calculated using fitted potential

-------------------------------------------



 -------------------------------------------
  COSMO surface
  Area             =          573.365
  Volume           =          936.025
  Number of Points =         1541
 -------------------------------------------



 ======================
 RI Hartree-Fock Scheme
 ======================
  
 Fit Set Quality     : GOOD
 Threshold Quality   : GOOD
 Integration Quality : GOOD
 Response Quality    : DEFAULT
 Is Range Separated  :  F
 
 RIHartreeFock Dependency: number of modified vectors:           4
 cosmo_calcen: 0.5 (esolb+esolc) (Hartrees) =   -0.036720

 Solvation energy (screening term,uncorrected) =    -23.042165 kcal/mol

 Solvation energy (dispersion and cavitation terms) =      1.072149 kcal/mol
 Solvation Energy Contributions (Hartrees)
          esola   esolb+esolc
     0.03672002   -0.07344005
 esol last cycle   -0.03672002
  
 Hartree-Fock exchange energy:   -531.720512726637     
 cosmo_calcen: 0.5 (esolb+esolc) (Hartrees) =   -0.036720

 Solvation energy (screening term,uncorrected) =    -23.042161 kcal/mol

 Solvation energy (dispersion and cavitation terms) =      1.072149 kcal/mol
 Solvation Energy Contributions (Hartrees)
          esola   esolb+esolc
     0.03672002   -0.07344003
 esol last cycle   -0.03672002

 Energy gradients wrt nuclear displacements
 ==========================================

     Atom      Cartesian (a.u./angstrom)
                 X         Y         Z
 ----------------------------------------
     1 Pa    0.000664  0.002009  0.002728
     2 O    -0.000303 -0.000143  0.000021
     3 H     0.000127 -0.000004 -0.000080
     4 O     0.000070  0.000085 -0.000402
     5 H     0.000041  0.000075  0.000012
     6 O    -0.000383 -0.001241 -0.001454
     7 H    -0.000223 -0.000139 -0.000543
     8 O    -0.000061 -0.000002 -0.000341
     9 H    -0.000022 -0.000116  0.000245
    10 O     0.000025  0.000019 -0.000061
    11 O    -0.000057 -0.000356 -0.000068
    12 N     0.000098 -0.000143 -0.000039
    13 O     0.000024 -0.000044 -0.000018
 ----------------------------------------
 Mulliken charges used for AMS results%charges...

 dE(predicted):    -0.31785E-04, dE(actual):    -0.35497E-04, Trust radius:    0.800000, all in a.u.
 
----------------------------------------------------------------------
Geometry Convergence after Step   5       (Hartree/Angstrom,Angstrom)
----------------------------------------------------------------------
current energy                               -3.74518299 Hartree
energy change                      -0.00003550     0.00001300    F
constrained gradient max            0.00272690     0.00010000    F
constrained gradient rms            0.00065452     0.00006667    F
gradient max                        0.00272725
gradient rms                        0.00065452
cart. step max                      0.05158766     0.00100000    F
cart. step rms                      0.01205033     0.00066667    F
 
 
--------
Geometry
--------
Formula: H4NO7Pa
Atoms
  Index Symbol   x (angstrom)   y (angstrom)   z (angstrom)
      1     Pa     0.41652225    -0.06423008     0.07904482       adf.R=2.200
      2      O     1.23754216     1.55435421    -0.96127477       adf.R=1.517
      3      H     1.34427914     1.91198736    -1.85199935       adf.R=1.350
      4      O    -1.40749925     0.94300990     0.40470276       adf.R=1.517
      5      H    -1.83212377     1.76735297     0.13990131       adf.R=1.350
      6      O     0.00021655    -1.08483351    -1.69185283       adf.R=1.517
      7      H    -0.24040842    -1.90423493    -2.13713123       adf.R=1.350
      8      O    -0.14320520    -1.66470348     1.29588918       adf.R=1.517
      9      H    -0.87870439    -2.17072477     1.66305675       adf.R=1.350
     10      O     2.48511988     0.09883292     1.51413510       adf.R=1.517
     11      O     2.65792991    -1.21212601    -0.19332940       adf.R=1.517
     12      N     3.22020295    -0.69867981     0.83400140       adf.R=1.608
     13      O     4.36230158    -0.94672998     1.14072998       adf.R=1.517
 
Total System Charge             0.00000
Bonding info available!
 
 *** GO1_GOStep6 ***

 SOLVATION
-------------------------------------------

  The Delley construction of COSMO surface surface is calculated

       Division Level for Surface Triangles (NDIV)                  3
       Final Division Level for Triangles (NFDIV)                   1
       Radius of the Solvent (RSOL)                           1.93000 angstr
  Dielectric Constant (EPSL)                                 78.39000

       COSMO equation is solved iteratively-               conjugate-gradient

       Maximun of Iterations for Charges (NCIX)                  1000
       Criterion for Charge convergence (CCNV)                1.0E-08

  COSMO charges included variationally in SCF

       COSMO included at every SCF cycle

  Geometry-dependent empirical factor                         0.00000

  C-Matrix calculated in cspmtx

  In cspmtx, C-Matrix calculated using fitted potential

-------------------------------------------



 -------------------------------------------
  COSMO surface
  Area             =          574.209
  Volume           =          938.945
  Number of Points =         1539
 -------------------------------------------



 ======================
 RI Hartree-Fock Scheme
 ======================
  
 Fit Set Quality     : GOOD
 Threshold Quality   : GOOD
 Integration Quality : GOOD
 Response Quality    : DEFAULT
 Is Range Separated  :  F
 
 RIHartreeFock Dependency: number of modified vectors:           4
 cosmo_calcen: 0.5 (esolb+esolc) (Hartrees) =   -0.036948

 Solvation energy (screening term,uncorrected) =    -23.185466 kcal/mol

 Solvation energy (dispersion and cavitation terms) =      1.073726 kcal/mol
 Solvation Energy Contributions (Hartrees)
          esola   esolb+esolc
     0.03694839   -0.07389678
 esol last cycle   -0.03694839
  
 Hartree-Fock exchange energy:   -531.721829264554     
 cosmo_calcen: 0.5 (esolb+esolc) (Hartrees) =   -0.036948

 Solvation energy (screening term,uncorrected) =    -23.185480 kcal/mol

 Solvation energy (dispersion and cavitation terms) =      1.073726 kcal/mol
 Solvation Energy Contributions (Hartrees)
          esola   esolb+esolc
     0.03694841   -0.07389682
 esol last cycle   -0.03694841

 Energy gradients wrt nuclear displacements
 ==========================================

     Atom      Cartesian (a.u./angstrom)
                 X         Y         Z
 ----------------------------------------
     1 Pa    0.000112 -0.000001 -0.000034
     2 O     0.000023  0.000073  0.000085
     3 H     0.000030 -0.000055 -0.000068
     4 O     0.000129 -0.000007 -0.000190
     5 H     0.000014  0.000060  0.000001
     6 O    -0.000171  0.000248  0.000038
     7 H     0.000012 -0.000054  0.000094
     8 O    -0.000126  0.000132 -0.000026
     9 H     0.000013 -0.000051  0.000137
    10 O    -0.000002  0.000084  0.000013
    11 O    -0.000080 -0.000282  0.000010
    12 N     0.000044 -0.000136 -0.000066
    13 O     0.000002 -0.000012  0.000005
 ----------------------------------------
 Mulliken charges used for AMS results%charges...
 Rebuilding optimization coordinates

 dE(predicted):    -0.18075E-04, dE(actual):    -0.18062E-04, Trust radius:    1.000000, all in a.u.
 
----------------------------------------------------------------------
Geometry Convergence after Step   6       (Hartree/Angstrom,Angstrom)
----------------------------------------------------------------------
current energy                               -3.74520105 Hartree
energy change                      -0.00001806     0.00001300    F
constrained gradient max            0.00025006     0.00010000    F
constrained gradient rms            0.00008982     0.00006667    F
gradient max                        0.00024945
gradient rms                        0.00008983
cart. step max                      0.03050361     0.00100000    F
cart. step rms                      0.00885347     0.00066667    F
 
 
--------
Geometry
--------
Formula: H4NO7Pa
Atoms
  Index Symbol   x (angstrom)   y (angstrom)   z (angstrom)
      1     Pa     0.41704119    -0.06578383     0.08057033       adf.R=2.200
      2      O     1.23480372     1.54707149    -0.97059525       adf.R=1.517
      3      H     1.34412451     1.89869955    -1.86337687       adf.R=1.350
      4      O    -1.40277001     0.94769477     0.41938881       adf.R=1.517
      5      H    -1.81830952     1.77571730     0.15146485       adf.R=1.350
      6      O    -0.00354406    -1.09495513    -1.68200819       adf.R=1.517
      7      H    -0.25003513    -1.90075963    -2.14817983       adf.R=1.350
      8      O    -0.14207008    -1.66395301     1.30271173       adf.R=1.517
      9      H    -0.88613596    -2.18306102     1.63255314       adf.R=1.350
     10      O     2.48261118     0.10395073     1.51716675       adf.R=1.517
     11      O     2.66185163    -1.20752301    -0.18925427       adf.R=1.517
     12      N     3.22112588    -0.69172448     0.83844089       adf.R=1.608
     13      O     4.36348006    -0.93609891     1.14699161       adf.R=1.517
 
Total System Charge             0.00000
Bonding info available!
 
 *** GO1_GOStep7 ***

 SOLVATION
-------------------------------------------

  The Delley construction of COSMO surface surface is calculated

       Division Level for Surface Triangles (NDIV)                  3
       Final Division Level for Triangles (NFDIV)                   1
       Radius of the Solvent (RSOL)                           1.93000 angstr
  Dielectric Constant (EPSL)                                 78.39000

       COSMO equation is solved iteratively-               conjugate-gradient

       Maximun of Iterations for Charges (NCIX)                  1000
       Criterion for Charge convergence (CCNV)                1.0E-08

  COSMO charges included variationally in SCF

       COSMO included at every SCF cycle

  Geometry-dependent empirical factor                         0.00000

  C-Matrix calculated in cspmtx

  In cspmtx, C-Matrix calculated using fitted potential

-------------------------------------------



 -------------------------------------------
  COSMO surface
  Area             =          573.953
  Volume           =          938.444
  Number of Points =         1546
 -------------------------------------------



 ======================
 RI Hartree-Fock Scheme
 ======================
  
 Fit Set Quality     : GOOD
 Threshold Quality   : GOOD
 Integration Quality : GOOD
 Response Quality    : DEFAULT
 Is Range Separated  :  F
 
 RIHartreeFock Dependency: number of modified vectors:           4
 cosmo_calcen: 0.5 (esolb+esolc) (Hartrees) =   -0.036848

 Solvation energy (screening term,uncorrected) =    -23.122472 kcal/mol

 Solvation energy (dispersion and cavitation terms) =      1.073248 kcal/mol
 Solvation Energy Contributions (Hartrees)
          esola   esolb+esolc
     0.03684800   -0.07369600
 esol last cycle   -0.03684800
  
 Hartree-Fock exchange energy:   -531.721970579832     
 cosmo_calcen: 0.5 (esolb+esolc) (Hartrees) =   -0.036848

 Solvation energy (screening term,uncorrected) =    -23.122472 kcal/mol

 Solvation energy (dispersion and cavitation terms) =      1.073248 kcal/mol
 Solvation Energy Contributions (Hartrees)
          esola   esolb+esolc
     0.03684800   -0.07369600
 esol last cycle   -0.03684800

 Energy gradients wrt nuclear displacements
 ==========================================

     Atom      Cartesian (a.u./angstrom)
                 X         Y         Z
 ----------------------------------------
     1 Pa    0.000059  0.000195 -0.000170
     2 O     0.000063 -0.000058 -0.000083
     3 H     0.000037 -0.000021 -0.000025
     4 O    -0.000079  0.000172  0.000106
     5 H     0.000077  0.000028 -0.000018
     6 O     0.000007 -0.000015  0.000156
     7 H    -0.000046  0.000009  0.000021
     8 O    -0.000017 -0.000052  0.000126
     9 H    -0.000011  0.000096 -0.000075
    10 O     0.000037 -0.000063 -0.000008
    11 O    -0.000055 -0.000225  0.000001
    12 N    -0.000089  0.000007 -0.000032
    13 O     0.000017 -0.000074  0.000000
 ----------------------------------------
 Mulliken charges used for AMS results%charges...
 
----------------------------------------------------------------------
Geometry Convergence after Step   7       (Hartree/Angstrom,Angstrom)
----------------------------------------------------------------------
current energy                               -3.74520008 Hartree
energy change                       0.00000097     0.00001300    T
constrained gradient max            0.00018056     0.00010000    F
constrained gradient rms            0.00007294     0.00006667    F
gradient max                        0.00018056
gradient rms                        0.00007294
cart. step max                      0.03484185     0.00100000    F
cart. step rms                      0.00912263     0.00066667    F
 
 
--------
Geometry
--------
Formula: H4NO7Pa
Atoms
  Index Symbol   x (angstrom)   y (angstrom)   z (angstrom)
      1     Pa     0.41705371    -0.06756442     0.07761224       adf.R=2.200
      2      O     1.23599030     1.55242250    -0.96176424       adf.R=1.517
      3      H     1.34718058     1.90830259    -1.85263972       adf.R=1.350
      4      O    -1.40654350     0.93892898     0.40751517       adf.R=1.517
      5      H    -1.82975625     1.76479413     0.14506929       adf.R=1.350
      6      O     0.00379450    -1.08737637    -1.69497314       adf.R=1.517
      7      H    -0.24671861    -1.90193121    -2.14366040       adf.R=1.350
      8      O    -0.14296037    -1.66940231     1.29327660       adf.R=1.517
      9      H    -0.88582224    -2.15947776     1.66739499       adf.R=1.350
     10      O     2.48337960     0.09728369     1.51624938       adf.R=1.517
     11      O     2.66174488    -1.20759027    -0.19520298       adf.R=1.517
     12      N     3.22134118    -0.69625080     0.83471807       adf.R=1.608
     13      O     4.36348964    -0.94286394     1.14227844       adf.R=1.517
 
Total System Charge             0.00000
Bonding info available!
 
 *** GO1_GOStep8 ***

 SOLVATION
-------------------------------------------

  The Delley construction of COSMO surface surface is calculated

       Division Level for Surface Triangles (NDIV)                  3
       Final Division Level for Triangles (NFDIV)                   1
       Radius of the Solvent (RSOL)                           1.93000 angstr
  Dielectric Constant (EPSL)                                 78.39000

       COSMO equation is solved iteratively-               conjugate-gradient

       Maximun of Iterations for Charges (NCIX)                  1000
       Criterion for Charge convergence (CCNV)                1.0E-08

  COSMO charges included variationally in SCF

       COSMO included at every SCF cycle

  Geometry-dependent empirical factor                         0.00000

  C-Matrix calculated in cspmtx

  In cspmtx, C-Matrix calculated using fitted potential

-------------------------------------------



 -------------------------------------------
  COSMO surface
  Area             =          574.638
  Volume           =          939.452
  Number of Points =         1545
 -------------------------------------------



 ======================
 RI Hartree-Fock Scheme
 ======================
  
 Fit Set Quality     : GOOD
 Threshold Quality   : GOOD
 Integration Quality : GOOD
 Response Quality    : DEFAULT
 Is Range Separated  :  F
 
 RIHartreeFock Dependency: number of modified vectors:           4
 cosmo_calcen: 0.5 (esolb+esolc) (Hartrees) =   -0.036944

 Solvation energy (screening term,uncorrected) =    -23.183016 kcal/mol

 Solvation energy (dispersion and cavitation terms) =      1.074528 kcal/mol
 Solvation Energy Contributions (Hartrees)
          esola   esolb+esolc
     0.03694448   -0.07388897
 esol last cycle   -0.03694448
  
 Hartree-Fock exchange energy:   -531.721784083444     
 cosmo_calcen: 0.5 (esolb+esolc) (Hartrees) =   -0.036944

 Solvation energy (screening term,uncorrected) =    -23.183020 kcal/mol

 Solvation energy (dispersion and cavitation terms) =      1.074528 kcal/mol
 Solvation Energy Contributions (Hartrees)
          esola   esolb+esolc
     0.03694449   -0.07388898
 esol last cycle   -0.03694449

 Energy gradients wrt nuclear displacements
 ==========================================

     Atom      Cartesian (a.u./angstrom)
                 X         Y         Z
 ----------------------------------------
     1 Pa    0.000082  0.000154  0.000358
     2 O     0.000002  0.000016  0.000016
     3 H     0.000047 -0.000054 -0.000052
     4 O     0.000126 -0.000030 -0.000136
     5 H     0.000025  0.000105 -0.000012
     6 O    -0.000091  0.000054 -0.000153
     7 H    -0.000080 -0.000095 -0.000015
     8 O    -0.000024  0.000127 -0.000089
     9 H    -0.000063  0.000008  0.000147
    10 O     0.000003  0.000029 -0.000020
    11 O    -0.000068 -0.000155 -0.000007
    12 N     0.000068 -0.000107 -0.000020
    13 O    -0.000025 -0.000054 -0.000017
 ----------------------------------------
 Mulliken charges used for AMS results%charges...

 dE(predicted):    -0.35354E-05, dE(actual):     0.12317E-04, Trust radius:    0.057933, all in a.u.
 
----------------------------------------------------------------------
Geometry Convergence after Step   8       (Hartree/Angstrom,Angstrom)
----------------------------------------------------------------------
current energy                               -3.74518777 Hartree
energy change                       0.00001232     0.00001300    T
constrained gradient max            0.00035774     0.00010000    F
constrained gradient rms            0.00008840     0.00006667    F
gradient max                        0.00035774
gradient rms                        0.00008840
cart. step max                      0.01162158     0.00100000    F
cart. step rms                      0.00315956     0.00066667    F
 
 
--------
Geometry
--------
Formula: H4NO7Pa
Atoms
  Index Symbol   x (angstrom)   y (angstrom)   z (angstrom)
      1     Pa     0.41710739    -0.06792662     0.07758537       adf.R=2.200
      2      O     1.23536044     1.55002857    -0.96531982       adf.R=1.517
      3      H     1.34692922     1.90440137    -1.85674380       adf.R=1.350
      4      O    -1.40453447     0.94129801     0.41330639       adf.R=1.517
      5      H    -1.82480695     1.76837808     0.14994341       adf.R=1.350
      6      O     0.00207018    -1.09058350    -1.69204386       adf.R=1.517
      7      H    -0.24868593    -1.90264910    -2.14497862       adf.R=1.350
      8      O    -0.14264230    -1.66935817     1.29458999       adf.R=1.517
      9      H    -0.88867456    -2.16427613     1.65577340       adf.R=1.350
     10      O     2.48202290     0.09892464     1.51711154       adf.R=1.517
     11      O     2.66308919    -1.20598198    -0.19405560       adf.R=1.517
     12      N     3.22136770    -0.69386756     0.83613637       adf.R=1.608
     13      O     4.36357059    -0.93911283     1.14456893       adf.R=1.517
 
Total System Charge             0.00000
Bonding info available!
 
 *** GO1_GOStep9 ***

 SOLVATION
-------------------------------------------

  The Delley construction of COSMO surface surface is calculated

       Division Level for Surface Triangles (NDIV)                  3
       Final Division Level for Triangles (NFDIV)                   1
       Radius of the Solvent (RSOL)                           1.93000 angstr
  Dielectric Constant (EPSL)                                 78.39000

       COSMO equation is solved iteratively-               conjugate-gradient

       Maximun of Iterations for Charges (NCIX)                  1000
       Criterion for Charge convergence (CCNV)                1.0E-08

  COSMO charges included variationally in SCF

       COSMO included at every SCF cycle

  Geometry-dependent empirical factor                         0.00000

  C-Matrix calculated in cspmtx

  In cspmtx, C-Matrix calculated using fitted potential

-------------------------------------------



 -------------------------------------------
  COSMO surface
  Area             =          574.566
  Volume           =          939.399
  Number of Points =         1545
 -------------------------------------------



 ======================
 RI Hartree-Fock Scheme
 ======================
  
 Fit Set Quality     : GOOD
 Threshold Quality   : GOOD
 Integration Quality : GOOD
 Response Quality    : DEFAULT
 Is Range Separated  :  F
 
 RIHartreeFock Dependency: number of modified vectors:           4
 cosmo_calcen: 0.5 (esolb+esolc) (Hartrees) =   -0.036902

 Solvation energy (screening term,uncorrected) =    -23.156140 kcal/mol

 Solvation energy (dispersion and cavitation terms) =      1.074393 kcal/mol
 Solvation Energy Contributions (Hartrees)
          esola   esolb+esolc
     0.03690165   -0.07380331
 esol last cycle   -0.03690165
  
 Hartree-Fock exchange energy:   -531.721592698215     
 cosmo_calcen: 0.5 (esolb+esolc) (Hartrees) =   -0.036902

 Solvation energy (screening term,uncorrected) =    -23.156141 kcal/mol

 Solvation energy (dispersion and cavitation terms) =      1.074393 kcal/mol
 Solvation Energy Contributions (Hartrees)
          esola   esolb+esolc
     0.03690166   -0.07380331
 esol last cycle   -0.03690166

 Energy gradients wrt nuclear displacements
 ==========================================

     Atom      Cartesian (a.u./angstrom)
                 X         Y         Z
 ----------------------------------------
     1 Pa    0.000078  0.000103  0.000157
     2 O     0.000047 -0.000004 -0.000020
     3 H     0.000045 -0.000038 -0.000038
     4 O     0.000025  0.000063 -0.000008
     5 H     0.000046  0.000083 -0.000013
     6 O     0.000072  0.000558  0.000063
     7 H    -0.000219 -0.000599 -0.000182
     8 O     0.000027  0.000047  0.000002
     9 H    -0.000090  0.000053  0.000065
    10 O     0.000027 -0.000006 -0.000007
    11 O    -0.000048 -0.000137  0.000003
    12 N    -0.000004 -0.000054 -0.000015
    13 O    -0.000007 -0.000069 -0.000008
 ----------------------------------------
 Mulliken charges used for AMS results%charges...

 dE(predicted):    -0.14740E-05, dE(actual):     0.14892E-03, Trust radius:    0.020000, all in a.u.
 
----------------------------------------------------------------------
Geometry Convergence after Step   9       (Hartree/Angstrom,Angstrom)
----------------------------------------------------------------------
current energy                               -3.74503884 Hartree
energy change                       0.00014892     0.00001300    F
constrained gradient max            0.00059915     0.00010000    F
constrained gradient rms            0.00014405     0.00006667    F
gradient max                        0.00059915
gradient rms                        0.00014405
cart. step max                      0.00926973     0.00100000    F
cart. step rms                      0.00244779     0.00066667    F
 
 
--------
Geometry
--------
Formula: H4NO7Pa
Atoms
  Index Symbol   x (angstrom)   y (angstrom)   z (angstrom)
      1     Pa     0.41690988    -0.06951025     0.07739499       adf.R=2.200
      2      O     1.23454392     1.54706463    -0.96798955       adf.R=1.517
      3      H     1.34625689     1.90114855    -1.85949365       adf.R=1.350
      4      O    -1.40314360     0.94175447     0.41773750       adf.R=1.517
      5      H    -1.82170409     1.76955877     0.15395801       adf.R=1.350
      6      O     0.00169825    -1.09403942    -1.68982917       adf.R=1.517
      7      H    -0.24842553    -1.89936456    -2.15424835       adf.R=1.350
      8      O    -0.14255023    -1.67026794     1.29618515       adf.R=1.517
      9      H    -0.89134816    -2.16306897     1.65441956       adf.R=1.350
     10      O     2.48073101     0.09971465     1.51764192       adf.R=1.517
     11      O     2.66425783    -1.20506686    -0.19333868       adf.R=1.517
     12      N     3.22134008    -0.69230810     0.83713384       adf.R=1.608
     13      O     4.36360714    -0.93634016     1.14630214       adf.R=1.517
 
Total System Charge             0.00000
Bonding info available!
 
 *** GO1_GOStep10 ***

 SOLVATION
-------------------------------------------

  The Delley construction of COSMO surface surface is calculated

       Division Level for Surface Triangles (NDIV)                  3
       Final Division Level for Triangles (NFDIV)                   1
       Radius of the Solvent (RSOL)                           1.93000 angstr
  Dielectric Constant (EPSL)                                 78.39000

       COSMO equation is solved iteratively-               conjugate-gradient

       Maximun of Iterations for Charges (NCIX)                  1000
       Criterion for Charge convergence (CCNV)                1.0E-08

  COSMO charges included variationally in SCF

       COSMO included at every SCF cycle

  Geometry-dependent empirical factor                         0.00000

  C-Matrix calculated in cspmtx

  In cspmtx, C-Matrix calculated using fitted potential

-------------------------------------------



 -------------------------------------------
  COSMO surface
  Area             =          573.998
  Volume           =          938.454
  Number of Points =         1544
 -------------------------------------------



 ======================
 RI Hartree-Fock Scheme
 ======================
  
 Fit Set Quality     : GOOD
 Threshold Quality   : GOOD
 Integration Quality : GOOD
 Response Quality    : DEFAULT
 Is Range Separated  :  F
 
 RIHartreeFock Dependency: number of modified vectors:           4
 cosmo_calcen: 0.5 (esolb+esolc) (Hartrees) =   -0.036841

 Solvation energy (screening term,uncorrected) =    -23.117847 kcal/mol

 Solvation energy (dispersion and cavitation terms) =      1.073331 kcal/mol
 Solvation Energy Contributions (Hartrees)
          esola   esolb+esolc
     0.03684063   -0.07368126
 esol last cycle   -0.03684063
  
 Hartree-Fock exchange energy:   -531.722262932769     
 cosmo_calcen: 0.5 (esolb+esolc) (Hartrees) =   -0.036841

 Solvation energy (screening term,uncorrected) =    -23.117848 kcal/mol

 Solvation energy (dispersion and cavitation terms) =      1.073331 kcal/mol
 Solvation Energy Contributions (Hartrees)
          esola   esolb+esolc
     0.03684063   -0.07368126
 esol last cycle   -0.03684063

 Energy gradients wrt nuclear displacements
 ==========================================

     Atom      Cartesian (a.u./angstrom)
                 X         Y         Z
 ----------------------------------------
     1 Pa    0.000025 -0.000053 -0.000285
     2 O     0.000055 -0.000109 -0.000088
     3 H     0.000044 -0.000020 -0.000029
     4 O    -0.000057  0.000165  0.000070
     5 H     0.000081  0.000025 -0.000006
     6 O    -0.000095 -0.000525 -0.000074
     7 H     0.000079  0.000507  0.000253
     8 O    -0.000023 -0.000082  0.000030
     9 H    -0.000019  0.000150 -0.000008
    10 O     0.000005  0.000025  0.000152
    11 O    -0.000028  0.000031  0.000029
    12 N    -0.000069 -0.000016 -0.000029
    13 O     0.000002 -0.000098 -0.000016
 ----------------------------------------
 Mulliken charges used for AMS results%charges...

 dE(predicted):    -0.15760E-05, dE(actual):    -0.16190E-03, Trust radius:    0.040000, all in a.u.
 
----------------------------------------------------------------------
Geometry Convergence after Step  10       (Hartree/Angstrom,Angstrom)
----------------------------------------------------------------------
current energy                               -3.74520075 Hartree
energy change                      -0.00016190     0.00001300    F
constrained gradient max            0.00051741     0.00010000    F
constrained gradient rms            0.00014348     0.00006667    F
gradient max                        0.00051741
gradient rms                        0.00014348
cart. step max                      0.00463505     0.00100000    F
cart. step rms                      0.00190442     0.00066667    F
 
 
--------
Geometry
--------
Formula: H4NO7Pa
Atoms
  Index Symbol   x (angstrom)   y (angstrom)   z (angstrom)
      1     Pa     0.41658980    -0.06809339     0.07887565       adf.R=2.200
      2      O     1.23447731     1.54894437    -0.96573246       adf.R=1.517
      3      H     1.34687115     1.90262294    -1.85731401       adf.R=1.350
      4      O    -1.40466554     0.94239009     0.41493433       adf.R=1.517
      5      H    -1.82275803     1.76987506     0.14932296       adf.R=1.350
      6      O     0.00094774    -1.09289378    -1.68835562       adf.R=1.517
      7      H    -0.24678417    -1.90104344    -2.14963814       adf.R=1.350
      8      O    -0.14331283    -1.66751955     1.29875439       adf.R=1.517
      9      H    -0.88949821    -2.16745212     1.65257945       adf.R=1.350
     10      O     2.48202957     0.09928809     1.51695958       adf.R=1.517
     11      O     2.66310390    -1.20528291    -0.19435916       adf.R=1.517
     12      N     3.22144395    -0.69325205     0.83577550       adf.R=1.608
     13      O     4.36372876    -0.93830850     1.14407123       adf.R=1.517
 
Total System Charge             0.00000
Bonding info available!
 
 *** GO1_GOStep11 ***

 SOLVATION
-------------------------------------------

  The Delley construction of COSMO surface surface is calculated

       Division Level for Surface Triangles (NDIV)                  3
       Final Division Level for Triangles (NFDIV)                   1
       Radius of the Solvent (RSOL)                           1.93000 angstr
  Dielectric Constant (EPSL)                                 78.39000

       COSMO equation is solved iteratively-               conjugate-gradient

       Maximun of Iterations for Charges (NCIX)                  1000
       Criterion for Charge convergence (CCNV)                1.0E-08

  COSMO charges included variationally in SCF

       COSMO included at every SCF cycle

  Geometry-dependent empirical factor                         0.00000

  C-Matrix calculated in cspmtx

  In cspmtx, C-Matrix calculated using fitted potential

-------------------------------------------



 -------------------------------------------
  COSMO surface
  Area             =          573.626
  Volume           =          938.028
  Number of Points =         1542
 -------------------------------------------



 ======================
 RI Hartree-Fock Scheme
 ======================
  
 Fit Set Quality     : GOOD
 Threshold Quality   : GOOD
 Integration Quality : GOOD
 Response Quality    : DEFAULT
 Is Range Separated  :  F
 
 RIHartreeFock Dependency: number of modified vectors:           4
 cosmo_calcen: 0.5 (esolb+esolc) (Hartrees) =   -0.036871

 Solvation energy (screening term,uncorrected) =    -23.136691 kcal/mol

 Solvation energy (dispersion and cavitation terms) =      1.072636 kcal/mol
 Solvation Energy Contributions (Hartrees)
          esola   esolb+esolc
     0.03687066   -0.07374132
 esol last cycle   -0.03687066
  
 Hartree-Fock exchange energy:   -531.722046583953     
 cosmo_calcen: 0.5 (esolb+esolc) (Hartrees) =   -0.036871

 Solvation energy (screening term,uncorrected) =    -23.136692 kcal/mol

 Solvation energy (dispersion and cavitation terms) =      1.072636 kcal/mol
 Solvation Energy Contributions (Hartrees)
          esola   esolb+esolc
     0.03687066   -0.07374132
 esol last cycle   -0.03687066

 Energy gradients wrt nuclear displacements
 ==========================================

     Atom      Cartesian (a.u./angstrom)
                 X         Y         Z
 ----------------------------------------
     1 Pa   -0.000011  0.000149  0.000088
     2 O     0.000047 -0.000044 -0.000053
     3 H     0.000050 -0.000041 -0.000031
     4 O     0.000015  0.000089  0.000030
     5 H     0.000062  0.000059 -0.000025
     6 O     0.000008 -0.000012  0.000049
     7 H    -0.000062 -0.000013  0.000018
     8 O    -0.000025  0.000029  0.000042
     9 H    -0.000053  0.000079  0.000013
    10 O     0.000022 -0.000077 -0.000109
    11 O    -0.000015 -0.000094 -0.000007
    12 N    -0.000023 -0.000040 -0.000006
    13 O    -0.000014 -0.000084 -0.000009
 ----------------------------------------
 Mulliken charges used for AMS results%charges...

 dE(predicted):    -0.95797E-06, dE(actual):     0.39125E-04, Trust radius:    0.020000, all in a.u.
 
----------------------------------------------------------------------
Geometry Convergence after Step  11       (Hartree/Angstrom,Angstrom)
----------------------------------------------------------------------
current energy                               -3.74516162 Hartree
energy change                       0.00003912     0.00001300    F
constrained gradient max            0.00013494     0.00010000    F
constrained gradient rms            0.00003511     0.00006667    T
gradient max                        0.00013494
gradient rms                        0.00003511
cart. step max                      0.00299330     0.00100000    F
cart. step rms                      0.00100271     0.00066667    F
 
 
--------
Geometry
--------
Formula: H4NO7Pa
Atoms
  Index Symbol   x (angstrom)   y (angstrom)   z (angstrom)
      1     Pa     0.41674759    -0.06882497     0.07765837       adf.R=2.200
      2      O     1.23503255     1.54912813    -0.96530084       adf.R=1.517
      3      H     1.34711747     1.90375895    -1.85654712       adf.R=1.350
      4      O    -1.40438410     0.94169392     0.41315624       adf.R=1.517
      5      H    -1.82233540     1.76979741     0.14923698       adf.R=1.350
      6      O     0.00041206    -1.09224428    -1.69061668       adf.R=1.517
      7      H    -0.24967829    -1.90110456    -2.14947084       adf.R=1.350
      8      O    -0.14313517    -1.66799411     1.29748610       adf.R=1.517
      9      H    -0.88756591    -2.16750022     1.65557276       adf.R=1.350
     10      O     2.48161523     0.09931662     1.51721809       adf.R=1.517
     11      O     2.66335893    -1.20565487    -0.19380763       adf.R=1.517
     12      N     3.22134401    -0.69319415     0.83638785       adf.R=1.608
     13      O     4.36364443    -0.93790308     1.14490042       adf.R=1.517
 
Total System Charge             0.00000
Bonding info available!
 
 *** GO1_GOStep12 ***

 SOLVATION
-------------------------------------------

  The Delley construction of COSMO surface surface is calculated

       Division Level for Surface Triangles (NDIV)                  3
       Final Division Level for Triangles (NFDIV)                   1
       Radius of the Solvent (RSOL)                           1.93000 angstr
  Dielectric Constant (EPSL)                                 78.39000

       COSMO equation is solved iteratively-               conjugate-gradient

       Maximun of Iterations for Charges (NCIX)                  1000
       Criterion for Charge convergence (CCNV)                1.0E-08

  COSMO charges included variationally in SCF

       COSMO included at every SCF cycle

  Geometry-dependent empirical factor                         0.00000

  C-Matrix calculated in cspmtx

  In cspmtx, C-Matrix calculated using fitted potential

-------------------------------------------



 -------------------------------------------
  COSMO surface
  Area             =          573.620
  Volume           =          937.983
  Number of Points =         1542
 -------------------------------------------



 ======================
 RI Hartree-Fock Scheme
 ======================
  
 Fit Set Quality     : GOOD
 Threshold Quality   : GOOD
 Integration Quality : GOOD
 Response Quality    : DEFAULT
 Is Range Separated  :  F
 
 RIHartreeFock Dependency: number of modified vectors:           4
 cosmo_calcen: 0.5 (esolb+esolc) (Hartrees) =   -0.036859

 Solvation energy (screening term,uncorrected) =    -23.129610 kcal/mol

 Solvation energy (dispersion and cavitation terms) =      1.072625 kcal/mol
 Solvation Energy Contributions (Hartrees)
          esola   esolb+esolc
     0.03685938   -0.07371875
 esol last cycle   -0.03685938
  
 Hartree-Fock exchange energy:   -531.721812269493     
 cosmo_calcen: 0.5 (esolb+esolc) (Hartrees) =   -0.036859

 Solvation energy (screening term,uncorrected) =    -23.129611 kcal/mol

 Solvation energy (dispersion and cavitation terms) =      1.072625 kcal/mol
 Solvation Energy Contributions (Hartrees)
          esola   esolb+esolc
     0.03685938   -0.07371875
 esol last cycle   -0.03685938

 Energy gradients wrt nuclear displacements
 ==========================================

     Atom      Cartesian (a.u./angstrom)
                 X         Y         Z
 ----------------------------------------
     1 Pa    0.000030 -0.000017  0.000165
     2 O     0.000039 -0.000008 -0.000021
     3 H     0.000048 -0.000046 -0.000043
     4 O     0.000068  0.000048 -0.000012
     5 H     0.000050  0.000080 -0.000022
     6 O     0.000025  0.000301  0.000036
     7 H    -0.000159 -0.000340 -0.000121
     8 O    -0.000013  0.000086  0.000028
     9 H    -0.000064  0.000046  0.000045
    10 O     0.000027 -0.000033 -0.000048
    11 O    -0.000045  0.000018  0.000012
    12 N     0.000006 -0.000057 -0.000001
    13 O    -0.000011 -0.000078 -0.000018
 ----------------------------------------
 Mulliken charges used for AMS results%charges...

 dE(predicted):    -0.27989E-06, dE(actual):     0.74559E-04, Trust radius:    0.020000, all in a.u.
 
----------------------------------------------------------------------
Geometry Convergence after Step  12       (Hartree/Angstrom,Angstrom)
----------------------------------------------------------------------
current energy                               -3.74508706 Hartree
energy change                       0.00007456     0.00001300    F
constrained gradient max            0.00033828     0.00010000    F
constrained gradient rms            0.00008530     0.00006667    F
gradient max                        0.00033828
gradient rms                        0.00008530
cart. step max                      0.00265547     0.00100000    F
cart. step rms                      0.00078621     0.00066667    F
 
 
--------
Geometry
--------
Formula: H4NO7Pa
Atoms
  Index Symbol   x (angstrom)   y (angstrom)   z (angstrom)
      1     Pa     0.41661811    -0.06918549     0.07684878       adf.R=2.200
      2      O     1.23500867     1.54889681    -0.96573056       adf.R=1.517
      3      H     1.34669967     1.90502289    -1.85642047       adf.R=1.350
      4      O    -1.40438027     0.94128251     0.41306703       adf.R=1.517
      5      H    -1.82254162     1.76972220     0.15057521       adf.R=1.350
      6      O     0.00081416    -1.09278992    -1.69126054       adf.R=1.517
      7      H    -0.24873402    -1.90089331    -2.15147055       adf.R=1.350
      8      O    -0.14290402    -1.66834971     1.29691290       adf.R=1.517
      9      H    -0.88725697    -2.16560300     1.65822822       adf.R=1.350
     10      O     2.48117847     0.09940678     1.51668118       adf.R=1.517
     11      O     2.66335820    -1.20659676    -0.19354873       adf.R=1.517
     12      N     3.22105084    -0.69353973     0.83649452       adf.R=1.608
     13      O     4.36326215    -0.93809848     1.14549670       adf.R=1.517
 
Total System Charge             0.00000
Bonding info available!
 
 *** GO1_GOStep13 ***

 SOLVATION
-------------------------------------------

  The Delley construction of COSMO surface surface is calculated

       Division Level for Surface Triangles (NDIV)                  3
       Final Division Level for Triangles (NFDIV)                   1
       Radius of the Solvent (RSOL)                           1.93000 angstr
  Dielectric Constant (EPSL)                                 78.39000

       COSMO equation is solved iteratively-               conjugate-gradient

       Maximun of Iterations for Charges (NCIX)                  1000
       Criterion for Charge convergence (CCNV)                1.0E-08

  COSMO charges included variationally in SCF

       COSMO included at every SCF cycle

  Geometry-dependent empirical factor                         0.00000

  C-Matrix calculated in cspmtx

  In cspmtx, C-Matrix calculated using fitted potential

-------------------------------------------



 -------------------------------------------
  COSMO surface
  Area             =          573.593
  Volume           =          937.848
  Number of Points =         1544
 -------------------------------------------



 ======================
 RI Hartree-Fock Scheme
 ======================
  
 Fit Set Quality     : GOOD
 Threshold Quality   : GOOD
 Integration Quality : GOOD
 Response Quality    : DEFAULT
 Is Range Separated  :  F
 
 RIHartreeFock Dependency: number of modified vectors:           4
 cosmo_calcen: 0.5 (esolb+esolc) (Hartrees) =   -0.036849

 Solvation energy (screening term,uncorrected) =    -23.123048 kcal/mol

 Solvation energy (dispersion and cavitation terms) =      1.072574 kcal/mol
 Solvation Energy Contributions (Hartrees)
          esola   esolb+esolc
     0.03684892   -0.07369784
 esol last cycle   -0.03684892
  
 Hartree-Fock exchange energy:   -531.721979145435     
 cosmo_calcen: 0.5 (esolb+esolc) (Hartrees) =   -0.036849

 Solvation energy (screening term,uncorrected) =    -23.123048 kcal/mol

 Solvation energy (dispersion and cavitation terms) =      1.072574 kcal/mol
 Solvation Energy Contributions (Hartrees)
          esola   esolb+esolc
     0.03684892   -0.07369784
 esol last cycle   -0.03684892

 Energy gradients wrt nuclear displacements
 ==========================================

     Atom      Cartesian (a.u./angstrom)
                 X         Y         Z
 ----------------------------------------
     1 Pa    0.000010  0.000023 -0.000153
     2 O     0.000040 -0.000026 -0.000023
     3 H     0.000046 -0.000035 -0.000034
     4 O     0.000044  0.000061 -0.000008
     5 H     0.000053  0.000078 -0.000010
     6 O    -0.000067 -0.000059 -0.000029
     7 H    -0.000038  0.000051  0.000066
     8 O    -0.000044  0.000050  0.000029
     9 H    -0.000026  0.000072  0.000042
    10 O     0.000008  0.000062  0.000159
    11 O    -0.000016 -0.000154 -0.000022
    12 N    -0.000001 -0.000049 -0.000004
    13 O    -0.000009 -0.000074 -0.000014
 ----------------------------------------
 Mulliken charges used for AMS results%charges...

 dE(predicted):    -0.13322E-06, dE(actual):    -0.57978E-04, Trust radius:    0.040000, all in a.u.
 
----------------------------------------------------------------------
Geometry Convergence after Step  13       (Hartree/Angstrom,Angstrom)
----------------------------------------------------------------------
current energy                               -3.74514504 Hartree
energy change                      -0.00005798     0.00001300    F
constrained gradient max            0.00016821     0.00010000    F
constrained gradient rms            0.00004601     0.00006667    T
gradient max                        0.00016821
gradient rms                        0.00004601
cart. step max                      0.00404684     0.00100000    F
cart. step rms                      0.00117042     0.00066667    F
 
 
--------
Geometry
--------
Formula: H4NO7Pa
Atoms
  Index Symbol   x (angstrom)   y (angstrom)   z (angstrom)
      1     Pa     0.41614698    -0.06918345     0.07752707       adf.R=2.200
      2      O     1.23432901     1.54894803    -0.96508355       adf.R=1.517
      3      H     1.34726767     1.90461862    -1.85579094       adf.R=1.350
      4      O    -1.40529378     0.94075858     0.41351840       adf.R=1.517
      5      H    -1.82345507     1.76910610     0.15075570       adf.R=1.350
      6      O     0.00206218    -1.09309171    -1.69050234       adf.R=1.517
      7      H    -0.24468717    -1.90074418    -2.15274842       adf.R=1.350
      8      O    -0.14328806    -1.66892430     1.29722638       adf.R=1.517
      9      H    -0.88933024    -2.16226212     1.66040904       adf.R=1.350
     10      O     2.48124683     0.09868776     1.51613644       adf.R=1.517
     11      O     2.66307033    -1.20596521    -0.19500604       adf.R=1.517
     12      N     3.22096146    -0.69384336     0.83532115       adf.R=1.608
     13      O     4.36314327    -0.93882995     1.14411080       adf.R=1.517
 
Total System Charge             0.00000
Bonding info available!
 
 *** GO1_GOStep14 ***

 SOLVATION
-------------------------------------------

  The Delley construction of COSMO surface surface is calculated

       Division Level for Surface Triangles (NDIV)                  3
       Final Division Level for Triangles (NFDIV)                   1
       Radius of the Solvent (RSOL)                           1.93000 angstr
  Dielectric Constant (EPSL)                                 78.39000

       COSMO equation is solved iteratively-               conjugate-gradient

       Maximun of Iterations for Charges (NCIX)                  1000
       Criterion for Charge convergence (CCNV)                1.0E-08

  COSMO charges included variationally in SCF

       COSMO included at every SCF cycle

  Geometry-dependent empirical factor                         0.00000

  C-Matrix calculated in cspmtx

  In cspmtx, C-Matrix calculated using fitted potential

-------------------------------------------



 -------------------------------------------
  COSMO surface
  Area             =          573.744
  Volume           =          938.075
  Number of Points =         1542
 -------------------------------------------



 ======================
 RI Hartree-Fock Scheme
 ======================
  
 Fit Set Quality     : GOOD
 Threshold Quality   : GOOD
 Integration Quality : GOOD
 Response Quality    : DEFAULT
 Is Range Separated  :  F
 
 RIHartreeFock Dependency: number of modified vectors:           4
 cosmo_calcen: 0.5 (esolb+esolc) (Hartrees) =   -0.036860

 Solvation energy (screening term,uncorrected) =    -23.129759 kcal/mol

 Solvation energy (dispersion and cavitation terms) =      1.072856 kcal/mol
 Solvation Energy Contributions (Hartrees)
          esola   esolb+esolc
     0.03685961   -0.07371923
 esol last cycle   -0.03685961
  
 Hartree-Fock exchange energy:   -531.722219034171     
 cosmo_calcen: 0.5 (esolb+esolc) (Hartrees) =   -0.036860

 Solvation energy (screening term,uncorrected) =    -23.129759 kcal/mol

 Solvation energy (dispersion and cavitation terms) =      1.072856 kcal/mol
 Solvation Energy Contributions (Hartrees)
          esola   esolb+esolc
     0.03685961   -0.07371923
 esol last cycle   -0.03685961

 Energy gradients wrt nuclear displacements
 ==========================================

     Atom      Cartesian (a.u./angstrom)
                 X         Y         Z
 ----------------------------------------
     1 Pa   -0.000030  0.000093  0.000006
     2 O     0.000049 -0.000055 -0.000047
     3 H     0.000051 -0.000031 -0.000024
     4 O    -0.000009  0.000094  0.000000
     5 H     0.000064  0.000068 -0.000008
     6 O    -0.000093 -0.000353 -0.000045
     7 H     0.000055  0.000373  0.000209
     8 O    -0.000061 -0.000008  0.000022
     9 H    -0.000012  0.000112  0.000032
    10 O     0.000024 -0.000076 -0.000133
    11 O    -0.000001 -0.000090  0.000005
    12 N    -0.000025 -0.000046 -0.000016
    13 O    -0.000013 -0.000080  0.000000
 ----------------------------------------
 Mulliken charges used for AMS results%charges...

 dE(predicted):    -0.16815E-06, dE(actual):    -0.36239E-04, Trust radius:    0.040000, all in a.u.
 
----------------------------------------------------------------------
Geometry Convergence after Step  14       (Hartree/Angstrom,Angstrom)
----------------------------------------------------------------------
current energy                               -3.74518128 Hartree
energy change                      -0.00003624     0.00001300    F
constrained gradient max            0.00037259     0.00010000    F
constrained gradient rms            0.00009512     0.00006667    F
gradient max                        0.00037259
gradient rms                        0.00009512
cart. step max                      0.00428131     0.00100000    F
cart. step rms                      0.00125363     0.00066667    F
 
 
--------
Geometry
--------
Formula: H4NO7Pa
Atoms
  Index Symbol   x (angstrom)   y (angstrom)   z (angstrom)
      1     Pa     0.41652281    -0.06893959     0.07780459       adf.R=2.200
      2      O     1.23465370     1.54888369    -0.96547435       adf.R=1.517
      3      H     1.34711958     1.90321896    -1.85678510       adf.R=1.350
      4      O    -1.40464525     0.94155484     0.41379726       adf.R=1.517
      5      H    -1.82226937     1.76990449     0.15014587       adf.R=1.350
      6      O     0.00085051    -1.09287477    -1.68995746       adf.R=1.517
      7      H    -0.24789551    -1.90065282    -2.15124637       adf.R=1.350
      8      O    -0.14314201    -1.66821345     1.29784565       adf.R=1.517
      9      H    -0.88848943    -2.16620297     1.65612773       adf.R=1.350
     10      O     2.48144850     0.09928955     1.51691472       adf.R=1.517
     11      O     2.66330595    -1.20555986    -0.19413547       adf.R=1.517
     12      N     3.22122561    -0.69319321     0.83610130       adf.R=1.608
     13      O     4.36348833    -0.93794005     1.14473534       adf.R=1.517
 
Total System Charge             0.00000
Bonding info available!
 
 *** GO1_GOStep15 ***

 SOLVATION
-------------------------------------------

  The Delley construction of COSMO surface surface is calculated

       Division Level for Surface Triangles (NDIV)                  3
       Final Division Level for Triangles (NFDIV)                   1
       Radius of the Solvent (RSOL)                           1.93000 angstr
  Dielectric Constant (EPSL)                                 78.39000

       COSMO equation is solved iteratively-               conjugate-gradient

       Maximun of Iterations for Charges (NCIX)                  1000
       Criterion for Charge convergence (CCNV)                1.0E-08

  COSMO charges included variationally in SCF

       COSMO included at every SCF cycle

  Geometry-dependent empirical factor                         0.00000

  C-Matrix calculated in cspmtx

  In cspmtx, C-Matrix calculated using fitted potential

-------------------------------------------



 -------------------------------------------
  COSMO surface
  Area             =          573.622
  Volume           =          937.954
  Number of Points =         1543
 -------------------------------------------



 ======================
 RI Hartree-Fock Scheme
 ======================
  
 Fit Set Quality     : GOOD
 Threshold Quality   : GOOD
 Integration Quality : GOOD
 Response Quality    : DEFAULT
 Is Range Separated  :  F
 
 RIHartreeFock Dependency: number of modified vectors:           4
 cosmo_calcen: 0.5 (esolb+esolc) (Hartrees) =   -0.036855

 Solvation energy (screening term,uncorrected) =    -23.127143 kcal/mol

 Solvation energy (dispersion and cavitation terms) =      1.072630 kcal/mol
 Solvation Energy Contributions (Hartrees)
          esola   esolb+esolc
     0.03685544   -0.07371089
 esol last cycle   -0.03685544
  
 Hartree-Fock exchange energy:   -531.722056732595     
 cosmo_calcen: 0.5 (esolb+esolc) (Hartrees) =   -0.036855

 Solvation energy (screening term,uncorrected) =    -23.127144 kcal/mol

 Solvation energy (dispersion and cavitation terms) =      1.072630 kcal/mol
 Solvation Energy Contributions (Hartrees)
          esola   esolb+esolc
[...]
     5     H       0.312202   0.362918   0.586049
     6     O       0.008113  -0.016911   0.032989
     7     H      -0.305764   0.058785   0.081607
     8     O       0.049299  -0.067774  -0.055221
     9     H      -0.025585   0.307623   0.308615
    10     O      -0.151823  -0.057089  -0.127813
    11     O       0.054863  -0.122530  -0.051454
    12     N      -0.044233  -0.044918  -0.053699
    13     O      -0.051204   0.086518   0.056376
 
 Mode:    21      Frequency (cm-1):      260.4569     Intensity (km/mol):      146.3547
 Index  Atom      ---- Displacements (x/y/z) ----
     1    Pa       0.002273  -0.009917  -0.003510
     2     O       0.013846  -0.038311  -0.029341
     3     H      -0.161042   0.086064  -0.001384
     4     O      -0.008731  -0.023887  -0.001555
     5     H       0.233579   0.250114   0.475885
     6     O       0.062223   0.050202  -0.081831
     7     H      -0.655819   0.060254   0.303207
     8     O      -0.009644   0.060913   0.051797
     9     H       0.146628  -0.200031   0.009967
    10     O       0.017239   0.009054   0.056568
    11     O      -0.051983   0.064980   0.011109
    12     N      -0.016556   0.025099   0.020999
    13     O      -0.013773  -0.014057  -0.024065
 
 Mode:    22      Frequency (cm-1):      267.2551     Intensity (km/mol):       58.1463
 Index  Atom      ---- Displacements (x/y/z) ----
     1    Pa       0.002093   0.002052   0.007116
     2     O      -0.013025  -0.006888  -0.003058
     3     H       0.124205   0.070830   0.046322
     4     O      -0.013656   0.015079   0.046661
     5     H      -0.151691  -0.269948  -0.636652
     6     O       0.073880   0.005474  -0.016734
     7     H      -0.488566   0.035958   0.251031
     8     O      -0.026572   0.028436  -0.033215
     9     H       0.254977  -0.227717   0.186668
    10     O      -0.040469  -0.009866  -0.056409
    11     O       0.027717  -0.043888  -0.025027
    12     N      -0.008920  -0.015740  -0.026818
    13     O      -0.013848   0.020423   0.018097
 
 Mode:    23      Frequency (cm-1):      290.6281     Intensity (km/mol):      383.7263
 Index  Atom      ---- Displacements (x/y/z) ----
     1    Pa       0.007064   0.001202   0.001998
     2     O       0.019716  -0.041983  -0.025487
     3     H       0.000484   0.266810   0.096920
     4     O      -0.073276  -0.045789   0.022377
     5     H       0.378116   0.180594   0.005884
     6     O      -0.046241  -0.009441   0.021525
     7     H       0.361789  -0.021496  -0.190044
     8     O      -0.071443   0.051082  -0.081357
     9     H       0.442325  -0.267054   0.530212
    10     O       0.005127   0.005614   0.007363
    11     O      -0.006861   0.012240   0.001456
    12     N      -0.001903   0.005531   0.001957
    13     O      -0.001910  -0.003940  -0.004364
 
 Mode:    24      Frequency (cm-1):      310.2179     Intensity (km/mol):      370.7821
 Index  Atom      ---- Displacements (x/y/z) ----
     1    Pa       0.003455   0.005262   0.003715
     2     O      -0.084331  -0.110797  -0.053942
     3     H       0.598653   0.647521   0.340911
     4     O       0.007024  -0.000839  -0.011303
     5     H      -0.019331   0.008602   0.062182
     6     O       0.008006   0.021421  -0.021152
     7     H       0.016364   0.051414  -0.081284
     8     O       0.013126  -0.033650   0.030510
     9     H      -0.174886   0.114792  -0.150223
    10     O      -0.008727  -0.004040  -0.002206
    11     O      -0.000742  -0.002045  -0.005263
    12     N      -0.005410  -0.001040  -0.002691
    13     O      -0.006037   0.003036   0.001234
 
 Mode:    25      Frequency (cm-1):      318.0418     Intensity (km/mol):      185.0427
 Index  Atom      ---- Displacements (x/y/z) ----
     1    Pa       0.003053  -0.003573   0.003415
     2     O      -0.043655   0.034528  -0.008871
     3     H       0.202379  -0.054405  -0.011863
     4     O       0.101335   0.017338  -0.057230
     5     H      -0.664284  -0.211121   0.470167
     6     O      -0.014183   0.000155  -0.000919
     7     H       0.074322  -0.011099  -0.032246
     8     O      -0.056048   0.027761  -0.018758
     9     H       0.284403  -0.296709   0.227411
    10     O      -0.005255   0.002547  -0.001154
    11     O      -0.006643   0.001278  -0.000241
    12     N      -0.007004   0.002407  -0.001153
    13     O      -0.007012   0.002020  -0.002323
 
 Mode:    26      Frequency (cm-1):      501.6498     Intensity (km/mol):      113.3395
 Index  Atom      ---- Displacements (x/y/z) ----
     1    Pa       0.026715  -0.008246   0.000167
     2     O      -0.104502  -0.192539   0.154302
     3     H      -0.180207  -0.332550   0.084412
     4     O      -0.274042   0.197134   0.025118
     5     H      -0.638114   0.084545   0.274403
     6     O      -0.017921  -0.048248  -0.058641
     7     H      -0.020295   0.002275  -0.135543
     8     O       0.076602   0.159683  -0.123993
     9     H      -0.023390   0.261825  -0.179514
    10     O      -0.003114  -0.000362  -0.002531
    11     O      -0.005527   0.001692   0.001496
    12     N      -0.001040  -0.000125  -0.000131
    13     O      -0.002153   0.000846  -0.000805
 
 Mode:    27      Frequency (cm-1):      531.6212     Intensity (km/mol):      297.7125
 Index  Atom      ---- Displacements (x/y/z) ----
     1    Pa       0.016531  -0.014411  -0.039970
     2     O       0.014223   0.038194  -0.028329
     3     H       0.020076   0.105753  -0.000068
     4     O      -0.233212   0.146295   0.034939
     5     H      -0.361879   0.130537   0.200359
     6     O       0.075210   0.228810   0.331499
     7     H       0.142195   0.053876   0.552061
     8     O      -0.094223  -0.207503   0.162588
     9     H      -0.000280  -0.268693   0.268428
    10     O       0.002350  -0.004845  -0.003915
    11     O      -0.004713   0.003145   0.004098
    12     N       0.008496   0.000605   0.007669
    13     O       0.006745   0.002176   0.005430
 
 Mode:    28      Frequency (cm-1):      540.3058     Intensity (km/mol):      496.0390
 Index  Atom      ---- Displacements (x/y/z) ----
     1    Pa       0.012575   0.046448  -0.020554
     2     O      -0.120209  -0.253959   0.208671
     3     H      -0.333996  -0.561315   0.053799
     4     O       0.082013  -0.062165  -0.005922
     5     H       0.157875  -0.049002  -0.090932
     6     O      -0.020735  -0.062134  -0.077378
     7     H      -0.040399  -0.035963  -0.097981
     8     O      -0.110681  -0.222838   0.159798
     9     H       0.102528  -0.397994   0.346154
    10     O      -0.001541   0.000357  -0.000136
    11     O       0.000357  -0.004038   0.002525
    12     N      -0.002988  -0.001828  -0.000851
    13     O      -0.001045   0.001268  -0.003227
 
 Mode:    29      Frequency (cm-1):      635.5444     Intensity (km/mol):      173.4324
 Index  Atom      ---- Displacements (x/y/z) ----
     1    Pa       0.018248   0.006992   0.020794
     2     O       0.103495   0.215022  -0.152981
     3     H       0.136886   0.245044  -0.139978
     4     O      -0.243552   0.144337   0.037100
     5     H      -0.330375   0.108566   0.044723
     6     O      -0.080786  -0.215628  -0.345116
     7     H      -0.146205  -0.125811  -0.436019
     8     O      -0.092050  -0.225244   0.164495
     9     H      -0.049330  -0.261673   0.206267
    10     O      -0.025952  -0.023755  -0.047829
    11     O      -0.025621   0.036541   0.035949
    12     N       0.070629  -0.015640   0.017420
    13     O       0.063570  -0.016444   0.013257
 
 Mode:    30      Frequency (cm-1):      709.4045     Intensity (km/mol):        0.3263
 Index  Atom      ---- Displacements (x/y/z) ----
     1    Pa       0.000243  -0.000389   0.000183
     2     O      -0.003322  -0.002539   0.004466
     3     H       0.021318  -0.003854   0.007371
     4     O       0.002598   0.000048  -0.000522
     5     H       0.019407   0.015155   0.023170
     6     O      -0.001230   0.011493   0.013684
     7     H      -0.052741   0.020632   0.025817
     8     O       0.002284   0.006296  -0.000993
     9     H      -0.002657   0.027887   0.018234
    10     O      -0.506698   0.206258   0.006529
    11     O       0.450215   0.028655   0.291420
    12     N      -0.008368   0.133409   0.169774
    13     O       0.060888  -0.365162  -0.470554
 
 Mode:    31      Frequency (cm-1):      754.3330     Intensity (km/mol):       44.2488
 Index  Atom      ---- Displacements (x/y/z) ----
     1    Pa      -0.003323  -0.001422  -0.003218
     2     O      -0.023839  -0.054489   0.037034
     3     H      -0.012105  -0.056007   0.041051
     4     O       0.070956  -0.043585  -0.011659
     5     H       0.084803  -0.054290  -0.058211
     6     O       0.014216   0.047824   0.074420
     7     H       0.047625   0.035565   0.073675
     8     O       0.022435   0.059783  -0.037964
     9     H       0.019832   0.043514  -0.072984
    10     O      -0.270988  -0.228796  -0.466102
    11     O      -0.386832   0.358426   0.278952
    12     N       0.274672  -0.049870   0.058469
    13     O       0.372756  -0.073000   0.121649
 
 Mode:    32      Frequency (cm-1):      814.9354     Intensity (km/mol):       22.5712
 Index  Atom      ---- Displacements (x/y/z) ----
     1    Pa      -0.000486  -0.000830   0.000342
     2     O       0.001720  -0.001532   0.001134
     3     H       0.005154   0.002503   0.003129
     4     O       0.000904  -0.001018   0.000138
     5     H       0.000319  -0.001639  -0.001114
     6     O      -0.000336   0.000264   0.001026
     7     H       0.004127   0.000793  -0.002918
     8     O      -0.001670   0.002714   0.000554
     9     H      -0.001961  -0.003714  -0.009262
    10     O       0.074979   0.200335  -0.149569
    11     O       0.078370   0.208414  -0.140704
    12     N      -0.275029  -0.685505   0.494354
    13     O       0.093351   0.203076  -0.149673
 
 Mode:    33      Frequency (cm-1):     1053.2683     Intensity (km/mol):      116.3864
 Index  Atom      ---- Displacements (x/y/z) ----
     1    Pa      -0.000473   0.000025  -0.001044
     2     O      -0.001856  -0.007853   0.005209
     3     H      -0.009526  -0.002095   0.008292
     4     O       0.007537  -0.004026  -0.000595
     5     H       0.006905   0.001910   0.021641
     6     O       0.002970   0.004657   0.008450
     7     H      -0.020001   0.006032   0.018910
     8     O       0.004571   0.005469  -0.006273
     9     H       0.017756   0.003407   0.014643
    10     O      -0.363663   0.374695   0.318100
    11     O      -0.275223  -0.234068  -0.474882
    12     N       0.226840  -0.053380   0.050306
    13     O       0.434210  -0.093088   0.117036
 
 Mode:    34      Frequency (cm-1):     1234.7097     Intensity (km/mol):      669.3018
 Index  Atom      ---- Displacements (x/y/z) ----
     1    Pa       0.000451  -0.002626  -0.003319
     2     O      -0.001713   0.002056   0.002030
     3     H       0.020196  -0.000116   0.003791
     4     O       0.000193   0.000273   0.000262
     5     H       0.007861   0.006395   0.011369
     6     O      -0.003349   0.004105   0.002799
     7     H      -0.022498   0.006974   0.006321
     8     O       0.000043   0.001023   0.002625
     9     H      -0.001291   0.010551   0.013408
    10     O      -0.115376   0.220478   0.242390
    11     O       0.066384   0.191725   0.301990
    12     N       0.075508  -0.517086  -0.677860
    13     O      -0.019067   0.069458   0.087097
 
 Mode:    35      Frequency (cm-1):     1507.1791     Intensity (km/mol):     1398.0449
 Index  Atom      ---- Displacements (x/y/z) ----
     1    Pa       0.003974  -0.000657   0.001328
     2     O       0.001492   0.009505  -0.005936
     3     H      -0.000273   0.006654  -0.013134
     4     O      -0.009680   0.005199   0.001462
     5     H      -0.010335   0.007779   0.000241
     6     O      -0.003060  -0.004959  -0.009351
     7     H      -0.001334  -0.008487  -0.010283
     8     O      -0.004639  -0.008712   0.006634
     9     H      -0.017621  -0.003319   0.000741
    10     O       0.062835  -0.034146  -0.011275
    11     O       0.059178   0.009917   0.048205
    12     N      -0.780437   0.164197  -0.216370
    13     O       0.521579  -0.111235   0.141919
 
 Mode:    36      Frequency (cm-1):     3791.7299     Intensity (km/mol):      508.8730
 Index  Atom      ---- Displacements (x/y/z) ----
     1    Pa      -0.000026  -0.000033   0.000027
     2     O      -0.007056  -0.022157   0.054821
     3     H       0.113011   0.354063  -0.875427
     4     O      -0.001064   0.002456  -0.000872
     5     H       0.020487  -0.040279   0.012716
     6     O       0.000116   0.000303   0.000231
     7     H      -0.000269  -0.001531  -0.000999
     8     O      -0.014347  -0.009609   0.006987
     9     H       0.229761   0.154953  -0.112194
    10     O      -0.000098   0.000036  -0.000043
    11     O      -0.000099   0.000014  -0.000041
    12     N       0.000187  -0.000022   0.000045
    13     O      -0.000105   0.000015  -0.000028
 
 Mode:    37      Frequency (cm-1):     3793.6810     Intensity (km/mol):      172.6493
 Index  Atom      ---- Displacements (x/y/z) ----
     1    Pa      -0.000000  -0.000015   0.000021
     2     O       0.002194   0.006899  -0.016876
     3     H      -0.035133  -0.109249   0.269155
     4     O       0.002241  -0.004870   0.001637
     5     H      -0.041794   0.081671  -0.025599
     6     O       0.001333   0.004387   0.002280
     7     H      -0.022955  -0.072850  -0.042297
     8     O      -0.045462  -0.030719   0.022294
     9     H       0.725825   0.490460  -0.355550
    10     O       0.000168  -0.000021   0.000064
    11     O       0.000181  -0.000048   0.000044
    12     N      -0.000298   0.000061  -0.000093
    13     O       0.000170  -0.000036   0.000056
 
 Mode:    38      Frequency (cm-1):     3812.5067     Intensity (km/mol):      311.6013
 Index  Atom      ---- Displacements (x/y/z) ----
     1    Pa      -0.000015   0.000038   0.000009
     2     O       0.000776   0.001911  -0.004392
     3     H      -0.008557  -0.026838   0.066608
     4     O      -0.027582   0.053360  -0.016594
     5     H       0.436568  -0.850510   0.266227
     6     O       0.000277   0.000713   0.000224
     7     H      -0.005367  -0.015099  -0.009590
     8     O      -0.003690  -0.002776   0.001966
     9     H       0.057663   0.039243  -0.028067
    10     O       0.000158  -0.000017   0.000058
    11     O       0.000067  -0.000029  -0.000013
    12     N      -0.000185   0.000076   0.000007
    13     O       0.000106  -0.000024   0.000021
 
 Mode:    39      Frequency (cm-1):     4000.6299     Intensity (km/mol):      374.9788
 Index  Atom      ---- Displacements (x/y/z) ----
     1    Pa       0.000027   0.000057   0.000170
     2     O      -0.000263  -0.000811   0.001449
     3     H       0.001947   0.005913  -0.024313
     4     O       0.000476  -0.000785  -0.000013
     5     H      -0.005156   0.007134  -0.005309
     6     O       0.016681   0.051353   0.028463
     7     H      -0.273256  -0.823137  -0.485939
     8     O       0.004258   0.002775  -0.002123
     9     H      -0.065287  -0.041349   0.034235
    10     O      -0.000034   0.000133  -0.000093
    11     O      -0.000081  -0.000036   0.000072
    12     N       0.000229   0.000066   0.000122
    13     O      -0.000093   0.000133   0.000010

PES point character: Geometry corresponds to a local minimum on the PES.




 ============================
 Statistical Thermal Analysis  ***  ideal gas assumed  ***
 ============================
  
 Pressure:                  1.000000 atm.
 Temperature:             298.150000 K



 Moments of Inertia [amu*bohr^2] and principal axis
 ==================================================

        1010.8792       2531.5171       2637.7599
 ------------------------------------------------
           0.9447         -0.3201          0.0712
          -0.2162         -0.7711         -0.5989
           0.2466          0.5504         -0.7977


 The rotational contribution to the molecular entropy includes
 a term, dependent on the symmetry number sigma. The results 
 reported below were computed using sigma = 1, determined from
 the point group symmetry of the input geometry (NOSYM). 
 If this is not the correct symmetry, try symmetrizing the molecule before
 running the calculation (note: linear molecules should be aligned along one
 of the Cartesian axes).
 Contributions from frequencies below 20 1/cm are not included in vibrational sums.
 Their contributions, if any, are reported separately.


     Temp                                                        Transl      Rotat     Vibrat     Total
     ----                                                        ------      -----     ------     -----

     298.15   Entropy (cal/mol-K):                               43.545     30.291     49.654    123.490
              Nuclear Internal Energy (kcal/mol):                 0.889      0.889     46.748     48.526
              Constant Volume Heat Capacity (cal/mol-K):          2.981      2.981     42.023     47.984
          (c) Constant Volume Heat Capacity (cal/mol-K):          2.981      2.981     38.122     44.084

       Summary of energy terms
                                                   hartree              eV         kcal/mol           kJ/mol
                                      --------------------     -----------       ----------      -----------
      Energy from Engine:               -3.745140777658151       -101.9105         -2350.11         -9832.87
      Nuclear Internal Energy:           0.077331007795735          2.1043            48.53           203.03
  (c) Nuclear Internal Energy:           0.075279464161761          2.0485            47.24           197.65
      Internal Energy U:                -3.667809769862417        -99.8062         -2301.59         -9629.83
      pV/n = RT:                         0.000944186013486          0.0257             0.59             2.48
      Enthalpy H:                       -3.666865583848931        -99.7805         -2300.99         -9627.35
      -T*S:                             -0.058673840830314         -1.5966           -36.82          -154.05
  (c) -T*S:                             -0.057413455384070         -1.5623           -36.03          -150.74
      Gibbs free energy:                -3.725539424679245       -101.3771         -2337.81         -9781.40
 
 
 
  (c) The properties marked with this symbol have been corrected using 'low vibrational frequency free rotor
      interpolation corrections'. For those terms all positive frequencies are used (also ones below 20 1/cm),
      but the contribution to the partition function of small vibrational frequencies is modified as described
      in the following paper:
      S. Grimme, 'Supramolecular Binding Thermodynamics by Dispersion-Corrected Density Functional Theory'
      (Chem. Eur. J. 2012, 18, 9955-9964)
      Configuration: Dampener Frequency          :   100.000 1/cm
                     Dampener Alpha              :     4.000
                     Averaging Moment of Inertia : 1.000E-44 kg m2

--------------
Atomic charges
--------------
  Index   Atom    Charge
      1     Pa    2.8155
      2      O   -0.6434
      3      H    0.1189
      4      O   -0.6927
      5      H    0.1346
      6      O   -0.6585
      7      H    0.1054
      8      O   -0.6363
      9      H    0.1115
     10      O   -0.5817
     11      O   -0.5753
     12      N    0.9606
     13      O   -0.4585


Dipole moment vector    (Debye):    -6.43195608    1.47271346   -2.06014196
              magnitude (Debye):     6.91253418


Final PES point is a local minimum. Geometry optimization successful!


AMS application finished. Exiting.
NORMAL TERMINATION
     Total cpu time:   70609.55
  Total system time:    1513.39
 Total elapsed time:   72135.01
